Title Card Required                                                     
FOpt      UM062X                                                      6-311+G(d,p)        
Number of atoms                            I                4
Info1-9                                    I   N=           9
          13          13           0           0           0         110
           2          18        -502
Full Title                                 C   N=           2
Title Card Required     
Route                                      C   N=           4
#p opt UM062X/6-311+G** nosymm int=superfine    
Charge                                     I                1
Multiplicity                               I                2
Number of electrons                        I               13
Number of alpha electrons                  I                7
Number of beta electrons                   I                6
Number of basis functions                  I               56
Number of independent functions            I               56
Number of point charges in /Mol/           I                0
Number of translation vectors              I                0
Atomic numbers                             I   N=           4
           6           6           1           1
Nuclear charges                            R   N=           4
  6.00000000E+00  6.00000000E+00  1.00000000E+00  1.00000000E+00
Current cartesian coordinates              R   N=          12
 -1.22113384E+00  0.00000000E+00  0.00000000E+00  1.22113384E+00  0.00000000E+00
  0.00000000E+00 -3.26691287E+00 -1.05390260E-09 -4.26923675E-08  3.26691266E+00
 -7.83178890E-08 -7.66163236E-08
Number of symbols in /Mol/                 I                0
Force Field                                I                0
Atom Types                                 C   N=           4
                                                
Int Atom Types                             I   N=           4
           0           0           0           0
MM charges                                 R   N=           4
  0.00000000E+00  0.00000000E+00  0.00000000E+00  0.00000000E+00
Integer atomic weights                     I   N=           4
          12          12           1           1
Real atomic weights                        R   N=           4
  1.20000000E+01  1.20000000E+01  1.00782504E+00  1.00782504E+00
Atom fragment info                         I   N=           4
           0           0           0           0
Atom residue num                           I   N=           4
           0           0           0           0
Nuclear spins                              I   N=           4
           0           0           1           1
Nuclear ZEff                               R   N=           4
 -3.60000000E+00 -3.60000000E+00 -1.00000000E+00 -1.00000000E+00
Nuclear ZNuc                               R   N=           4
  6.00000000E+00  6.00000000E+00  1.00000000E+00  1.00000000E+00
Nuclear QMom                               R   N=           4
  0.00000000E+00  0.00000000E+00  0.00000000E+00  0.00000000E+00
Nuclear GFac                               R   N=           4
  0.00000000E+00  0.00000000E+00  2.79284600E+00  2.79284600E+00
MicOpt                                     I   N=           4
          -2          -2          -1          -1
Number of residues                         I                0
Number of secondary structures             I                0
Redundant internal dimensions              I   N=           4
          12           8           4           0
Redundant internal coordinate indices      I   N=          48
           1          -1           0           0           1          -2
           0           0           1          -3           0           0
           2          -1           0           0           2          -2
           0           0           2          -3           0           0
           1           3           0           0           2           4
           0           0           2           1           3          -4
           1           2           4          -4           2           1
           3          -8           1           2           4          -8
Redundant internal coordinates             R   N=          12
 -1.22113384E+00  0.00000000E+00  0.00000000E+00  1.22113384E+00  0.00000000E+00
  0.00000000E+00  2.04577903E+00  2.04577882E+00  3.14159268E+00  3.14159262E+00
  3.14159263E+00  3.14159269E+00
ZRed-IntVec                                I   N=          12
          -1          -1          -1          -1          -1          -1
           0           0           0           0           0           0
ZRed-FPVec                                 R   N=          12
  0.00000000E+00  0.00000000E+00  0.00000000E+00  0.00000000E+00  0.00000000E+00
  0.00000000E+00  0.00000000E+00  0.00000000E+00  0.00000000E+00  0.00000000E+00
  0.00000000E+00  0.00000000E+00
ZRed-Constraint1                           R   N=          12
 -1.22113384E+00  0.00000000E+00  0.00000000E+00  1.22113384E+00  0.00000000E+00
  0.00000000E+00  2.12464131E+00  2.12461969E+00  3.14159265E+00  3.14159265E+00
  3.14159265E+00  3.14159265E+00
ZRed-Constraint2                           R   N=          12
 -1.22113384E+00  0.00000000E+00  0.00000000E+00  1.22113384E+00  0.00000000E+00
  0.00000000E+00  0.00000000E+00  0.00000000E+00  0.00000000E+00  0.00000000E+00
  0.00000000E+00  0.00000000E+00
Number of contracted shells                I               20
Number of primitive shells                 I               38
Pure/Cartesian d shells                    I                0
Pure/Cartesian f shells                    I                0
Highest angular momentum                   I                2
Largest degree of contraction              I                6
Shell types                                I   N=          20
           0          -1          -1          -1          -1          -2
           0          -1          -1          -1          -1          -2
           0           0           0           1           0           0
           0           1
Number of primitives per shell             I   N=          20
           6           3           1           1           1           1
           6           3           1           1           1           1
           3           1           1           1           3           1
           1           1
Shell to atom map                          I   N=          20
           1           1           1           1           1           1
           2           2           2           2           2           2
           3           3           3           3           4           4
           4           4
Primitive exponents                        R   N=          38
  4.56324000E+03  6.82024000E+02  1.54973000E+02  4.44553000E+01  1.30290000E+01
  1.82773000E+00  2.09642000E+01  4.80331000E+00  1.45933000E+00  4.83456000E-01
  1.45585000E-01  4.38000000E-02  6.26000000E-01  4.56324000E+03  6.82024000E+02
  1.54973000E+02  4.44553000E+01  1.30290000E+01  1.82773000E+00  2.09642000E+01
  4.80331000E+00  1.45933000E+00  4.83456000E-01  1.45585000E-01  4.38000000E-02
  6.26000000E-01  3.38650000E+01  5.09479000E+00  1.15879000E+00  3.25840000E-01
  1.02741000E-01  7.50000000E-01  3.38650000E+01  5.09479000E+00  1.15879000E+00
  3.25840000E-01  1.02741000E-01  7.50000000E-01
Contraction coefficients                   R   N=          38
  1.96665025E-03  1.52306019E-02  7.61269097E-02  2.60801033E-01  6.16462078E-01
  2.21006028E-01  1.14660081E-01  9.19999648E-01 -3.03068213E-03  1.00000000E+00
  1.00000000E+00  1.00000000E+00  1.00000000E+00  1.96665025E-03  1.52306019E-02
  7.61269097E-02  2.60801033E-01  6.16462078E-01  2.21006028E-01  1.14660081E-01
  9.19999648E-01 -3.03068213E-03  1.00000000E+00  1.00000000E+00  1.00000000E+00
  1.00000000E+00  2.54938145E-02  1.90373109E-01  8.52161486E-01  1.00000000E+00
  1.00000000E+00  1.00000000E+00  2.54938145E-02  1.90373109E-01  8.52161486E-01
  1.00000000E+00  1.00000000E+00  1.00000000E+00
P(S=P) Contraction coefficients            R   N=          38
  0.00000000E+00  0.00000000E+00  0.00000000E+00  0.00000000E+00  0.00000000E+00
  0.00000000E+00  4.02486927E-02  2.37593957E-01  8.15853851E-01  1.00000000E+00
  1.00000000E+00  1.00000000E+00  0.00000000E+00  0.00000000E+00  0.00000000E+00
  0.00000000E+00  0.00000000E+00  0.00000000E+00  0.00000000E+00  4.02486927E-02
  2.37593957E-01  8.15853851E-01  1.00000000E+00  1.00000000E+00  1.00000000E+00
  0.00000000E+00  0.00000000E+00  0.00000000E+00  0.00000000E+00  0.00000000E+00
  0.00000000E+00  0.00000000E+00  0.00000000E+00  0.00000000E+00  0.00000000E+00
  0.00000000E+00  0.00000000E+00  0.00000000E+00
Coordinates of each shell                  R   N=          60
 -1.22113384E+00  0.00000000E+00  0.00000000E+00 -1.22113384E+00  0.00000000E+00
  0.00000000E+00 -1.22113384E+00  0.00000000E+00  0.00000000E+00 -1.22113384E+00
  0.00000000E+00  0.00000000E+00 -1.22113384E+00  0.00000000E+00  0.00000000E+00
 -1.22113384E+00  0.00000000E+00  0.00000000E+00  1.22113384E+00  0.00000000E+00
  0.00000000E+00  1.22113384E+00  0.00000000E+00  0.00000000E+00  1.22113384E+00
  0.00000000E+00  0.00000000E+00  1.22113384E+00  0.00000000E+00  0.00000000E+00
  1.22113384E+00  0.00000000E+00  0.00000000E+00  1.22113384E+00  0.00000000E+00
  0.00000000E+00 -3.26691287E+00 -1.05390260E-09 -4.26923675E-08 -3.26691287E+00
 -1.05390260E-09 -4.26923675E-08 -3.26691287E+00 -1.05390260E-09 -4.26923675E-08
 -3.26691287E+00 -1.05390260E-09 -4.26923675E-08  3.26691266E+00 -7.83178890E-08
 -7.66163236E-08  3.26691266E+00 -7.83178890E-08 -7.66163236E-08  3.26691266E+00
 -7.83178890E-08 -7.66163236E-08  3.26691266E+00 -7.83178890E-08 -7.66163236E-08
Num ILSW                                   I              100
ILSW                                       I   N=         100
           1           0           0           1           2           0
           0           0           0           0        4336          -1
           7           0           0           0           2           0
           0           0           0           0           1           0
           1           1           0           0           0           0
           0           0      100000           0          -1           0
           0           0           0           0           0           0
           0           0           0           1           0           0
           0 -2000000000           1           0           0           0
           0           0           4          52           0           0
           0           0          55           0           0           0
           0           0           0           4           0           1
           0           0           0           0           0           0
           0           0           0           0           0           0
           0           0           0           0           0           0
           0           0           0           0           0           0
           0           0           0           0
Num RLSW                                   I               52
RLSW                                       R   N=          52
  1.00000000E+00  1.00000000E+00  1.00000000E+00  1.00000000E+00  5.40000000E-01
  0.00000000E+00  0.00000000E+00  1.00000000E+00  0.00000000E+00  0.00000000E+00
  0.00000000E+00  0.00000000E+00  1.00000000E+00  0.00000000E+00  0.00000000E+00
  0.00000000E+00  0.00000000E+00  1.00000000E+00  0.00000000E+00  0.00000000E+00
  0.00000000E+00  0.00000000E+00  1.00000000E+00  0.00000000E+00  0.00000000E+00
  0.00000000E+00  0.00000000E+00  1.00000000E+00  0.00000000E+00  0.00000000E+00
  0.00000000E+00  0.00000000E+00  1.00000000E+00  0.00000000E+00  0.00000000E+00
  0.00000000E+00  0.00000000E+00  0.00000000E+00  1.00000000E+00  1.00000000E+00
  0.00000000E+00  1.00000000E+00  0.00000000E+00  0.00000000E+00  0.00000000E+00
  0.00000000E+00  0.00000000E+00  0.00000000E+00  0.00000000E+00  0.00000000E+00
  0.00000000E+00  0.00000000E+00
MxBond                                     I                2
NBond                                      I   N=           4
           2           2           1           1
IBond                                      I   N=           8
           2           3           1           4           1           0
           2           0
RBond                                      R   N=           8
  2.00000000E+00  1.00000000E+00  2.00000000E+00  1.00000000E+00  1.00000000E+00
  0.00000000E+00  1.00000000E+00  0.00000000E+00
Virial Ratio                               R      2.006037730347873E+00
SCF Energy                                 R     -7.689724035392167E+01
Total Energy                               R     -7.689724035392167E+01
S**2                                       R      7.522276928620020E-01
S**2 after annihilation                    R      7.500035562974994E-01
RMS Force                                  R      1.487595553810329E-06
RMS Density                                R      5.862408825302106E-09
Job Status                                 I                1
Nuclear derivative order                   I                1
External E-field                           R   N=          35
  0.00000000E+00  0.00000000E+00  0.00000000E+00  0.00000000E+00  0.00000000E+00
  0.00000000E+00  0.00000000E+00  0.00000000E+00  0.00000000E+00  0.00000000E+00
  0.00000000E+00  0.00000000E+00  0.00000000E+00  0.00000000E+00  0.00000000E+00
  0.00000000E+00  0.00000000E+00  0.00000000E+00  0.00000000E+00  0.00000000E+00
  0.00000000E+00  0.00000000E+00  0.00000000E+00  0.00000000E+00  0.00000000E+00
  0.00000000E+00  0.00000000E+00  0.00000000E+00  0.00000000E+00  0.00000000E+00
  0.00000000E+00  0.00000000E+00  0.00000000E+00  0.00000000E+00  0.00000000E+00
IOpCl                                      I                1
IROHF                                      I                0
Alpha Orbital Energies                     R   N=          56
 -1.09502136E+01 -1.09486003E+01 -1.21087514E+00 -9.74277843E-01 -8.91761499E-01
 -7.15916381E-01 -6.89796269E-01 -2.86426734E-01 -2.66263577E-01 -1.60998175E-01
 -1.44692571E-01 -1.14582166E-01 -1.01598432E-01 -9.91203937E-02 -7.08956311E-02
 -4.88277930E-02 -4.46348470E-02  2.24341190E-02  4.52932986E-02  1.47394921E-01
  1.91021330E-01  2.97300770E-01  3.08851702E-01  3.73348995E-01  3.79421685E-01
  4.76514543E-01  4.82110822E-01  5.51389023E-01  5.97478674E-01  7.46787151E-01
  7.62234984E-01  8.26191891E-01  8.60700339E-01  8.62414469E-01  1.17074598E+00
  1.17700834E+00  1.21341441E+00  1.21462739E+00  1.40513288E+00  1.50412935E+00
  1.51711695E+00  1.73779010E+00  2.08953626E+00  2.11045134E+00  2.27926851E+00
  2.38575273E+00  2.40761518E+00  2.43710116E+00  2.59932299E+00  2.63194970E+00
  2.63273921E+00  2.93298240E+00  2.99986862E+00  3.39552852E+00  2.32138650E+01
  2.44462292E+01
Beta Orbital Energies                      R   N=          56
 -1.09477773E+01 -1.09463924E+01 -1.16392818E+00 -9.58255117E-01 -8.86363857E-01
 -6.65256915E-01 -4.55084976E-01 -2.49935137E-01 -2.20137721E-01 -1.56077273E-01
 -1.50475950E-01 -1.16096703E-01 -1.04400020E-01 -1.01529333E-01 -6.64954650E-02
 -4.36244926E-02 -3.78739829E-02  1.94047566E-02  4.75022762E-02  1.53110590E-01
  1.99671659E-01  2.82992421E-01  3.08077854E-01  3.66368948E-01  3.79603580E-01
  4.54573276E-01  4.82037505E-01  5.65402934E-01  6.26225396E-01  7.80376843E-01
  7.88294430E-01  7.97725590E-01  8.99525872E-01  9.20728937E-01  1.18622033E+00
  1.19665663E+00  1.24276404E+00  1.26238862E+00  1.42022717E+00  1.52645287E+00
  1.53411151E+00  1.76576003E+00  2.11706609E+00  2.12413465E+00  2.29680048E+00
  2.40542180E+00  2.44126073E+00  2.44677677E+00  2.63971470E+00  2.64207709E+00
  2.70841035E+00  2.95180715E+00  3.09444930E+00  3.40894119E+00  2.32232004E+01
  2.44692033E+01
Alpha MO coefficients                      R   N=        3136
  3.98822409E-01  3.28108199E-01  5.81194717E-04  2.41835048E-11  2.91020324E-11
  7.79982803E-03 -2.12749803E-03 -3.20859393E-11 -7.32158665E-11 -2.69382012E-03
  8.07772484E-05  1.58240759E-11  1.74311860E-11 -4.33211121E-04  1.56009434E-03
 -3.34787959E-11 -4.33678555E-12 -5.48376433E-04  3.12945127E-11  3.65916879E-05
  9.43593792E-04 -1.91781717E-11  3.98831267E-01  3.28115467E-01 -5.81189402E-04
  4.34186556E-11  5.63649520E-11  7.80008653E-03  2.12741122E-03 -9.66499811E-11
 -1.12598603E-10 -2.69407555E-03 -8.05223022E-05  1.23223376E-11  2.16994702E-11
 -4.33589200E-04 -1.55999420E-03  4.90083300E-11  2.86875379E-11 -5.48430717E-04
 -7.85607803E-11  3.65927542E-05  9.43687633E-04 -9.15006247E-11  1.15258502E-04
 -3.25412034E-03  2.70781350E-03 -1.84804887E-03 -5.23696832E-12 -3.93770556E-11
  1.15254303E-04 -3.25423660E-03  2.70776143E-03  1.84809953E-03 -6.35253129E-11
 -6.46871221E-11  3.99108777E-01  3.27477995E-01 -2.39095669E-04  1.54187822E-11
  1.74419976E-11  1.16004952E-02  3.97870016E-03  2.30338524E-11 -1.34046612E-11
 -1.14462569E-02 -1.14194513E-02 -6.62555703E-11 -1.28734296E-10 -1.67156792E-02
 -4.43768475E-03 -3.08809549E-11 -5.97949101E-11 -2.43363068E-03  7.94114047E-11
  4.82552914E-05  4.20696665E-03  1.90243555E-11 -3.99099925E-01 -3.27470712E-01
 -2.39108707E-04 -3.80356478E-11 -4.60128654E-11 -1.16003230E-02  3.97874622E-03
  8.68292939E-11  7.12439518E-11  1.14461957E-02 -1.14194536E-02  1.13507856E-10
  1.45589286E-10  1.67156696E-02 -4.43771951E-03  5.93462148E-11  7.35134044E-11
  2.43361878E-03  1.20087311E-10 -4.82544754E-05 -4.20694617E-03  1.10370446E-10
 -1.76842454E-04 -5.14007805E-03 -2.36964536E-03 -2.24158489E-03  1.24578254E-11
 -7.15028425E-11  1.76845505E-04  5.14000744E-03  2.36970600E-03 -2.24154453E-03
  1.55925019E-10  1.44358284E-10 -9.11298158E-02 -1.47866497E-01  7.86526161E-02
 -1.09816866E-10 -3.66494160E-10  4.00140436E-01  9.27171488E-02 -2.00747485E-10
 -6.78673395E-10  1.99165400E-01  1.58702103E-02  7.83240103E-11 -2.19411358E-10
 -5.22283005E-03 -2.05744300E-02  2.46242674E-10  3.19222741E-11 -1.30780479E-02
  1.47816925E-10  5.52793297E-03  2.17119191E-02 -1.39944201E-10 -9.11298237E-02
 -1.47866511E-01 -7.86526065E-02 -1.95656330E-10 -2.23857861E-10  4.00140477E-01
 -9.27171361E-02 -3.44210411E-10 -3.85162061E-10  1.99165423E-01 -1.58702067E-02
 -3.31456232E-10 -2.92732468E-10 -5.22284687E-03  2.05744347E-02 -4.22604100E-10
 -2.84511581E-10 -1.30780495E-02 -4.56974522E-10  5.52793329E-03  2.17119219E-02
 -4.66724738E-10  3.53607150E-02  3.19474899E-02 -1.64395414E-02  1.02284840E-03
 -2.30566384E-11 -1.21963781E-10  3.53607303E-02  3.19475019E-02 -1.64395449E-02
 -1.02284942E-03 -1.23402209E-10 -1.37397890E-10 -6.66691668E-02 -1.10637303E-01
 -9.62860736E-02  5.95443312E-10 -9.56766857E-10  3.14523588E-01 -1.28713944E-01
  1.06614479E-09 -1.09045797E-09  2.90506686E-01 -1.95871974E-02  4.19925286E-10
 -4.85864275E-10 -3.07730959E-01 -8.28047655E-02 -2.74174086E-10 -4.36384333E-10
 -6.57888698E-03  5.90389713E-10  3.97506751E-03  1.07190779E-02  1.69125147E-10
  6.66691656E-02  1.10637300E-01 -9.62862075E-02  2.42516220E-09  2.03710408E-09
 -3.14523581E-01 -1.28714111E-01  3.23886226E-09  2.54197257E-09 -2.90506700E-01
 -1.95872495E-02  1.19635210E-09  1.06161176E-09  3.07730955E-01 -8.28047641E-02
  3.77950796E-10  4.84434001E-10  6.57888354E-03  6.32292869E-10 -3.97506696E-03
 -1.07190720E-02  4.56319276E-10  1.23795184E-01  1.60654344E-01 -1.42230264E-03
  2.05450530E-02  7.45907613E-11  5.19630127E-10 -1.23795275E-01 -1.60654458E-01
  1.42230166E-03  2.05450714E-02 -8.34795314E-10 -8.57850569E-10  1.02327869E-02
  1.64081894E-02  1.90445551E-01  9.77568763E-10  3.01865239E-09 -4.59080437E-02
  2.49757599E-01  1.54917327E-09  4.26311444E-09 -9.55015266E-02  1.03139039E-01
  5.64162890E-10  1.96369665E-09 -8.68462769E-03  8.69392270E-03 -4.06825549E-10
 -1.12541018E-10 -4.05154138E-03  2.09469252E-10 -3.00663046E-04  7.06859799E-03
  4.45350655E-10  1.02327449E-02  1.64081189E-02 -1.90445499E-01  3.80438860E-09
  4.23002909E-09 -4.59078376E-02 -2.49757513E-01  5.04693925E-09  5.78494163E-09
 -9.55013208E-02 -1.03139011E-01  2.62406716E-09  2.76817006E-09 -8.68489321E-03
 -8.69385032E-03  5.11068354E-10  3.02719987E-10 -4.05154398E-03 -1.86719227E-10
 -3.00660313E-04  7.06860203E-03  5.65927366E-11 -1.32726372E-01 -1.87371016E-01
  4.93222427E-03 -2.76862173E-02  4.88790983E-11 -6.42552310E-10 -1.32726306E-01
 -1.87370917E-01  4.93222515E-03  2.76862066E-02 -1.25332737E-09 -1.17451911E-09
  3.36021141E-10  5.61975221E-10 -4.54385242E-09  1.46515933E-01  1.34588357E-01
 -1.55039449E-09 -6.41408128E-09  2.40323564E-01  2.20759173E-01 -1.04254196E-08
 -9.18736304E-09  1.50046650E-01  1.37831895E-01 -3.70907184E-09 -7.12788088E-10
 -5.15307092E-03 -4.73391563E-03  4.05975076E-11  2.25882566E-02  2.62637644E-11
 -2.82482228E-10  2.45900909E-02 -1.60362880E-09 -2.76489937E-09  6.11795152E-09
  1.46515941E-01  1.34588363E-01  8.52152708E-09  9.62127951E-09  2.40323577E-01
  2.20759184E-01  1.76393036E-08 -5.12837518E-09  1.50046656E-01  1.37831900E-01
  2.66370123E-09 -2.42600174E-09 -5.15307159E-03 -4.73391625E-03  3.13709016E-10
 -2.25882558E-02  3.22431141E-10 -5.09581441E-10 -2.45900900E-02  1.07943869E-09
  1.72108921E-09 -9.65293620E-10  2.29838276E-11  9.18447903E-03  8.43678310E-03
 -1.05875540E-09  2.01119759E-09  5.16876918E-09  8.29549288E-10  9.18448110E-03
  8.43678500E-03 -5.07853795E-10 -8.62094008E-10 -1.63302671E-09 -1.34171923E-01
  1.46062667E-01  2.60840643E-09 -2.65055384E-09 -2.19706840E-01  2.39177640E-01
  4.42278007E-09  3.55839970E-10 -1.37980086E-01  1.50209005E-01 -1.11224855E-09
 -8.57354345E-12  2.35231260E-03 -2.56178043E-03  5.50350802E-11  2.36256881E-02
  1.42746246E-10  1.70192120E-11 -2.17023630E-02  1.65662376E-10  2.81607173E-10
  9.39532713E-10 -1.34171929E-01  1.46062675E-01 -8.33917693E-10  1.21168671E-09
 -2.19706851E-01  2.39177653E-01 -2.19888951E-09  1.68597662E-09 -1.37980092E-01
  1.50209011E-01  9.18823462E-10 -1.96440910E-10  2.35231322E-03 -2.56178109E-03
  1.64384517E-10 -2.36256873E-02 -4.73665769E-11 -6.79553891E-13  2.17023623E-02
 -2.33838039E-10  3.32382375E-10  1.02258279E-09 -3.10963278E-10 -9.36505876E-03
  1.01950044E-02  2.78854504E-10  4.79470040E-10 -2.33378185E-10 -5.58595231E-11
 -9.36506082E-03  1.01950067E-02 -2.99395155E-09 -5.11338824E-09  2.43511043E-09
  1.55419390E-01  1.42766904E-01  1.66403163E-08  1.53858350E-09  2.56396499E-01
  2.35523615E-01  1.10676101E-10 -2.42915685E-08  3.61206533E-01  3.31801166E-01
 -4.30687010E-09 -2.96646741E-09  1.29835303E-01  1.19265871E-01  9.01855892E-10
 -2.29146732E-02  2.26756893E-10 -1.95154791E-09 -2.49454480E-02  3.83654654E-09
  6.58886127E-09 -5.04495062E-09 -1.55419388E-01 -1.42766902E-01 -2.05157709E-08
 -9.71258329E-09 -2.56396496E-01 -2.35523612E-01 -2.10011981E-08 -3.73903886E-08
 -3.61206522E-01 -3.31801156E-01 -1.91083050E-09 -3.53927544E-09 -1.29835299E-01
 -1.19265868E-01 -1.91234736E-09 -2.29146774E-02 -5.19508153E-10  3.35760895E-09
 -2.49454525E-02 -4.70400665E-09 -1.55711880E-08 -2.05837002E-08 -2.99212697E-10
  1.94038101E-02  1.78241733E-02  9.97918444E-09  2.73596697E-08  3.33745132E-08
 -6.08969568E-10 -1.94038111E-02 -1.78241742E-02 -1.07052419E-09 -1.82805466E-09
 -1.60215961E-09 -1.39689014E-01  1.52068698E-01  5.59290673E-09 -2.81429885E-09
 -2.26444681E-01  2.46512946E-01  6.11233043E-09 -1.12368173E-08 -3.39355949E-01
  3.69430714E-01  3.87165635E-09 -2.80080675E-10 -1.50146812E-01  1.63453662E-01
  4.46425638E-10 -2.65496094E-02  2.86930533E-10 -8.42638368E-10  2.43882442E-02
  7.56135111E-10  1.30494489E-09  9.41907616E-10  1.39689013E-01 -1.52068696E-01
 -4.44368043E-09  9.35597407E-10  2.26444678E-01 -2.46512943E-01  1.40403658E-09
 -6.57595787E-09  3.39355939E-01 -3.69430703E-01 -1.16545844E-09  2.97805938E-11
  1.50146808E-01 -1.63453657E-01 -2.55462339E-10 -2.65496138E-02 -3.54234786E-11
  4.02060015E-10  2.43882482E-02 -2.75285131E-09 -7.76422743E-09 -1.01502505E-08
 -1.55025429E-10 -1.88474653E-02  2.05177896E-02  9.68307821E-10  3.73083382E-09
  5.40184225E-09 -5.02309042E-11  1.88474661E-02 -2.05177906E-02 -5.18597712E-02
 -8.95048135E-02 -8.25176510E-03 -3.36311633E-09 -6.88995285E-09  2.77970796E-01
 -2.32290325E-02 -5.72141314E-09 -1.15666564E-08  9.42591514E-01  3.68257645E-02
 -1.16410571E-08 -2.40749502E-08  7.34436607E+00  2.24749948E+00 -6.80646328E-09
 -7.03430573E-09  1.94506160E-02  1.19098179E-09  4.70467365E-03 -3.44893980E-02
  1.31368845E-09  5.18597611E-02  8.95047968E-02 -8.25169708E-03  6.28940362E-09
  8.15929329E-09 -2.77970761E-01 -2.32289365E-02  1.06597180E-08  1.36912323E-08
 -9.42591290E-01  3.68258947E-02  2.20907256E-08  2.88033278E-08 -7.34436618E+00
  2.24749912E+00  2.17060706E-10  4.53523304E-09 -1.94506081E-02  3.17102873E-10
 -4.70467195E-03  3.44893839E-02 -4.91874310E-10 -7.33169570E-02 -2.48036202E-01
 -4.38928445E-01  2.00956539E-02 -7.90568435E-10 -1.05124004E-09  7.33169182E-02
  2.48036077E-01  4.38928233E-01  2.00956390E-02  4.81957499E-10  9.35262690E-10
  2.32866756E-02  4.06227127E-02  2.99638694E-02  4.70883086E-10  6.45599847E-10
 -1.48939268E-01  6.05541975E-02  6.21554027E-10  1.37140607E-09 -2.94760446E-01
  5.71936867E-02  2.64277909E-09  1.23843331E-09  9.50767591E-01 -5.36711407E-01
  9.99736512E-09 -3.59361892E-09  1.09031653E-02 -2.68169334E-10  9.85909476E-04
 -1.90524812E-02  5.35306590E-11  2.32866845E-02  4.06227285E-02 -2.99638761E-02
  5.18210498E-11  4.68620436E-10 -1.48939326E-01 -6.05542156E-02  1.19297258E-09
  1.73528586E-09 -2.94760658E-01 -5.71935972E-02 -3.11166622E-09 -1.19222731E-09
  9.50766552E-01  5.36711840E-01 -2.08068629E-08 -1.52513684E-08  1.09031652E-02
  5.65644796E-10  9.85909032E-04 -1.90524808E-02  6.33212317E-10 -2.64800246E-02
  2.99209950E-02 -2.94755916E-01 -7.87787232E-03  8.35206103E-11 -2.87323084E-10
 -2.64800209E-02  2.99210231E-02 -2.94755934E-01  7.87787376E-03 -6.44839244E-10
 -5.81617615E-10  6.64822681E-04  4.78272261E-04  1.00063780E-01 -2.26103942E-10
  2.58066056E-09  3.23418640E-02  1.41755437E-01 -1.23982288E-09  2.83920214E-09
 -2.69227490E-01  2.41695819E-01 -4.42444689E-09  7.68241407E-09 -2.44122166E-01
 -8.61608926E-01 -2.04122550E-08 -2.25944469E-08 -2.38208444E-02  2.05812482E-09
 -3.73782238E-03  4.18944637E-02  1.51353708E-09  6.64834270E-04  4.78292570E-04
 -1.00063791E-01  6.17782291E-09  5.41901825E-09  3.23417988E-02 -1.41755455E-01
  8.47572239E-09  7.13793186E-09 -2.69227837E-01 -2.41695747E-01  2.47510039E-08
  2.02231582E-08 -2.44127104E-01  8.61610648E-01 -1.35901595E-08 -2.03738396E-08
 -2.38208452E-02 -2.20713350E-09 -3.73782299E-03  4.18944652E-02 -1.62185054E-09
  5.83952744E-02  1.99135435E-01  6.30004308E-01 -2.56296898E-02 -7.61752011E-10
 -7.85651971E-10  5.83952606E-02  1.99135448E-01  6.30004255E-01  2.56297004E-02
 -1.59307342E-10 -5.14513518E-10 -6.54297249E-11 -1.00838403E-10  4.74144698E-09
 -5.09864513E-02 -4.51791768E-02  6.89989421E-10  7.11241369E-09 -6.03577032E-02
 -5.33492204E-02  2.76969831E-08  3.62961029E-08 -1.42306285E-01 -1.26040665E-01
  2.25623030E-07  1.99469170E-09  4.58080545E-01  4.05763730E-01 -1.21837834E-09
 -1.26541015E-02 -1.62430894E-10  2.17907649E-09 -1.42637079E-02  2.86552864E-10
  4.96146840E-10 -5.00496240E-09 -5.09864514E-02 -4.51791769E-02 -4.91312126E-10
 -6.87748229E-09 -6.03577037E-02 -5.33492209E-02 -3.38685211E-08  2.32668901E-08
 -1.42306277E-01 -1.26040658E-01 -2.18723743E-07  1.41932751E-07  4.58080581E-01
  4.05763761E-01 -1.12277229E-09  1.26541016E-02 -1.81109212E-10  1.95126177E-09
  1.42637079E-02  2.35398635E-09  1.08871086E-08  3.38547828E-08 -1.03231141E-09
  6.02947210E-03  5.35356765E-03  2.64594655E-09 -3.53706614E-10  9.56273710E-11
  1.31557667E-09  6.02947110E-03  5.35356676E-03  1.22981991E-10  2.08466689E-10
  9.91937468E-10  4.49729387E-02 -5.07913919E-02 -4.81247757E-10  1.42343019E-09
  5.83366878E-02 -6.57303841E-02 -1.02918750E-08 -9.14765293E-09  1.23740884E-01
 -1.39680973E-01 -8.08903713E-08 -4.26999904E-08 -4.04508148E-01  4.56669799E-01
 -2.08166870E-10 -1.38413042E-02 -5.50836034E-11  3.64818158E-10  1.22405418E-02
 -1.36750777E-11 -1.13400228E-11 -8.77882874E-10  4.49729387E-02 -5.07913919E-02
 -1.09215586E-10 -1.31026127E-09  5.83366885E-02 -6.57303850E-02  1.05325550E-08
 -1.06728498E-08  1.23740874E-01 -1.39680963E-01  8.69703589E-08 -1.03807571E-08
 -4.04508180E-01  4.56669835E-01 -1.98250864E-10  1.38413043E-02 -1.16081950E-11
  3.73224419E-10 -1.22405418E-02  4.65618979E-10 -1.29482057E-09 -3.72461992E-09
 -3.16120200E-10 -4.99056871E-03  5.64848196E-03  3.29356998E-10  2.35832903E-09
  6.86056291E-09  1.71496774E-10 -4.99056787E-03  5.64848102E-03  3.18668853E-02
  5.43158174E-02 -4.48744419E-02  2.89770096E-09  4.42642688E-09 -1.50237009E-01
 -6.66512296E-02  4.18098393E-09  6.41986408E-09 -6.47613201E-01  1.66069464E-01
  1.45254628E-08  2.64470902E-08 -5.86802143E-01  8.15818688E-01  2.91837481E-08
  6.53038817E-08 -3.16189844E-02 -4.24679447E-10 -5.03786445E-03  5.56222862E-02
 -1.13690544E-09 -3.18668827E-02 -5.43158130E-02 -4.48744239E-02 -3.63989195E-09
 -4.76859428E-09  1.50236990E-01 -6.66512005E-02 -5.23809493E-09 -6.86249561E-09
  6.47613315E-01  1.66069572E-01 -2.53303097E-08 -3.14585927E-08  5.86802023E-01
  8.15817995E-01 -5.32270676E-08 -7.57574260E-08  3.16189910E-02  7.85821720E-10
  5.03786534E-03 -5.56222979E-02  1.43750177E-09  1.06424464E-01  2.81836873E-01
  1.25719332E+00 -2.80702691E-03  8.63435610E-10  1.53191125E-09 -1.06424460E-01
 -2.81836922E-01 -1.25719340E+00 -2.80703642E-03 -1.27858647E-09 -1.72930510E-09
 -1.06709333E-10 -1.84431999E-10 -1.44538214E-10 -6.40778853E-02 -5.88677384E-02
  4.50201633E-10 -7.92068867E-10 -8.77660109E-02 -8.06299281E-02 -7.16095058E-09
 -1.56586349E-08 -2.58696715E-01 -2.37662588E-01 -3.65377616E-07 -9.84429292E-08
  1.64230700E+00  1.50876453E+00  2.86472352E-10  1.88177848E-03  6.31234469E-11