 Entering Gaussian System, Link 0=g16
 Initial command:
 /home/szhao/Apps/g16/l1.exe "/home/szhao/tmp/Gau-70680.inp" -scrdir="/home/szhao/tmp/"
 Default is to use a total of  16 processors:
                               16 via shared-memory
                                1 via Linda
 Entering Link 1 = /home/szhao/Apps/g16/l1.exe PID=     70682.
  
 Copyright (c) 1988,1990,1992,1993,1995,1998,2003,2009,2016,
            Gaussian, Inc.  All Rights Reserved.
  
 This is part of the Gaussian(R) 16 program.  It is based on
 the Gaussian(R) 09 system (copyright 2009, Gaussian, Inc.),
 the Gaussian(R) 03 system (copyright 2003, Gaussian, Inc.),
 the Gaussian(R) 98 system (copyright 1998, Gaussian, Inc.),
 the Gaussian(R) 94 system (copyright 1995, Gaussian, Inc.),
 the Gaussian 92(TM) system (copyright 1992, Gaussian, Inc.),
 the Gaussian 90(TM) system (copyright 1990, Gaussian, Inc.),
 the Gaussian 88(TM) system (copyright 1988, Gaussian, Inc.),
 the Gaussian 86(TM) system (copyright 1986, Carnegie Mellon
 University), and the Gaussian 82(TM) system (copyright 1983,
 Carnegie Mellon University). Gaussian is a federally registered
 trademark of Gaussian, Inc.
  
 This software contains proprietary and confidential information,
 including trade secrets, belonging to Gaussian, Inc.
  
 This software is provided under written license and may be
 used, copied, transmitted, or stored only in accord with that
 written license.
  
 The following legend is applicable only to US Government
 contracts under FAR:
  
                    RESTRICTED RIGHTS LEGEND
  
 Use, reproduction and disclosure by the US Government is
 subject to restrictions as set forth in subparagraphs (a)
 and (c) of the Commercial Computer Software - Restricted
 Rights clause in FAR 52.227-19.
  
 Gaussian, Inc.
 340 Quinnipiac St., Bldg. 40, Wallingford CT 06492
  
  
 ---------------------------------------------------------------
 Warning -- This program may not be used in any manner that
 competes with the business of Gaussian, Inc. or will provide
 assistance to any competitor of Gaussian, Inc.  The licensee
 of this program is prohibited from giving any competitor of
 Gaussian, Inc. access to this program.  By using this program,
 the user acknowledges that Gaussian, Inc. is engaged in the
 business of creating and licensing software in the field of
 computational chemistry and represents and warrants to the
 licensee that it is not a competitor of Gaussian, Inc. and that
 it will not use this program in any manner prohibited above.
 ---------------------------------------------------------------
  

 Cite this work as:
 Gaussian 16, Revision A.03,
 M. J. Frisch, G. W. Trucks, H. B. Schlegel, G. E. Scuseria, 
 M. A. Robb, J. R. Cheeseman, G. Scalmani, V. Barone, 
 G. A. Petersson, H. Nakatsuji, X. Li, M. Caricato, A. V. Marenich, 
 J. Bloino, B. G. Janesko, R. Gomperts, B. Mennucci, H. P. Hratchian, 
 J. V. Ortiz, A. F. Izmaylov, J. L. Sonnenberg, D. Williams-Young, 
 F. Ding, F. Lipparini, F. Egidi, J. Goings, B. Peng, A. Petrone, 
 T. Henderson, D. Ranasinghe, V. G. Zakrzewski, J. Gao, N. Rega, 
 G. Zheng, W. Liang, M. Hada, M. Ehara, K. Toyota, R. Fukuda, 
 J. Hasegawa, M. Ishida, T. Nakajima, Y. Honda, O. Kitao, H. Nakai, 
 T. Vreven, K. Throssell, J. A. Montgomery, Jr., J. E. Peralta, 
 F. Ogliaro, M. J. Bearpark, J. J. Heyd, E. N. Brothers, K. N. Kudin, 
 V. N. Staroverov, T. A. Keith, R. Kobayashi, J. Normand, 
 K. Raghavachari, A. P. Rendell, J. C. Burant, S. S. Iyengar, 
 J. Tomasi, M. Cossi, J. M. Millam, M. Klene, C. Adamo, R. Cammi, 
 J. W. Ochterski, R. L. Martin, K. Morokuma, O. Farkas, 
 J. B. Foresman, and D. J. Fox, Gaussian, Inc., Wallingford CT, 2016.
 
 ******************************************
 Gaussian 16:  ES64L-G16RevA.03 25-Dec-2016
                19-Nov-2024 
 ******************************************
 %chk=opt.chk
 %mem=16GB
 %nprocshared=24
 Will use up to   24 processors via shared memory.
 ---------------------------------------
 #p UM062X/6-311+G** force int=superfine
 ---------------------------------------
 1/10=7,30=1,38=1/1,3;
 2/12=2,17=6,18=5,40=1/2;
 3/5=4,6=6,7=111,11=2,25=1,30=1,71=1,74=-55,75=-7,116=2/1,2,3;
 4//1;
 5/5=2,38=5/2;
 6/7=2,8=2,9=2,10=2,28=1/1;
 7/29=1/1,2,3,16;
 1/10=7,30=1/3;
 99//99;
 Leave Link    1 at Tue Nov 19 13:26:51 2024, MaxMem=  2147483648 cpu:               2.1 elap:               0.2
 (Enter /home/szhao/Apps/g16/l101.exe)
 -------------------
 Title Card Required
 -------------------
 Symbolic Z-matrix:
 Charge =  1 Multiplicity = 2
 C                    -0.49707   0.        0. 
 C                     0.49707   0.        0. 
 H                    -1.57041   0.        0. 
 H                     1.5704    0.        0. 
 
 ITRead=  0  0  0  0
 MicOpt= -1 -1 -1 -1
 NAtoms=      4 NQM=        4 NQMF=       0 NMMI=      0 NMMIF=      0
                NMic=       0 NMicF=      0.
                    Isotopes and Nuclear Properties:
 (Nuclear quadrupole moments (NQMom) in fm**2, nuclear magnetic moments (NMagM)
  in nuclear magnetons)

  Atom         1           2           3           4
 IAtWgt=          12          12           1           1
 AtmWgt=  12.0000000  12.0000000   1.0078250   1.0078250
 NucSpn=           0           0           1           1
 AtZEff=  -0.0000000  -0.0000000  -0.0000000  -0.0000000
 NQMom=    0.0000000   0.0000000   0.0000000   0.0000000
 NMagM=    0.0000000   0.0000000   2.7928460   2.7928460
 AtZNuc=   6.0000000   6.0000000   1.0000000   1.0000000
 Leave Link  101 at Tue Nov 19 13:26:51 2024, MaxMem=  2147483648 cpu:               6.1 elap:               0.3
 (Enter /home/szhao/Apps/g16/l103.exe)

 GradGradGradGradGradGradGradGradGradGradGradGradGradGradGradGradGradGrad
 Berny optimization.
 Initialization pass.
 Trust Radius=3.00D-01 FncErr=1.00D-07 GrdErr=1.00D-07 EigMax=2.50D+02 EigMin=1.00D-04
 Number of steps in this run=      2 maximum allowed number of steps=      2.
 GradGradGradGradGradGradGradGradGradGradGradGradGradGradGradGradGradGrad

 Leave Link  103 at Tue Nov 19 13:26:51 2024, MaxMem=  2147483648 cpu:               1.0 elap:               0.1
 (Enter /home/szhao/Apps/g16/l202.exe)
                          Input orientation:                          
 ---------------------------------------------------------------------
 Center     Atomic      Atomic             Coordinates (Angstroms)
 Number     Number       Type             X           Y           Z
 ---------------------------------------------------------------------
      1          6           0       -0.497074    0.000000    0.000000
      2          6           0        0.497074    0.000000    0.000000
      3          1           0       -1.570405    0.000000    0.000000
      4          1           0        1.570403    0.000000    0.000000
 ---------------------------------------------------------------------
                    Distance matrix (angstroms):
                    1          2          3          4
     1  C    0.000000
     2  C    0.994148   0.000000
     3  H    1.073331   2.067479   0.000000
     4  H    2.067477   1.073329   3.140808   0.000000
 Stoichiometry    C2H2(1+,2)
 Framework group  C*V[C*(HCCH)]
 Deg. of freedom     3
 Full point group                 C*V     NOp   4
 Largest Abelian subgroup         C2V     NOp   4
 Largest concise Abelian subgroup C1      NOp   1
                         Standard orientation:                         
 ---------------------------------------------------------------------
 Center     Atomic      Atomic             Coordinates (Angstroms)
 Number     Number       Type             X           Y           Z
 ---------------------------------------------------------------------
      1          6           0        0.000000    0.000000    0.497074
      2          6           0        0.000000    0.000000   -0.497074
      3          1           0        0.000000    0.000000    1.570405
      4          1           0        0.000000    0.000000   -1.570403
 ---------------------------------------------------------------------
 Rotational constants (GHZ):           0.0000000          46.3611564          46.3611564
 Leave Link  202 at Tue Nov 19 13:26:52 2024, MaxMem=  2147483648 cpu:               2.1 elap:               0.1
 (Enter /home/szhao/Apps/g16/l301.exe)
 Standard basis: 6-311+G(d,p) (5D, 7F)
 Ernie: Thresh=  0.10000D-02 Tol=  0.10000D-05 Strict=F.
 There are    32 symmetry adapted cartesian basis functions of A1  symmetry.
 There are     2 symmetry adapted cartesian basis functions of A2  symmetry.
 There are    12 symmetry adapted cartesian basis functions of B1  symmetry.
 There are    12 symmetry adapted cartesian basis functions of B2  symmetry.
 There are    30 symmetry adapted basis functions of A1  symmetry.
 There are     2 symmetry adapted basis functions of A2  symmetry.
 There are    12 symmetry adapted basis functions of B1  symmetry.
 There are    12 symmetry adapted basis functions of B2  symmetry.
    56 basis functions,    88 primitive gaussians,    58 cartesian basis functions
     7 alpha electrons        6 beta electrons
       nuclear repulsion energy        28.3187244827 Hartrees.
 IExCor= 4336 DFT=T Ex+Corr=M062X ExCW=0 ScaHFX=  0.540000
 ScaDFX=  1.000000  1.000000  1.000000  1.000000 ScalE2=  1.000000  1.000000
 IRadAn=      7 IRanWt=     -1 IRanGd=            0 ICorTp=0 IEmpDi=  4
 NAtoms=    4 NActive=    4 NUniq=    4 SFac= 1.00D+00 NAtFMM=   60 NAOKFM=F Big=F
 Integral buffers will be    131072 words long.
 Raffenetti 2 integral format.
 Two-electron integral symmetry is turned on.
 Leave Link  301 at Tue Nov 19 13:26:52 2024, MaxMem=  2147483648 cpu:               1.5 elap:               0.1
 (Enter /home/szhao/Apps/g16/l302.exe)
 NPDir=0 NMtPBC=     1 NCelOv=     1 NCel=       1 NClECP=     1 NCelD=      1
         NCelK=      1 NCelE2=     1 NClLst=     1 CellRange=     0.0.
 One-electron integrals computed using PRISM.
 One-electron integral symmetry used in STVInt
 NBasis=    56 RedAO= T EigKep=  3.32D-05  NBF=    30     2    12    12
 NBsUse=    56 1.00D-06 EigRej= -1.00D+00 NBFU=    30     2    12    12
 Precomputing XC quadrature grid using
 IXCGrd= 4 IRadAn=           7 IRanWt=          -1 IRanGd=           0 AccXCQ= 0.00D+00.
 Generated NRdTot=       0 NPtTot=           0 NUsed=           0 NTot=          32
 NSgBfM=    58    58    58    58    58 MxSgAt=     4 MxSgA2=     4.
 Leave Link  302 at Tue Nov 19 13:26:52 2024, MaxMem=  2147483648 cpu:               8.8 elap:               0.6
 (Enter /home/szhao/Apps/g16/l303.exe)
 DipDrv:  MaxL=1.
 Leave Link  303 at Tue Nov 19 13:26:53 2024, MaxMem=  2147483648 cpu:               5.8 elap:               0.4
 (Enter /home/szhao/Apps/g16/l401.exe)
 ExpMin= 4.38D-02 ExpMax= 4.56D+03 ExpMxC= 6.82D+02 IAcc=3 IRadAn=         7 AccDes= 0.00D+00
 Harris functional with IExCor= 1009 and IRadAn=       7 diagonalized for initial guess.
 HarFok:  IExCor= 1009 AccDes= 0.00D+00 IRadAn=         7 IDoV= 1 UseB2=F ITyADJ=14
 ICtDFT=  3500011 ScaDFX=  1.000000  1.000000  1.000000  1.000000
 FoFCou: FMM=F IPFlag=           0 FMFlag=      100000 FMFlg1=           0
         NFxFlg=           0 DoJE=T BraDBF=F KetDBF=T FulRan=T
         wScrn=  0.000000 ICntrl=       500 IOpCl=  0 I1Cent=   200000004 NGrid=           0
         NMat0=    1 NMatS0=      1 NMatT0=    0 NMatD0=    1 NMtDS0=    0 NMtDT0=    0
 Petite list used in FoFCou.
 Harris En= -76.7878560092767    
 JPrj=0 DoOrth=F DoCkMO=F.
 Initial guess orbital symmetries:
 Alpha Orbitals:
       Occupied  (SG) (SG) (SG) (SG) (SG) (PI) (PI)
       Virtual   (PI) (PI) (SG) (SG) (SG) (PI) (PI) (PI) (PI) (SG)
                 (SG) (SG) (SG) (SG) (PI) (PI) (PI) (PI) (SG) (SG)
                 (SG) (DLTA) (DLTA) (PI) (PI) (SG) (SG) (PI) (PI)
                 (DLTA) (DLTA) (SG) (PI) (PI) (SG) (SG) (PI) (PI)
                 (PI) (PI) (SG) (SG) (PI) (PI) (SG) (SG) (SG) (SG)
                 (SG)
 Beta  Orbitals:
       Occupied  (SG) (SG) (SG) (SG) (SG) (PI)
       Virtual   (PI) (PI) (PI) (SG) (SG) (SG) (PI) (PI) (PI) (PI)
                 (SG) (SG) (SG) (SG) (SG) (PI) (PI) (PI) (PI) (SG)
                 (SG) (SG) (DLTA) (DLTA) (PI) (PI) (SG) (SG) (PI)
                 (PI) (DLTA) (DLTA) (SG) (PI) (PI) (SG) (SG) (PI)
                 (PI) (PI) (PI) (SG) (SG) (PI) (PI) (SG) (SG) (SG)
                 (SG) (SG)
 Initial guess <Sx>= 0.0000 <Sy>= 0.0000 <Sz>= 0.5000 <S**2>= 0.7500 S= 0.5000
 Leave Link  401 at Tue Nov 19 13:26:54 2024, MaxMem=  2147483648 cpu:              22.2 elap:               1.3
 (Enter /home/szhao/Apps/g16/l502.exe)
 Keep R1 and R2 ints in memory in symmetry-blocked form, NReq=22505576.
 FoFCou: FMM=F IPFlag=           0 FMFlag=           0 FMFlg1=           0
         NFxFlg=           0 DoJE=F BraDBF=F KetDBF=F FulRan=T
         wScrn=  0.000000 ICntrl=       600 IOpCl=  0 I1Cent=           0 NGrid=           0
         NMat0=    1 NMatS0=   1596 NMatT0=    0 NMatD0=    1 NMtDS0=    0 NMtDT0=    0
 Petite list used in FoFCou.
 UHF open shell SCF:
 Using DIIS extrapolation, IDIIS=  1040.
 NGot=  2147483648 LenX=  2146741758 LenY=  2146737953
 Requested convergence on RMS density matrix=1.00D-08 within 128 cycles.
 Requested convergence on MAX density matrix=1.00D-06.
 Requested convergence on             energy=1.00D-06.
 No special actions if energy rises.

 Cycle   1  Pass 1  IDiag  1:
 E= -76.6854219848227    
 DIIS: error= 4.68D-02 at cycle   1 NSaved=   1.
 NSaved= 1 IEnMin= 1 EnMin= -76.6854219848227     IErMin= 1 ErrMin= 4.68D-02
 ErrMax= 4.68D-02  0.00D+00 EMaxC= 1.00D-01 BMatC= 2.46D-01 BMatP= 2.46D-01
 IDIUse=3 WtCom= 5.32D-01 WtEn= 4.68D-01
 Coeff-Com:  0.100D+01
 Coeff-En:   0.100D+01
 Coeff:      0.100D+01
 Gap=     0.559 Goal=   None    Shift=    0.000
 Gap=     0.257 Goal=   None    Shift=    0.000
 GapD=    0.257 DampG=1.000 DampE=0.500 DampFc=0.5000 IDamp=-1.
 Damping current iteration by 5.00D-01
 RMSDP=6.15D-03 MaxDP=8.50D-02              OVMax= 8.94D-02

 Cycle   2  Pass 1  IDiag  1:
 E= -76.7078812709312     Delta-E=       -0.022459286108 Rises=F Damp=T
 DIIS: error= 1.31D-02 at cycle   2 NSaved=   2.
 NSaved= 2 IEnMin= 2 EnMin= -76.7078812709312     IErMin= 2 ErrMin= 1.31D-02
 ErrMax= 1.31D-02  0.00D+00 EMaxC= 1.00D-01 BMatC= 2.98D-02 BMatP= 2.46D-01
 IDIUse=3 WtCom= 8.69D-01 WtEn= 1.31D-01
 Coeff-Com: -0.455D+00 0.145D+01
 Coeff-En:   0.000D+00 0.100D+01
 Coeff:     -0.395D+00 0.139D+01
 Gap=     0.591 Goal=   None    Shift=    0.000
 Gap=     0.243 Goal=   None    Shift=    0.000
 RMSDP=3.20D-03 MaxDP=5.23D-02 DE=-2.25D-02 OVMax= 3.28D-02

 Cycle   3  Pass 1  IDiag  1:
 E= -76.7264619348984     Delta-E=       -0.018580663967 Rises=F Damp=F
 DIIS: error= 2.04D-03 at cycle   3 NSaved=   3.
 NSaved= 3 IEnMin= 3 EnMin= -76.7264619348984     IErMin= 3 ErrMin= 2.04D-03
 ErrMax= 2.04D-03  0.00D+00 EMaxC= 1.00D-01 BMatC= 1.81D-04 BMatP= 2.98D-02
 IDIUse=3 WtCom= 9.80D-01 WtEn= 2.04D-02
 Coeff-Com: -0.476D-01 0.867D-01 0.961D+00
 Coeff-En:   0.000D+00 0.000D+00 0.100D+01
 Coeff:     -0.467D-01 0.849D-01 0.962D+00
 Gap=     0.585 Goal=   None    Shift=    0.000
 Gap=     0.241 Goal=   None    Shift=    0.000
 RMSDP=2.32D-04 MaxDP=4.20D-03 DE=-1.86D-02 OVMax= 3.84D-03

 Cycle   4  Pass 1  IDiag  1:
 E= -76.7265166565205     Delta-E=       -0.000054721622 Rises=F Damp=F
 DIIS: error= 3.14D-04 at cycle   4 NSaved=   4.
 NSaved= 4 IEnMin= 4 EnMin= -76.7265166565205     IErMin= 4 ErrMin= 3.14D-04
 ErrMax= 3.14D-04  0.00D+00 EMaxC= 1.00D-01 BMatC= 6.44D-06 BMatP= 1.81D-04
 IDIUse=3 WtCom= 9.97D-01 WtEn= 3.14D-03
 Coeff-Com:  0.184D-01-0.373D-01-0.251D+00 0.127D+01
 Coeff-En:   0.000D+00 0.000D+00 0.000D+00 0.100D+01
 Coeff:      0.184D-01-0.372D-01-0.250D+00 0.127D+01
 Gap=     0.585 Goal=   None    Shift=    0.000
 Gap=     0.241 Goal=   None    Shift=    0.000
 RMSDP=6.20D-05 MaxDP=8.39D-04 DE=-5.47D-05 OVMax= 9.89D-04

 Cycle   5  Pass 1  IDiag  1:
 E= -76.7265205737683     Delta-E=       -0.000003917248 Rises=F Damp=F
 DIIS: error= 8.57D-05 at cycle   5 NSaved=   5.
 NSaved= 5 IEnMin= 5 EnMin= -76.7265205737683     IErMin= 5 ErrMin= 8.57D-05
 ErrMax= 8.57D-05  0.00D+00 EMaxC= 1.00D-01 BMatC= 4.34D-07 BMatP= 6.44D-06
 IDIUse=1 WtCom= 1.00D+00 WtEn= 0.00D+00
 Coeff-Com: -0.462D-02 0.953D-02 0.440D-01-0.461D+00 0.141D+01
 Coeff:     -0.462D-02 0.953D-02 0.440D-01-0.461D+00 0.141D+01
 Gap=     0.585 Goal=   None    Shift=    0.000
 Gap=     0.241 Goal=   None    Shift=    0.000
 RMSDP=2.27D-05 MaxDP=3.80D-04 DE=-3.92D-06 OVMax= 3.44D-04

 Cycle   6  Pass 1  IDiag  1:
 E= -76.7265208615700     Delta-E=       -0.000000287802 Rises=F Damp=F
 DIIS: error= 9.22D-06 at cycle   6 NSaved=   6.
 NSaved= 6 IEnMin= 6 EnMin= -76.7265208615700     IErMin= 6 ErrMin= 9.22D-06
 ErrMax= 9.22D-06  0.00D+00 EMaxC= 1.00D-01 BMatC= 3.89D-09 BMatP= 4.34D-07
 IDIUse=1 WtCom= 1.00D+00 WtEn= 0.00D+00
 Coeff-Com:  0.397D-04 0.770D-05 0.126D-02 0.213D-01-0.167D+00 0.114D+01
 Coeff:      0.397D-04 0.770D-05 0.126D-02 0.213D-01-0.167D+00 0.114D+01
 Gap=     0.585 Goal=   None    Shift=    0.000
 Gap=     0.241 Goal=   None    Shift=    0.000
 RMSDP=3.21D-06 MaxDP=6.52D-05 DE=-2.88D-07 OVMax= 3.14D-05

 Cycle   7  Pass 1  IDiag  1:
 E= -76.7265208635661     Delta-E=       -0.000000001996 Rises=F Damp=F
 DIIS: error= 4.87D-07 at cycle   7 NSaved=   7.
 NSaved= 7 IEnMin= 7 EnMin= -76.7265208635661     IErMin= 7 ErrMin= 4.87D-07
 ErrMax= 4.87D-07  0.00D+00 EMaxC= 1.00D-01 BMatC= 2.26D-11 BMatP= 3.89D-09
 IDIUse=1 WtCom= 1.00D+00 WtEn= 0.00D+00
 Coeff-Com:  0.167D-04-0.444D-04-0.463D-03 0.104D-02 0.741D-02-0.114D+00
 Coeff-Com:  0.111D+01
 Coeff:      0.167D-04-0.444D-04-0.463D-03 0.104D-02 0.741D-02-0.114D+00
 Coeff:      0.111D+01
 Gap=     0.585 Goal=   None    Shift=    0.000
 Gap=     0.241 Goal=   None    Shift=    0.000
 RMSDP=1.83D-07 MaxDP=4.26D-06 DE=-2.00D-09 OVMax= 1.53D-06

 Cycle   8  Pass 1  IDiag  1:
 E= -76.7265208635757     Delta-E=       -0.000000000010 Rises=F Damp=F
 DIIS: error= 6.79D-08 at cycle   8 NSaved=   8.
 NSaved= 8 IEnMin= 8 EnMin= -76.7265208635757     IErMin= 8 ErrMin= 6.79D-08
 ErrMax= 6.79D-08  0.00D+00 EMaxC= 1.00D-01 BMatC= 3.81D-13 BMatP= 2.26D-11
 IDIUse=1 WtCom= 1.00D+00 WtEn= 0.00D+00
 Coeff-Com: -0.525D-07-0.550D-06 0.590D-05-0.234D-03 0.134D-02-0.869D-02
 Coeff-Com: -0.486D-01 0.106D+01
 Coeff:     -0.525D-07-0.550D-06 0.590D-05-0.234D-03 0.134D-02-0.869D-02
 Coeff:     -0.486D-01 0.106D+01
 Gap=     0.585 Goal=   None    Shift=    0.000
 Gap=     0.241 Goal=   None    Shift=    0.000
 RMSDP=3.26D-08 MaxDP=7.04D-07 DE=-9.58D-12 OVMax= 2.22D-07

 Cycle   9  Pass 1  IDiag  1:
 E= -76.7265208635757     Delta-E=       -0.000000000000 Rises=F Damp=F
 DIIS: error= 3.02D-08 at cycle   9 NSaved=   9.
 NSaved= 9 IEnMin= 9 EnMin= -76.7265208635757     IErMin= 9 ErrMin= 3.02D-08
 ErrMax= 3.02D-08  0.00D+00 EMaxC= 1.00D-01 BMatC= 1.04D-13 BMatP= 3.81D-13
 IDIUse=1 WtCom= 1.00D+00 WtEn= 0.00D+00
 Coeff-Com: -0.262D-06 0.589D-06 0.130D-04-0.109D-03 0.285D-03-0.144D-03
 Coeff-Com: -0.489D-01 0.402D+00 0.647D+00
 Coeff:     -0.262D-06 0.589D-06 0.130D-04-0.109D-03 0.285D-03-0.144D-03
 Coeff:     -0.489D-01 0.402D+00 0.647D+00
 Gap=     0.585 Goal=   None    Shift=    0.000
 Gap=     0.241 Goal=   None    Shift=    0.000
 RMSDP=3.26D-09 MaxDP=5.19D-08 DE=-5.68D-14 OVMax= 7.37D-08

 SCF Done:  E(UM062X) =  -76.7265208636     A.U. after    9 cycles
            NFock=  9  Conv=0.33D-08     -V/T= 1.9813
 <Sx>= 0.0000 <Sy>= 0.0000 <Sz>= 0.5000 <S**2>= 0.7522 S= 0.5011
 <L.S>=  0.00000000000    
 KE= 7.818863323575D+01 PE=-2.315273534427D+02 EE= 4.829347486066D+01
 Annihilation of the first spin contaminant:
 S**2 before annihilation     0.7522,   after     0.7500
 Leave Link  502 at Tue Nov 19 13:26:56 2024, MaxMem=  2147483648 cpu:              38.0 elap:               2.0
 (Enter /home/szhao/Apps/g16/l601.exe)
 Copying SCF densities to generalized density rwf, IOpCl= 1 IROHF=0.

 **********************************************************************

            Population analysis using the SCF density.

 **********************************************************************

 Orbital symmetries:
 Alpha Orbitals:
       Occupied  (SG) (SG) (SG) (SG) (SG) (PI) (PI)
       Virtual   (PI) (PI) (SG) (SG) (SG) (PI) (PI) (PI) (PI) (SG)
                 (SG) (SG) (SG) (SG) (PI) (PI) (PI) (PI) (SG) (SG)
                 (SG) (DLTA) (DLTA) (PI) (SG) (PI) (?A) (PI) (PI)
                 (?A) (?A) (SG) (PI) (PI) (SG) (SG) (PI) (SG) (PI)
                 (PI) (PI) (SG) (PI) (PI) (SG) (SG) (SG) (SG) (SG)
 Beta  Orbitals:
       Occupied  (SG) (SG) (SG) (SG) (SG) (?A)
       Virtual   (?A) (?B) (?B) (SG) (SG) (SG) (?A) (?A) (?B) (SG)
                 (?B) (SG) (SG) (SG) (SG) (?A) (?A) (PI) (PI) (SG)
                 (SG) (SG) (SG) (DLTA) (DLTA) (PI) (PI) (SG) (PI)
                 (PI) (DLTA) (DLTA) (SG) (PI) (PI) (SG) (SG) (PI)
                 (SG) (PI) (PI) (PI) (SG) (PI) (PI) (SG) (SG) (SG)
                 (SG) (SG)
 Unable to determine electronic state:  an orbital has unidentified symmetry.
 Alpha  occ. eigenvalues --  -10.90699 -10.89238  -1.31766  -0.95247  -0.91291
 Alpha  occ. eigenvalues --   -0.81829  -0.78391
 Alpha virt. eigenvalues --   -0.19884  -0.18115  -0.14708  -0.13858  -0.11947
 Alpha virt. eigenvalues --   -0.11352  -0.11036  -0.03569  -0.02873  -0.02425
 Alpha virt. eigenvalues --    0.02441   0.04289   0.17116   0.20649   0.25876
 Alpha virt. eigenvalues --    0.26878   0.41465   0.42371   0.46645   0.50691
 Alpha virt. eigenvalues --    0.55997   0.79883   0.80063   0.85072   0.85206
 Alpha virt. eigenvalues --    0.86516   1.03359   1.27204   1.27821   1.34523
 Alpha virt. eigenvalues --    1.34563   1.38059   1.67429   1.69210   2.16908
 Alpha virt. eigenvalues --    2.26068   2.34176   2.36338   2.36981   2.41690
 Alpha virt. eigenvalues --    2.45322   2.63372   2.72683   2.76007   3.06111
 Alpha virt. eigenvalues --    3.17290   3.87334  23.77851  25.32286
  Beta  occ. eigenvalues --  -10.90353 -10.88957  -1.25909  -0.93726  -0.90471
  Beta  occ. eigenvalues --   -0.75755
  Beta virt. eigenvalues --   -0.51675  -0.16963  -0.15633  -0.15577  -0.13439
  Beta virt. eigenvalues --   -0.11895  -0.11555  -0.11144  -0.02409  -0.01933
  Beta virt. eigenvalues --   -0.01403   0.02639   0.04708   0.17702   0.21037
  Beta virt. eigenvalues --    0.24276   0.26568   0.42745   0.42938   0.46555
  Beta virt. eigenvalues --    0.49301   0.56772   0.83391   0.84197   0.86109
  Beta virt. eigenvalues --    0.87774   0.88856   1.06190   1.28906   1.29818
  Beta virt. eigenvalues --    1.37255   1.38682   1.39244   1.69702   1.70640
  Beta virt. eigenvalues --    2.20134   2.28901   2.37766   2.37773   2.37980
  Beta virt. eigenvalues --    2.45646   2.45878   2.71120   2.74763   2.76487
  Beta virt. eigenvalues --    3.10492   3.20578   3.92350  23.78648  25.34591
          Condensed to atoms (all electrons):
               1          2          3          4
     1  C    4.638734   0.767213   0.335765   0.023865
     2  C    0.767213   4.638732   0.023866   0.335766
     3  H    0.335765   0.023866   0.375864  -0.001072
     4  H    0.023865   0.335766  -0.001072   0.375865
          Atomic-Atomic Spin Densities.
               1          2          3          4
     1  C    0.355717   0.169676  -0.008956   0.004300
     2  C    0.169676   0.355716   0.004300  -0.008955
     3  H   -0.008956   0.004300  -0.016253   0.000172
     4  H    0.004300  -0.008955   0.000172  -0.016253
 Mulliken charges and spin densities:
               1          2
     1  C    0.234423   0.520737
     2  C    0.234423   0.520736
     3  H    0.265577  -0.020737
     4  H    0.265576  -0.020736
 Sum of Mulliken charges =   1.00000   1.00000
 Mulliken charges and spin densities with hydrogens summed into heavy atoms:
               1          2
     1  C    0.500000   0.500000
     2  C    0.500000   0.500000
 Electronic spatial extent (au):  <R**2>=             44.0749
 Charge=              1.0000 electrons
 Dipole moment (field-independent basis, Debye):
    X=              0.0000    Y=              0.0000    Z=              0.0000  Tot=              0.0000
 Quadrupole moment (field-independent basis, Debye-Ang):
   XX=            -10.4223   YY=             -8.8643   ZZ=             -2.0632
   XY=              0.0000   XZ=              0.0000   YZ=              0.0000
 Traceless Quadrupole moment (field-independent basis, Debye-Ang):
   XX=             -3.3057   YY=             -1.7478   ZZ=              5.0534
   XY=              0.0000   XZ=              0.0000   YZ=              0.0000
 Octapole moment (field-independent basis, Debye-Ang**2):
  XXX=              0.0000  YYY=              0.0000  ZZZ=              0.0000  XYY=              0.0000
  XXY=              0.0000  XXZ=             -0.0000  XZZ=              0.0000  YZZ=              0.0000
  YYZ=             -0.0000  XYZ=              0.0000
 Hexadecapole moment (field-independent basis, Debye-Ang**3):
 XXXX=             -9.4537 YYYY=             -7.0983 ZZZZ=            -14.0080 XXXY=              0.0000
 XXXZ=              0.0000 YYYX=              0.0000 YYYZ=              0.0000 ZZZX=              0.0000
 ZZZY=              0.0000 XXYY=             -2.7586 XXZZ=             -7.7762 YYZZ=             -7.1504
 XXYZ=              0.0000 YYXZ=              0.0000 ZZXY=              0.0000
 N-N= 2.831872448267D+01 E-N=-2.315273534870D+02  KE= 7.818863323575D+01
 Symmetry A1   KE= 7.411018972970D+01
 Symmetry A2   KE= 1.368944096273D-35
 Symmetry B1   KE= 2.703545532932D+00
 Symmetry B2   KE= 1.374897973121D+00
 Symmetry A1   SP=-5.067654414268D-15
 Symmetry A2   SP= 2.719686413446D-36
 Symmetry B1   SP=-1.928392020255D-16
 Symmetry B2   SP= 1.000000000000D+00
                          Isotropic Fermi Contact Couplings
        Atom                 a.u.       MegaHertz       Gauss      10(-4) cm-1
     1  C(13)              0.06224      69.96583      24.96555      23.33809
     2  C(13)              0.06224      69.96569      24.96550      23.33804
     3  H(1)              -0.01069     -47.80083     -17.05653     -15.94464
     4  H(1)              -0.01069     -47.80073     -17.05649     -15.94461
 --------------------------------------------------------
       Center         ----  Spin Dipole Couplings  ----
                      3XX-RR        3YY-RR        3ZZ-RR
 --------------------------------------------------------
     1   Atom       -0.441001      0.758252     -0.317250
     2   Atom       -0.441001      0.758252     -0.317250
     3   Atom       -0.046033     -0.017888      0.063920
     4   Atom       -0.046033     -0.017888      0.063920
 --------------------------------------------------------
                        XY            XZ            YZ
 --------------------------------------------------------
     1   Atom        0.000000      0.000000      0.000000
     2   Atom        0.000000      0.000000      0.000000
     3   Atom        0.000000      0.000000      0.000000
     4   Atom        0.000000      0.000000      0.000000
 --------------------------------------------------------


 ---------------------------------------------------------------------------------
              Anisotropic Spin Dipole Couplings in Principal Axis System
 ---------------------------------------------------------------------------------

       Atom             a.u.   MegaHertz   Gauss  10(-4) cm-1        Axes

              Baa    -0.4410   -59.178   -21.116   -19.740  1.0000  0.0000  0.0000
     1 C(13)  Bbb    -0.3173   -42.572   -15.191   -14.200  0.0000  0.0000  1.0000
              Bcc     0.7583   101.750    36.307    33.940 -0.0000  1.0000  0.0000
 
              Baa    -0.4410   -59.178   -21.116   -19.740  1.0000  0.0000  0.0000
     2 C(13)  Bbb    -0.3173   -42.572   -15.191   -14.200  0.0000  0.0000  1.0000
              Bcc     0.7583   101.750    36.307    33.940 -0.0000  1.0000  0.0000
 
              Baa    -0.0460   -24.561    -8.764    -8.193  1.0000  0.0000  0.0000
     3 H(1)   Bbb    -0.0179    -9.544    -3.406    -3.184 -0.0000  1.0000  0.0000
              Bcc     0.0639    34.105    12.169    11.376  0.0000  0.0000  1.0000
 
              Baa    -0.0460   -24.561    -8.764    -8.193  1.0000  0.0000  0.0000
     4 H(1)   Bbb    -0.0179    -9.544    -3.406    -3.184 -0.0000  1.0000  0.0000
              Bcc     0.0639    34.105    12.169    11.376  0.0000  0.0000  1.0000
 

 ---------------------------------------------------------------------------------

 No NMR shielding tensors so no spin-rotation constants.
 Leave Link  601 at Tue Nov 19 13:26:57 2024, MaxMem=  2147483648 cpu:              14.1 elap:               0.8
 (Enter /home/szhao/Apps/g16/l701.exe)
 ... and contract with generalized density number  0.
 Compute integral first derivatives.
 Leave Link  701 at Tue Nov 19 13:26:58 2024, MaxMem=  2147483648 cpu:               2.7 elap:               0.1
 (Enter /home/szhao/Apps/g16/l702.exe)
 L702 exits ... SP integral derivatives will be done elsewhere.
 Leave Link  702 at Tue Nov 19 13:26:58 2024, MaxMem=  2147483648 cpu:               2.5 elap:               0.2
 (Enter /home/szhao/Apps/g16/l703.exe)
 Integral derivatives from FoFJK, PRISM(SPDF).
 Compute integral first derivatives, UseDBF=F ICtDFT=           0.
 Calling FoFJK, ICntrl=      2127 FMM=F ISym2X=1 I1Cent= 0 IOpClX= 1 NMat=1 NMatS=1 NMatT=0.
 FoFJK:  IHMeth= 1 ICntrl=    2127 DoSepK=F KAlg= 0 I1Cent=           0 FoldK=F
 IRaf=         0 NMat=       1 IRICut=       1 DoRegI=T DoRafI=F ISym2E= 1 IDoP0=0 IntGTp=1.
 FoFCou: FMM=F IPFlag=           0 FMFlag=      100000 FMFlg1=         800
         NFxFlg=           0 DoJE=F BraDBF=F KetDBF=F FulRan=T
         wScrn=  0.000000 ICntrl=      2127 IOpCl=  1 I1Cent=           0 NGrid=           0
         NMat0=    1 NMatS0=      1 NMatT0=    0 NMatD0=    1 NMtDS0=    0 NMtDT0=    0
 Petite list used in FoFCou.
 Leave Link  703 at Tue Nov 19 13:26:58 2024, MaxMem=  2147483648 cpu:               7.5 elap:               0.3
 (Enter /home/szhao/Apps/g16/l716.exe)
 Dipole        = 0.00000000D+00 0.00000000D+00 1.33614944D-06
 ***** Axes restored to original set *****
 -------------------------------------------------------------------
 Center     Atomic                   Forces (Hartrees/Bohr)
 Number     Number              X              Y              Z
 -------------------------------------------------------------------
      1        6          -0.941023586   -0.000000000   -0.000000000
      2        6           0.941022137   -0.000000000   -0.000000000
      3        1          -0.000107052   -0.000000000   -0.000000000
      4        1           0.000108502   -0.000000000   -0.000000000
 -------------------------------------------------------------------
 Cartesian Forces:  Max     0.941023586 RMS     0.384170977
 Z-matrix is all fixed cartesians, so copy forces.
 Force constants in Cartesian coordinates: 
                1             2             3             4             5 
      1  0.383656D+01
      2  0.000000D+00  0.213537D+00
      3  0.000000D+00  0.000000D+00  0.213537D+00
      4 -0.346843D+01  0.000000D+00  0.000000D+00  0.383656D+01
      5  0.000000D+00 -0.174646D+00  0.000000D+00  0.000000D+00  0.213537D+00
      6  0.000000D+00  0.000000D+00 -0.174646D+00  0.000000D+00  0.000000D+00
      7 -0.368123D+00  0.000000D+00  0.000000D+00  0.000000D+00  0.000000D+00
      8  0.000000D+00 -0.808807D-01  0.000000D+00  0.000000D+00  0.419892D-01
      9  0.000000D+00  0.000000D+00 -0.808807D-01  0.000000D+00  0.000000D+00
     10  0.000000D+00  0.000000D+00  0.000000D+00 -0.368125D+00  0.000000D+00
     11  0.000000D+00  0.419893D-01  0.000000D+00  0.000000D+00 -0.808809D-01
     12  0.000000D+00  0.000000D+00  0.419893D-01  0.000000D+00  0.000000D+00
                6             7             8             9            10 
      6  0.213537D+00
      7  0.000000D+00  0.368123D+00
      8  0.000000D+00  0.000000D+00  0.388915D-01
      9  0.419892D-01  0.000000D+00  0.000000D+00  0.388915D-01
     10  0.000000D+00  0.000000D+00  0.000000D+00  0.000000D+00  0.368125D+00
     11  0.000000D+00  0.000000D+00  0.000000D+00  0.000000D+00  0.000000D+00
     12 -0.808809D-01  0.000000D+00  0.000000D+00  0.000000D+00  0.000000D+00
               11            12 
     11  0.388917D-01
     12  0.000000D+00  0.388917D-01
 Leave Link  716 at Tue Nov 19 13:26:58 2024, MaxMem=  2147483648 cpu:               2.0 elap:               0.2
 (Enter /home/szhao/Apps/g16/l103.exe)

 GradGradGradGradGradGradGradGradGradGradGradGradGradGradGradGradGradGrad
 Berny optimization.
 Search for a local minimum.
 Step number   1 out of a maximum of    2
 All quantities printed in internal units (Hartrees-Bohrs-Radians)
 Second derivative matrix not updated -- first step.
 The second derivative matrix:
                          X1        Y1        Z1        X2        Y2
           X1           3.83656
           Y1           0.00000   0.21354
           Z1           0.00000   0.00000   0.21354
           X2          -3.46843   0.00000   0.00000   3.83656
           Y2           0.00000  -0.17465   0.00000   0.00000   0.21354
           Z2           0.00000   0.00000  -0.17465   0.00000   0.00000
           X3          -0.36812   0.00000   0.00000   0.00000   0.00000
           Y3           0.00000  -0.08088   0.00000   0.00000   0.04199
           Z3           0.00000   0.00000  -0.08088   0.00000   0.00000
           X4           0.00000   0.00000   0.00000  -0.36813   0.00000
           Y4           0.00000   0.04199   0.00000   0.00000  -0.08088
           Z4           0.00000   0.00000   0.04199   0.00000   0.00000
                          Z2        X3        Y3        Z3        X4
           Z2           0.21354
           X3           0.00000   0.36812
           Y3           0.00000   0.00000   0.03889
           Z3           0.04199   0.00000   0.00000   0.03889
           X4           0.00000   0.00000   0.00000   0.00000   0.36813
           Y4           0.00000   0.00000   0.00000   0.00000   0.00000
           Z4          -0.08088   0.00000   0.00000   0.00000   0.00000
                          Y4        Z4
           Y4           0.03889
           Z4           0.00000   0.03889
 ITU=  0
     Eigenvalues ---    0.06611   0.06611   0.34864   0.37604   0.37604
     Eigenvalues ---    0.62576   7.32447
 Angle between quadratic step and forces=  45.06 degrees.
 ClnCor:  largest displacement from symmetrization is 3.06D-15 for atom     4.
 Linear search not attempted -- first point.
 ClnCor:  largest displacement from symmetrization is 0.00D+00 for atom     0.
 B after Tr=    -0.000000    0.000000    0.000000
         Rot=    1.000000    0.000000    0.000000    0.000000 Ang=   0.00 deg.
 Variable       Old X    -DE/DX   Delta X   Delta X   Delta X     New X
                                 (Linear)    (Quad)   (Total)
    X1       -0.93933  -0.94102   0.00000  -0.13567  -0.13567  -1.07501
    Y1        0.00000  -0.00000   0.00000   0.00000   0.00000   0.00000
    Z1        0.00000  -0.00000   0.00000   0.00000   0.00000   0.00000
    X2        0.93933   0.94102   0.00000   0.13567   0.13567   1.07500
    Y2        0.00000  -0.00000   0.00000   0.00000   0.00000   0.00000
    Z2        0.00000  -0.00000   0.00000   0.00000   0.00000   0.00000
    X3       -2.96764  -0.00011   0.00000  -0.13596  -0.13596  -3.10360
    Y3        0.00000  -0.00000   0.00000   0.00000   0.00000   0.00000
    Z3        0.00000  -0.00000   0.00000   0.00000   0.00000   0.00000
    X4        2.96763   0.00011   0.00000   0.13597   0.13596   3.10360
    Y4        0.00000  -0.00000   0.00000   0.00000   0.00000   0.00000
    Z4        0.00000  -0.00000   0.00000   0.00000   0.00000   0.00000
         Item               Value     Threshold  Converged?
 Maximum Force            0.941024     0.000450     NO 
 RMS     Force            0.384171     0.000300     NO 
 Maximum Displacement     0.135965     0.001800     NO 
 RMS     Displacement     0.078414     0.001200     NO 
 Predicted change in Energy=-1.276840D-01
 GradGradGradGradGradGradGradGradGradGradGradGradGradGradGradGradGradGrad

 Leave Link  103 at Tue Nov 19 13:26:59 2024, MaxMem=  2147483648 cpu:               0.8 elap:               0.1
 (Enter /home/szhao/Apps/g16/l9999.exe)
 1\1\GINC-NODE02\Force\UM062X\6-311+G(d,p)\C2H2(1+,2)\SZHAO\19-Nov-2024
 \0\\#p UM062X/6-311+G** force int=superfine\\Title Card Required\\1,2\
 C,-0.497074,0.,0.\C,0.497074,0.,0.\H,-1.570405,0.,0.\H,1.570403,0.,0.\
 \Version=ES64L-G16RevA.03\HF=-76.7265209\S2=0.752175\S2-1=0.\S2A=0.750
 003\RMSD=3.256e-09\RMSF=3.842e-01\Dipole=-0.0000013,0.,0.\Quadrupole=3
 .7571026,-1.299418,-2.4576846,0.,0.,0.\PG=C*V [C*(H1C1C1H1)]\\@


 OLD AGE AND TREACHERY WILL ALWAYS PREVAIL OVER YOUTH AND SKILL.
 Job cpu time:       0 days  0 hours  1 minutes 58.4 seconds.
 Elapsed time:       0 days  0 hours  0 minutes  6.8 seconds.
 File lengths (MBytes):  RWF=     17 Int=      0 D2E=      0 Chk=      2 Scr=      2
 Normal termination of Gaussian 16 at Tue Nov 19 13:26:59 2024.
