Title Card Required                                                     
FOpt      UM062X                                                      6-311+G(d,p)        
Number of atoms                            I                6
Info1-9                                    I   N=           9
          15          15           0           0           0         110
           2          18        -502
Full Title                                 C   N=           2
Title Card Required     
Route                                      C   N=           5
#p opt UM062X/6-311+G** nosymm int=superfine SCF=NoVarAcc   
Charge                                     I                1
Multiplicity                               I                2
Number of electrons                        I               15
Number of alpha electrons                  I                8
Number of beta electrons                   I                7
Number of basis functions                  I               68
Number of independent functions            I               68
Number of point charges in /Mol/           I                0
Number of translation vectors              I                0
Atomic numbers                             I   N=           6
           6           6           1           1           1           1
Nuclear charges                            R   N=           6
  6.00000000E+00  6.00000000E+00  1.00000000E+00  1.00000000E+00  1.00000000E+00
  1.00000000E+00
Current cartesian coordinates              R   N=          18
 -3.50738271E+00  0.00000000E+00  0.00000000E+00  3.50738271E+00  0.00000000E+00
  0.00000000E+00 -4.56154873E+00 -1.78143161E+00 -7.95879472E-09 -4.56144536E+00
  1.78149199E+00 -8.22713590E-09  4.56154862E+00  1.78143157E+00  6.65273215E-09
  4.56144526E+00 -1.78149195E+00  6.38446527E-09
Number of symbols in /Mol/                 I                0
Force Field                                I                0
Atom Types                                 C   N=           6
                                                            
            
Int Atom Types                             I   N=           6
           0           0           0           0           0           0
MM charges                                 R   N=           6
  0.00000000E+00  0.00000000E+00  0.00000000E+00  0.00000000E+00  0.00000000E+00
  0.00000000E+00
Integer atomic weights                     I   N=           6
          12          12           1           1           1           1
Real atomic weights                        R   N=           6
  1.20000000E+01  1.20000000E+01  1.00782504E+00  1.00782504E+00  1.00782504E+00
  1.00782504E+00
Atom fragment info                         I   N=           6
           0           0           0           0           0           0
Atom residue num                           I   N=           6
           0           0           0           0           0           0
Nuclear spins                              I   N=           6
           0           0           1           1           1           1
Nuclear ZEff                               R   N=           6
 -3.60000000E+00 -3.60000000E+00 -1.00000000E+00 -1.00000000E+00 -1.00000000E+00
 -1.00000000E+00
Nuclear ZNuc                               R   N=           6
  6.00000000E+00  6.00000000E+00  1.00000000E+00  1.00000000E+00  1.00000000E+00
  1.00000000E+00
Nuclear QMom                               R   N=           6
  0.00000000E+00  0.00000000E+00  0.00000000E+00  0.00000000E+00  0.00000000E+00
  0.00000000E+00
Nuclear GFac                               R   N=           6
  0.00000000E+00  0.00000000E+00  2.79284600E+00  2.79284600E+00  2.79284600E+00
  2.79284600E+00
MicOpt                                     I   N=           6
          -2          -2          -1          -1          -1          -1
Number of residues                         I                0
Number of secondary structures             I                0
Redundant internal dimensions              I   N=           4
          20          10           6           4
Redundant internal coordinate indices      I   N=          80
           1          -1           0           0           1          -2
           0           0           1          -3           0           0
           2          -1           0           0           2          -2
           0           0           2          -3           0           0
           1           3           0           0           1           4
           0           0           2           5           0           0
           2           6           0           0           2           1
           3           0           2           1           4           0
           3           1           4           0           1           2
           5           0           1           2           6           0
           5           2           6           0           3           1
           2           5           3           1           2           6
           4           1           2           5           4           1
           2           6
Redundant internal coordinates             R   N=          20
 -3.50738271E+00  0.00000000E+00  0.00000000E+00  3.50738271E+00  0.00000000E+00
  0.00000000E+00  2.06996729E+00  2.06996661E+00  2.06996720E+00  2.06996653E+00
  2.10512917E+00  2.10507134E+00  2.07298480E+00  2.10512914E+00  2.10507131E+00
  2.07298486E+00  3.14159265E+00 -0.00000000E+00  0.00000000E+00  3.14159265E+00
ZRed-IntVec                                I   N=          20
          -1          -1          -1          -1          -1          -1
           0           0           0           0           0           0
           0           0           0           0           0           0
           0           0
ZRed-FPVec                                 R   N=          20
  0.00000000E+00  0.00000000E+00  0.00000000E+00  0.00000000E+00  0.00000000E+00
  0.00000000E+00  0.00000000E+00  0.00000000E+00  0.00000000E+00  0.00000000E+00
  0.00000000E+00  0.00000000E+00  0.00000000E+00  0.00000000E+00  0.00000000E+00
  0.00000000E+00  0.00000000E+00  0.00000000E+00  0.00000000E+00  0.00000000E+00
ZRed-Constraint1                           R   N=          20
 -3.50738271E+00  0.00000000E+00  0.00000000E+00  3.50738271E+00  0.00000000E+00
  0.00000000E+00  2.05067934E+00  2.05048469E+00  2.05067934E+00  2.05048469E+00
  1.98162443E+00  1.98155420E+00  2.32000667E+00  1.98162443E+00  1.98155420E+00
  2.32000667E+00  3.14159265E+00  0.00000000E+00  0.00000000E+00  3.14159265E+00
ZRed-Constraint2                           R   N=          20
 -3.50738271E+00  0.00000000E+00  0.00000000E+00  3.50738271E+00  0.00000000E+00
  0.00000000E+00  0.00000000E+00  0.00000000E+00  0.00000000E+00  0.00000000E+00
  0.00000000E+00  0.00000000E+00  0.00000000E+00  0.00000000E+00  0.00000000E+00
  0.00000000E+00  0.00000000E+00  0.00000000E+00  0.00000000E+00  0.00000000E+00
Number of contracted shells                I               28
Number of primitive shells                 I               50
Pure/Cartesian d shells                    I                0
Pure/Cartesian f shells                    I                0
Highest angular momentum                   I                2
Largest degree of contraction              I                6
Shell types                                I   N=          28
           0          -1          -1          -1          -1          -2
           0          -1          -1          -1          -1          -2
           0           0           0           1           0           0
           0           1           0           0           0           1
           0           0           0           1
Number of primitives per shell             I   N=          28
           6           3           1           1           1           1
           6           3           1           1           1           1
           3           1           1           1           3           1
           1           1           3           1           1           1
           3           1           1           1
Shell to atom map                          I   N=          28
           1           1           1           1           1           1
           2           2           2           2           2           2
           3           3           3           3           4           4
           4           4           5           5           5           5
           6           6           6           6
Primitive exponents                        R   N=          50
  4.56324000E+03  6.82024000E+02  1.54973000E+02  4.44553000E+01  1.30290000E+01
  1.82773000E+00  2.09642000E+01  4.80331000E+00  1.45933000E+00  4.83456000E-01
  1.45585000E-01  4.38000000E-02  6.26000000E-01  4.56324000E+03  6.82024000E+02
  1.54973000E+02  4.44553000E+01  1.30290000E+01  1.82773000E+00  2.09642000E+01
  4.80331000E+00  1.45933000E+00  4.83456000E-01  1.45585000E-01  4.38000000E-02
  6.26000000E-01  3.38650000E+01  5.09479000E+00  1.15879000E+00  3.25840000E-01
  1.02741000E-01  7.50000000E-01  3.38650000E+01  5.09479000E+00  1.15879000E+00
  3.25840000E-01  1.02741000E-01  7.50000000E-01  3.38650000E+01  5.09479000E+00
  1.15879000E+00  3.25840000E-01  1.02741000E-01  7.50000000E-01  3.38650000E+01
  5.09479000E+00  1.15879000E+00  3.25840000E-01  1.02741000E-01  7.50000000E-01
Contraction coefficients                   R   N=          50
  1.96665025E-03  1.52306019E-02  7.61269097E-02  2.60801033E-01  6.16462078E-01
  2.21006028E-01  1.14660081E-01  9.19999648E-01 -3.03068213E-03  1.00000000E+00
  1.00000000E+00  1.00000000E+00  1.00000000E+00  1.96665025E-03  1.52306019E-02
  7.61269097E-02  2.60801033E-01  6.16462078E-01  2.21006028E-01  1.14660081E-01
  9.19999648E-01 -3.03068213E-03  1.00000000E+00  1.00000000E+00  1.00000000E+00
  1.00000000E+00  2.54938145E-02  1.90373109E-01  8.52161486E-01  1.00000000E+00
  1.00000000E+00  1.00000000E+00  2.54938145E-02  1.90373109E-01  8.52161486E-01
  1.00000000E+00  1.00000000E+00  1.00000000E+00  2.54938145E-02  1.90373109E-01
  8.52161486E-01  1.00000000E+00  1.00000000E+00  1.00000000E+00  2.54938145E-02
  1.90373109E-01  8.52161486E-01  1.00000000E+00  1.00000000E+00  1.00000000E+00
P(S=P) Contraction coefficients            R   N=          50
  0.00000000E+00  0.00000000E+00  0.00000000E+00  0.00000000E+00  0.00000000E+00
  0.00000000E+00  4.02486927E-02  2.37593957E-01  8.15853851E-01  1.00000000E+00
  1.00000000E+00  1.00000000E+00  0.00000000E+00  0.00000000E+00  0.00000000E+00
  0.00000000E+00  0.00000000E+00  0.00000000E+00  0.00000000E+00  4.02486927E-02
  2.37593957E-01  8.15853851E-01  1.00000000E+00  1.00000000E+00  1.00000000E+00
  0.00000000E+00  0.00000000E+00  0.00000000E+00  0.00000000E+00  0.00000000E+00
  0.00000000E+00  0.00000000E+00  0.00000000E+00  0.00000000E+00  0.00000000E+00
  0.00000000E+00  0.00000000E+00  0.00000000E+00  0.00000000E+00  0.00000000E+00
  0.00000000E+00  0.00000000E+00  0.00000000E+00  0.00000000E+00  0.00000000E+00
  0.00000000E+00  0.00000000E+00  0.00000000E+00  0.00000000E+00  0.00000000E+00
Coordinates of each shell                  R   N=          84
 -3.50738271E+00  0.00000000E+00  0.00000000E+00 -3.50738271E+00  0.00000000E+00
  0.00000000E+00 -3.50738271E+00  0.00000000E+00  0.00000000E+00 -3.50738271E+00
  0.00000000E+00  0.00000000E+00 -3.50738271E+00  0.00000000E+00  0.00000000E+00
 -3.50738271E+00  0.00000000E+00  0.00000000E+00  3.50738271E+00  0.00000000E+00
  0.00000000E+00  3.50738271E+00  0.00000000E+00  0.00000000E+00  3.50738271E+00
  0.00000000E+00  0.00000000E+00  3.50738271E+00  0.00000000E+00  0.00000000E+00
  3.50738271E+00  0.00000000E+00  0.00000000E+00  3.50738271E+00  0.00000000E+00
  0.00000000E+00 -4.56154873E+00 -1.78143161E+00 -7.95879472E-09 -4.56154873E+00
 -1.78143161E+00 -7.95879472E-09 -4.56154873E+00 -1.78143161E+00 -7.95879472E-09
 -4.56154873E+00 -1.78143161E+00 -7.95879472E-09 -4.56144536E+00  1.78149199E+00
 -8.22713590E-09 -4.56144536E+00  1.78149199E+00 -8.22713590E-09 -4.56144536E+00
  1.78149199E+00 -8.22713590E-09 -4.56144536E+00  1.78149199E+00 -8.22713590E-09
  4.56154862E+00  1.78143157E+00  6.65273215E-09  4.56154862E+00  1.78143157E+00
  6.65273215E-09  4.56154862E+00  1.78143157E+00  6.65273215E-09  4.56154862E+00
  1.78143157E+00  6.65273215E-09  4.56144526E+00 -1.78149195E+00  6.38446527E-09
  4.56144526E+00 -1.78149195E+00  6.38446527E-09  4.56144526E+00 -1.78149195E+00
  6.38446527E-09  4.56144526E+00 -1.78149195E+00  6.38446527E-09
Num ILSW                                   I              100
ILSW                                       I   N=         100
           1           0           0           1           2           0
           0           0           0           0        4336          -1
           7           0           0           0           2           0
           0           0           0           0           1           0
           1           1           0           0           0           0
           0           0      100000           0          -1           0
           0           0           0           0           0           0
           0           0           0           1           0           0
           0 -2000000000           1           0           0           0
           0           0           4          52           0           0
           0           0          55           0           0           0
           0           0           0           6           0           1
           0           0           0           0           0           0
           0           0           0           0           0           0
           0           0           0           0           0           0
           0           0           0           0           0           0
           0           0           0           0
Num RLSW                                   I               52
RLSW                                       R   N=          52
  1.00000000E+00  1.00000000E+00  1.00000000E+00  1.00000000E+00  5.40000000E-01
  0.00000000E+00  0.00000000E+00  1.00000000E+00  0.00000000E+00  0.00000000E+00
  0.00000000E+00  0.00000000E+00  1.00000000E+00  0.00000000E+00  0.00000000E+00
  0.00000000E+00  0.00000000E+00  1.00000000E+00  0.00000000E+00  0.00000000E+00
  0.00000000E+00  0.00000000E+00  1.00000000E+00  0.00000000E+00  0.00000000E+00
  0.00000000E+00  0.00000000E+00  1.00000000E+00  0.00000000E+00  0.00000000E+00
  0.00000000E+00  0.00000000E+00  1.00000000E+00  0.00000000E+00  0.00000000E+00
  0.00000000E+00  0.00000000E+00  0.00000000E+00  1.00000000E+00  1.00000000E+00
  0.00000000E+00  1.00000000E+00  0.00000000E+00  0.00000000E+00  0.00000000E+00
  0.00000000E+00  0.00000000E+00  0.00000000E+00  0.00000000E+00  0.00000000E+00
  0.00000000E+00  0.00000000E+00
MxBond                                     I                3
NBond                                      I   N=           6
           3           3           1           1           1           1
IBond                                      I   N=          18
           2           3           4           1           5           6
           1           0           0           1           0           0
           2           0           0           2           0           0
RBond                                      R   N=          18
  1.00000000E-01  1.00000000E+00  1.00000000E+00  1.00000000E-01  1.00000000E+00
  1.00000000E+00  1.00000000E+00  0.00000000E+00  0.00000000E+00  1.00000000E+00
  0.00000000E+00  0.00000000E+00  1.00000000E+00  0.00000000E+00  0.00000000E+00
  1.00000000E+00  0.00000000E+00  0.00000000E+00
Virial Ratio                               R      2.004489814065458E+00
SCF Energy                                 R     -7.791258438252402E+01
Total Energy                               R     -7.791258438252402E+01
S**2                                       R      7.640559965159373E-01
S**2 after annihilation                    R      7.500177219157473E-01
RMS Force                                  R      7.387002259385496E-06
RMS Density                                R      2.357158173241035E-09
Job Status                                 I                1
Nuclear derivative order                   I                1
External E-field                           R   N=          35
  0.00000000E+00  0.00000000E+00  0.00000000E+00  0.00000000E+00  0.00000000E+00
  0.00000000E+00  0.00000000E+00  0.00000000E+00  0.00000000E+00  0.00000000E+00
  0.00000000E+00  0.00000000E+00  0.00000000E+00  0.00000000E+00  0.00000000E+00
  0.00000000E+00  0.00000000E+00  0.00000000E+00  0.00000000E+00  0.00000000E+00
  0.00000000E+00  0.00000000E+00  0.00000000E+00  0.00000000E+00  0.00000000E+00
  0.00000000E+00  0.00000000E+00  0.00000000E+00  0.00000000E+00  0.00000000E+00
  0.00000000E+00  0.00000000E+00  0.00000000E+00  0.00000000E+00  0.00000000E+00
IOpCl                                      I                1
IROHF                                      I                0
Alpha Orbital Energies                     R   N=          68
 -1.08878020E+01 -1.08878002E+01 -1.00063267E+00 -9.99529256E-01 -7.47385147E-01
 -7.46804619E-01 -5.86631891E-01 -5.66350457E-01 -3.20482049E-01 -3.15612387E-01
 -1.28301497E-01 -1.08914164E-01 -9.25733555E-02 -7.28828217E-02 -6.54025412E-02
 -5.44622150E-02 -4.31639793E-02 -1.66595452E-02 -5.62218415E-03  1.39669154E-03
  2.13309480E-02  6.00165579E-02  2.71069750E-01  2.73520560E-01  2.76643817E-01
  2.80108358E-01  3.52993538E-01  3.77206062E-01  3.96117971E-01  4.14661830E-01
  4.57052735E-01  4.83332357E-01  5.04961144E-01  5.43530024E-01  8.47275167E-01
  8.47275815E-01  9.32818586E-01  9.82825126E-01  9.89344149E-01  9.90619593E-01
  1.21584251E+00  1.23791142E+00  1.30370889E+00  1.30572172E+00  1.48244330E+00
  1.49504252E+00  1.57462920E+00  1.57589187E+00  1.71922484E+00  1.71922823E+00
  1.82193668E+00  1.83735198E+00  2.17675742E+00  2.20262246E+00  2.24664119E+00
  2.28051452E+00  2.28196229E+00  2.29097616E+00  2.41341075E+00  2.41483793E+00
  2.48731877E+00  2.50596334E+00  2.66928892E+00  2.76445106E+00  3.45808814E+00
  3.46637401E+00  2.35062409E+01  2.35094780E+01
Beta Orbital Energies                      R   N=          68
 -1.08796427E+01 -1.08796309E+01 -9.78679525E-01 -9.76228670E-01 -7.37053516E-01
 -7.36329310E-01 -4.77529450E-01 -3.56191066E-01 -3.01965300E-01 -2.95707460E-01
 -1.26182666E-01 -1.09849724E-01 -9.08474678E-02 -7.07057251E-02 -6.58790841E-02
 -4.53263895E-02 -3.78867089E-02 -1.39314959E-02  9.96718937E-04  5.40718651E-03
  2.22221354E-02  6.75739971E-02  2.65366243E-01  2.74067024E-01  2.75229777E-01
  2.80995529E-01  3.74382831E-01  3.79075288E-01  4.01036849E-01  4.29980088E-01
  4.72870430E-01  4.96103606E-01  5.17625476E-01  5.61124665E-01  8.63179591E-01
  8.63186555E-01  9.60786035E-01  1.01011376E+00  1.01105723E+00  1.01245939E+00
  1.22929838E+00  1.25261197E+00  1.31754248E+00  1.32037394E+00  1.49597946E+00
  1.50901052E+00  1.58124008E+00  1.58280777E+00  1.72810852E+00  1.72813740E+00
  1.83701925E+00  1.85224380E+00  2.19228136E+00  2.21842635E+00  2.26778236E+00
  2.30410779E+00  2.31664786E+00  2.32606993E+00  2.43153667E+00  2.43278715E+00
  2.50337058E+00  2.52259331E+00  2.71398329E+00  2.80790515E+00  3.49480960E+00
  3.50279959E+00  2.35127388E+01  2.35159839E+01
Alpha MO coefficients                      R   N=        4624
 -3.98491720E-01 -3.27774892E-01  5.02219083E-04 -1.39428007E-08  8.23929095E-13
 -7.95236576E-03  1.33396274E-03 -4.21175804E-08  1.19209388E-11  2.59453631E-03
 -6.03378236E-06  5.87120716E-09 -1.16143275E-12  1.77203822E-04 -6.52013039E-04
  1.30832525E-08 -2.82396174E-12  7.98158831E-04 -5.68579730E-12  1.80002279E-13
  6.44396824E-04 -3.70533698E-08  3.99388295E-01  3.28512369E-01  5.03279791E-04
 -1.39768212E-08  7.78425904E-13  7.97020902E-03  1.33720448E-03 -4.22032726E-08
  9.58912012E-12 -2.60035863E-03 -6.38284357E-06  5.84607954E-09 -9.66956451E-13
 -1.78497943E-04 -6.52996095E-04  1.30612523E-08 -2.07021844E-12 -7.99946353E-04
  4.58622885E-12  1.80854391E-13 -6.45864953E-04  3.71353429E-08 -2.20353789E-04
  2.11526625E-03 -1.61276432E-03  7.17696074E-04  1.15486153E-03  5.27338186E-12
 -2.20352244E-04  2.11526574E-03 -1.61277038E-03  7.17628964E-04 -1.15490454E-03
  5.42876706E-12  2.20828158E-04 -2.11996993E-03  1.61650167E-03  7.19345417E-04
  1.15746871E-03  4.39961037E-12  2.20826608E-04 -2.11996940E-03  1.61650757E-03
  7.19278163E-04 -1.15751182E-03  4.24380983E-12  3.99388777E-01  3.28517061E-01
 -4.72572401E-04  1.51509890E-08 -8.56957696E-13  7.94817069E-03 -1.44380941E-03
  3.82492709E-08 -1.19489323E-11 -2.59367962E-03  1.55316276E-04  1.11673768E-08
  1.18130846E-12 -5.75946296E-04  4.38158642E-04  9.74843934E-09  3.98588851E-12
 -7.96193437E-04  5.70147963E-12 -1.81470415E-13 -6.53877047E-04  3.64787455E-08
  3.98492203E-01  3.27779595E-01  4.71442445E-04 -1.51196211E-08  8.13329598E-13
  7.93027930E-03  1.44080817E-03 -3.81543610E-08  9.52577928E-12 -2.58784200E-03
 -1.55302360E-04 -1.11805549E-08 -8.71385475E-13 -5.75546971E-04 -4.36692117E-04
 -9.77783789E-09 -3.45644158E-12 -7.94397841E-04  4.60283630E-12  1.80236495E-13
 -6.52427433E-04  3.63954646E-08  2.11356122E-04 -2.09509865E-03  1.66468118E-03
 -7.34648391E-04 -1.16128380E-03 -5.36544868E-12  2.11353731E-04 -2.09509287E-03
  1.66461567E-03 -7.34583993E-04  1.16132759E-03 -5.52305910E-12  2.10860295E-04
 -2.09034007E-03  1.66105275E-03  7.33033715E-04  1.15868570E-03  4.46555651E-12
  2.10857908E-04 -2.09033429E-03  1.66098722E-03  7.32969467E-04 -1.15872939E-03
  4.30840319E-12 -7.95060903E-02 -1.28973543E-01 -3.33708217E-02  9.81441653E-07
 -2.50172472E-10  3.64892398E-01 -4.78731779E-02  1.42173304E-06 -3.44135107E-10
  2.32574880E-01 -1.91641729E-02  4.80395405E-07 -1.43547527E-10  2.30732763E-03
 -3.16900512E-03 -9.04292555E-08 -4.19421225E-11 -5.24508723E-03  4.74544168E-11
 -8.84579343E-13 -3.49876879E-03  1.97218145E-07 -7.95077028E-02 -1.28976158E-01
  3.33715141E-02 -9.81459456E-07  1.99792319E-10  3.64899793E-01  4.78741971E-02
 -1.42175961E-06  2.74800071E-10  2.32579600E-01  1.91645508E-02 -4.80403359E-07
  1.10051562E-10  2.30714549E-03  3.16918427E-03  9.04291914E-08  3.90355282E-11
 -5.24519220E-03  3.91762916E-11  8.70361320E-13 -3.49884775E-03  1.97222729E-07
  7.72775789E-02  9.19259422E-02 -5.26065011E-03  5.55522133E-03  1.32095562E-02
  4.22507562E-11  7.72776125E-02  9.19258387E-02 -5.26009960E-03  5.55446655E-03
 -1.32098651E-02  4.42343665E-11  7.72791563E-02  9.19278107E-02 -5.26071169E-03
 -5.55533223E-03 -1.32098232E-02 -3.57526072E-11  7.72791899E-02  9.19277073E-02
 -5.26016118E-03 -5.55457743E-03  1.32101321E-02 -3.38156849E-11 -7.95281793E-02
 -1.29004413E-01 -3.41274768E-02  9.84025007E-07 -2.52889668E-10  3.64906441E-01
 -5.03282287E-02  1.43545237E-06 -3.49495683E-10  2.33287996E-01 -1.87102377E-02
  4.32694253E-07 -1.44945628E-10 -9.03745290E-03 -8.88045705E-03  3.86071619E-09
 -1.29736355E-11 -5.16358505E-03  4.85498557E-11 -8.95902587E-13 -3.84992521E-03
  2.07756510E-07  7.95265682E-02  1.29001799E-01 -3.41268013E-02  9.84002952E-07
 -2.02097303E-10 -3.64899045E-01 -5.03272577E-02  1.43542099E-06 -2.78616239E-10
 -2.33283273E-01 -1.87098482E-02  4.32683656E-07 -1.14198662E-10  9.03749995E-03
 -8.88039254E-03  3.86247747E-09 -6.10594410E-12  5.16347905E-03 -4.00251035E-11
 -8.82195736E-13  3.84985527E-03 -2.07752902E-07  7.76653579E-02  9.21473357E-02
 -2.97199450E-03  5.49792761E-03  1.31500415E-02  4.14430231E-11  7.76653599E-02
  9.21472785E-02 -2.97158579E-03  5.49717174E-03 -1.31503453E-02  4.34168139E-11
 -7.76637948E-02 -9.21454732E-02  2.97188881E-03  5.49781447E-03  1.31497742E-02
  3.50770311E-11 -7.76637968E-02 -9.21454160E-02  2.97148011E-03  5.49705861E-03
 -1.31500780E-02  3.31499485E-11  2.82513264E-09  7.16707122E-09  4.46244177E-06
  1.59036814E-01 -1.20241340E-11 -1.28167609E-08  6.54461953E-06  2.36119279E-01
 -1.75545073E-11 -3.38355495E-07  3.39934072E-06  1.17982847E-01 -9.32942752E-12
  3.24313107E-07  1.49973924E-07 -2.16952774E-03  9.69464597E-13  8.99832326E-09
  1.66253914E-12 -1.71978887E-10 -1.41845975E-06 -2.44453701E-02 -2.82389161E-09
 -7.16491311E-09  4.46267709E-06  1.59044776E-01  1.20142223E-11  1.28082781E-08
  6.54497280E-06  2.36131053E-01  1.75552988E-11  3.38355709E-07  3.39951012E-06
  1.17988836E-01  9.33926463E-12 -3.24313190E-07  1.49979674E-07 -2.16949864E-03
 -9.74683763E-13 -8.99903236E-09  1.68052145E-12  1.37917647E-10  1.41853011E-06
  2.44466054E-02 -1.05191723E-01 -1.49141456E-01 -3.56117234E-02 -8.35441096E-03
 -7.59425037E-03 -6.04484850E-11  1.05191792E-01  1.49141636E-01  3.56118263E-02
  8.35396086E-03 -7.59474566E-03  6.14870928E-11  1.05196986E-01  1.49148939E-01
  3.56132918E-02 -8.35482563E-03 -7.59463071E-03 -4.99642357E-11 -1.05197055E-01
 -1.49149118E-01 -3.56133947E-02  8.35437551E-03 -7.59512602E-03  4.88543021E-11
 -7.11459392E-09 -1.33653032E-08  4.69444906E-06  1.59361046E-01 -1.20709190E-11
  7.95751972E-08  7.05897528E-06  2.35773569E-01 -1.76399876E-11 -1.27852488E-07
  3.39658727E-06  1.20056893E-01 -9.47029668E-12 -5.38432291E-09  1.17243289E-07
  5.90631516E-04  5.52288587E-13  1.21545470E-08  1.64923638E-12 -1.72599619E-10
 -1.41229382E-06 -2.47547101E-02 -7.11563427E-09 -1.33671748E-08 -4.69422707E-06
 -1.59353108E-01 -1.20634305E-11  7.95804300E-08 -7.05864915E-06 -2.35761779E-01
 -1.76405847E-11 -1.27829457E-07 -3.39641727E-06 -1.20050995E-01 -9.47793902E-12
 -5.40037821E-09 -1.17235581E-07 -5.90739612E-04  5.53808519E-13  1.21542060E-08
 -1.66687745E-12 -1.38413946E-10 -1.41222283E-06 -2.47534886E-02 -1.05340896E-01
 -1.49891966E-01 -3.15037709E-02 -8.30238694E-03 -7.60190909E-03 -6.01966898E-11
  1.05340813E-01  1.49891714E-01  3.15039023E-02  8.30197738E-03 -7.60237154E-03
  6.12334444E-11 -1.05335645E-01 -1.49884515E-01 -3.15019873E-02  8.30196983E-03
  7.60153059E-03  4.97549344E-11  1.05335562E-01  1.49884264E-01  3.15021187E-02
 -8.30156029E-03  7.60199302E-03 -4.86477288E-11 -2.94076269E-02 -4.96581553E-02
  1.86804653E-01 -5.61708576E-06  1.22963150E-09  1.59335144E-01  2.83500422E-01
 -8.41068578E-06  1.85364494E-09  1.88944802E-01  2.20908447E-01 -6.81886674E-06
  1.42595987E-09  9.50575638E-03  1.05081300E-02 -7.03268228E-07  7.47620361E-11
  1.16892792E-02 -1.65035512E-10  9.44355932E-13 -4.09486635E-03  3.14043391E-07
 -2.94076393E-02 -4.96581764E-02 -1.86804737E-01  5.61708829E-06 -1.00510354E-09
  1.59335214E-01 -2.83500548E-01  8.41069004E-06 -1.51547732E-09  1.88944881E-01
 -2.20908547E-01  6.81887036E-06 -1.17037056E-09  9.50576345E-03 -1.05081351E-02
  7.03268303E-07 -6.95322571E-11  1.16892844E-02 -1.32215008E-10 -9.27796674E-13
 -4.09486840E-03  3.14043392E-07 -4.73789220E-02 -7.69950084E-02 -2.57895479E-02
  7.79667616E-03 -9.00916174E-03  4.67776365E-11 -4.73791870E-02 -7.69954782E-02
 -2.57885532E-02  7.79720590E-03  9.00871952E-03  4.55000802E-11 -4.73789394E-02
 -7.69950337E-02 -2.57895563E-02 -7.79668080E-03  9.00916537E-03 -3.71064494E-11
 -4.73792044E-02 -7.69955035E-02 -2.57885616E-02 -7.79721055E-03 -9.00872316E-03
 -3.83495382E-11 -3.31708789E-02 -5.60196230E-02  1.95492546E-01 -5.44863231E-06
  1.37786305E-09  1.81329207E-01  2.90901245E-01 -8.24074359E-06  2.08244981E-09
  2.01253319E-01  2.38109137E-01 -6.62167189E-06  1.68753428E-09  2.67113919E-02
  1.99979577E-02 -8.84158709E-08  6.65723357E-11  1.37720778E-02 -1.75113782E-10
  1.00323055E-12 -6.56003324E-03  2.16901670E-07  3.31708656E-02  5.60196007E-02
  1.95492473E-01 -5.44863021E-06  1.12944394E-09 -1.81329137E-01  2.90901136E-01
 -8.24074092E-06  1.70694864E-09 -2.01253237E-01  2.38109049E-01 -6.62166985E-06
  1.39545486E-09 -2.67113872E-02  1.99979516E-02 -8.84156354E-08  4.75119892E-11
 -1.37720725E-02  1.39188307E-10  9.87331605E-13  6.56003106E-03 -2.16901454E-07
 -4.77915446E-02 -7.53880890E-02 -3.05162901E-02  8.41043086E-03 -9.12603734E-03
  5.65245236E-11 -4.77911864E-02 -7.53873319E-02 -3.05170640E-02  8.41094693E-03
  9.12554010E-03  5.52427547E-11  4.77915229E-02  7.53880516E-02  3.05162763E-02
  8.41042894E-03 -9.12603364E-03  4.51344902E-11  4.77911647E-02  7.53872946E-02
  3.05170503E-02  8.41094501E-03  9.12553641E-03  4.63799623E-11  9.65501471E-12
  1.75632318E-11 -1.41698954E-09  1.39169609E-11  1.83351975E-01 -8.88557774E-11
 -2.24501851E-09  2.23224630E-11  2.93559036E-01  8.15437273E-11 -2.30037991E-09
  2.56440979E-11  3.14064530E-01 -8.22637808E-10 -9.12151478E-10  1.62016161E-11
  6.87077341E-02 -1.08028519E-10 -8.10232320E-03  2.41876531E-07  8.58259146E-11
 -1.20806496E-12 -2.32888205E-11 -4.04952977E-11 -1.19858191E-09 -1.38380687E-11
  1.83352352E-01  1.64648005E-10 -1.88688581E-09 -2.21932866E-11  2.93559643E-01
 -3.93054156E-12 -1.93802185E-09 -2.55229675E-11  3.14065167E-01  7.73286792E-10
 -8.20411599E-10 -1.61703530E-11  6.87078853E-02  9.25409788E-11  8.10234232E-03
 -2.41876861E-07 -7.53023177E-11 -1.20106873E-12 -1.07704161E-11 -4.06021522E-11
  1.79164098E-10 -1.24854361E-10  5.63690326E-12  1.59131515E-02 -1.10419301E-11
 -3.72709492E-11  1.58639427E-10 -1.25128108E-10 -2.73911636E-12  1.59131566E-02
 -2.08666259E-12  2.02369347E-11 -1.47884156E-10 -1.05016306E-10  3.25301644E-12
  1.59131853E-02 -2.33670610E-12  2.35498585E-11 -1.68419016E-10 -1.04741018E-10
 -6.13788247E-12  1.59131904E-02 -4.97506893E-11 -8.38815391E-11 -1.21508286E-09
  1.38396971E-11  1.87421951E-01  2.65205392E-10 -1.98790596E-09  2.30750467E-11
  3.00788762E-01  3.93565594E-10 -2.05093628E-09  2.54048063E-11  3.17890579E-01
 -1.51393208E-10 -5.46151579E-10  9.51935076E-12  7.80940691E-02 -7.78963959E-11
 -9.73682742E-03  2.46219749E-07  5.78275763E-11 -1.25861479E-12 -4.75284652E-11
 -8.04460324E-11  9.52492932E-10  1.37693717E-11 -1.87421584E-01  2.59869096E-10
  1.57224321E-09  2.29651461E-11 -3.00788175E-01  3.51588517E-10  1.61292980E-09