Title Card Required                                                     
FOpt      UM062X                                                      6-311+G(d,p)        
Number of atoms                            I                4
Info1-9                                    I   N=           9
          14          14           0           0           0         110
           2          18        -502
Full Title                                 C   N=           2
Title Card Required     
Route                                      C   N=           8
#p opt UM062X/6-311+G** nosymm int=superfine SCF=(MaxCycle=2
00,NoVarAcc,noincfock) guess=read   
Charge                                     I                0
Multiplicity                               I                1
Number of electrons                        I               26
Number of alpha electrons                  I               13
Number of beta electrons                   I               13
Number of basis functions                  I               64
Number of independent functions            I               64
Number of point charges in /Mol/           I                0
Number of translation vectors              I                0
Atomic numbers                             I   N=           4
           8          16           1           1
Nuclear charges                            R   N=           4
  8.00000000E+00  1.60000000E+01  1.00000000E+00  1.00000000E+00
Current cartesian coordinates              R   N=          12
 -3.23333463E+00  0.00000000E+00  0.00000000E+00  3.23333463E+00  0.00000000E+00
  0.00000000E+00 -3.17193246E+00 -1.60825404E+00 -8.77713227E-01  2.79071155E+00
  1.74486342E+00  1.79908228E+00
Number of symbols in /Mol/                 I                0
Force Field                                I                0
Atom Types                                 C   N=           4
                                                
Int Atom Types                             I   N=           4
           0           0           0           0
MM charges                                 R   N=           4
  0.00000000E+00  0.00000000E+00  0.00000000E+00  0.00000000E+00
Integer atomic weights                     I   N=           4
          16          32           1           1
Real atomic weights                        R   N=           4
  1.59949146E+01  3.19720718E+01  1.00782504E+00  1.00782504E+00
Atom fragment info                         I   N=           4
           0           0           0           0
Atom residue num                           I   N=           4
           0           0           0           0
Nuclear spins                              I   N=           4
           0           0           1           1
Nuclear ZEff                               R   N=           4
 -5.60000000E+00 -1.36000000E+01 -1.00000000E+00 -1.00000000E+00
Nuclear ZNuc                               R   N=           4
  8.00000000E+00  1.60000000E+01  1.00000000E+00  1.00000000E+00
Nuclear QMom                               R   N=           4
  0.00000000E+00  0.00000000E+00  0.00000000E+00  0.00000000E+00
Nuclear GFac                               R   N=           4
  0.00000000E+00  0.00000000E+00  2.79284600E+00  2.79284600E+00
MicOpt                                     I   N=           4
          -2          -2          -1          -1
Number of residues                         I                0
Number of secondary structures             I                0
Redundant internal dimensions              I   N=           4
          12          10           2           0
Redundant internal coordinate indices      I   N=          48
           1          -1           0           0           1          -2
           0           0           1          -3           0           0
           2          -1           0           0           2          -2
           0           0           2          -3           0           0
           1           3           0           0           1           4
           0           0           2           3           0           0
           2           4           0           0           3           1
           4           0           3           2           4           0
Redundant internal coordinates             R   N=          12
 -3.23333463E+00  0.00000000E+00  0.00000000E+00  3.23333463E+00  0.00000000E+00
  0.00000000E+00  1.83320261E+00  6.52459790E+00  6.66215491E+00  2.54502664E+00
  1.91315302E+00  1.66234911E+00
ZRed-IntVec                                I   N=          12
          -1          -1          -1          -1          -1          -1
           0           0           0           0           0           0
ZRed-FPVec                                 R   N=          12
  0.00000000E+00  0.00000000E+00  0.00000000E+00  0.00000000E+00  0.00000000E+00
  0.00000000E+00  0.00000000E+00  0.00000000E+00  0.00000000E+00  0.00000000E+00
  0.00000000E+00  0.00000000E+00
ZRed-Constraint1                           R   N=          12
 -3.23333463E+00  0.00000000E+00  0.00000000E+00  3.23333463E+00  0.00000000E+00
  0.00000000E+00  1.83460578E+00  6.49441749E+00  6.71810606E+00  2.54343858E+00
  1.92295076E+00  1.63405763E+00
ZRed-Constraint2                           R   N=          12
 -3.23333463E+00  0.00000000E+00  0.00000000E+00  3.23333463E+00  0.00000000E+00
  0.00000000E+00  0.00000000E+00  0.00000000E+00  0.00000000E+00  0.00000000E+00
  0.00000000E+00  0.00000000E+00
Number of contracted shells                I               27
Number of primitive shells                 I               49
Pure/Cartesian d shells                    I                0
Pure/Cartesian f shells                    I                0
Highest angular momentum                   I                2
Largest degree of contraction              I                6
Shell types                                I   N=          27
           0          -1          -1          -1          -1          -2
           0           0           0           0           0           0
          -1           1           1           1           1           1
          -2           0           0           0           1           0
           0           0           1
Number of primitives per shell             I   N=          27
           6           3           1           1           1           1
           6           3           1           1           1           1
           1           4           2           1           1           1
           1           3           1           1           1           3
           1           1           1
Shell to atom map                          I   N=          27
           1           1           1           1           1           1
           2           2           2           2           2           2
           2           2           2           2           2           2
           2           3           3           3           3           4
           4           4           4
Primitive exponents                        R   N=          49
  8.58850000E+03  1.29723000E+03  2.99296000E+02  8.73771000E+01  2.56789000E+01
  3.74004000E+00  4.21175000E+01  9.62837000E+00  2.85332000E+00  9.05661000E-01
  2.55611000E-01  8.45000000E-02  1.29200000E+00  9.34134000E+04  1.39617000E+04
  3.16991000E+03  9.02456000E+02  2.97158000E+02  1.08702000E+02  1.08702000E+02
  4.31553000E+01  1.81079000E+01  5.56009000E+00  2.13183000E+00  4.20403000E-01
  1.36045000E-01  4.05000000E-02  4.95040000E+02  1.17221000E+02  3.77749000E+01
  1.40584000E+01  5.56574000E+00  2.26297000E+00  8.07994000E-01  2.77460000E-01
  7.71410000E-02  6.50000000E-01  3.38650000E+01  5.09479000E+00  1.15879000E+00
  3.25840000E-01  1.02741000E-01  7.50000000E-01  3.38650000E+01  5.09479000E+00
  1.15879000E+00  3.25840000E-01  1.02741000E-01  7.50000000E-01
Contraction coefficients                   R   N=          49
  1.89515008E-03  1.43859006E-02  7.07320031E-02  2.40001011E-01  5.94797026E-01
  2.80802012E-01  1.13889012E-01  9.20811101E-01 -3.27447036E-03  1.00000000E+00
  1.00000000E+00  1.00000000E+00  1.00000000E+00  7.42999957E-04  5.79299966E-03
  2.99539983E-02  1.19027993E-01  3.68431979E-01  5.77298966E-01  1.43186060E-01
  6.24465262E-01  2.83366119E-01  1.00000000E+00  1.00000000E+00  1.00000000E+00
  1.00000000E+00  1.00000000E+00  8.30900251E-03  6.40240194E-02  2.77614084E-01
  7.45076225E-01  6.13711672E-01  4.43817763E-01  1.00000000E+00  1.00000000E+00
  1.00000000E+00  1.00000000E+00  2.54938145E-02  1.90373109E-01  8.52161486E-01
  1.00000000E+00  1.00000000E+00  1.00000000E+00  2.54938145E-02  1.90373109E-01
  8.52161486E-01  1.00000000E+00  1.00000000E+00  1.00000000E+00
P(S=P) Contraction coefficients            R   N=          49
  0.00000000E+00  0.00000000E+00  0.00000000E+00  0.00000000E+00  0.00000000E+00
  0.00000000E+00  3.65113974E-02  2.37152983E-01  8.19701941E-01  1.00000000E+00
  1.00000000E+00  1.00000000E+00  0.00000000E+00  0.00000000E+00  0.00000000E+00
  0.00000000E+00  0.00000000E+00  0.00000000E+00  0.00000000E+00  0.00000000E+00
  0.00000000E+00  0.00000000E+00  0.00000000E+00  0.00000000E+00  0.00000000E+00
  0.00000000E+00  1.00000000E+00  0.00000000E+00  0.00000000E+00  0.00000000E+00
  0.00000000E+00  0.00000000E+00  0.00000000E+00  0.00000000E+00  0.00000000E+00
  0.00000000E+00  0.00000000E+00  0.00000000E+00  0.00000000E+00  0.00000000E+00
  0.00000000E+00  0.00000000E+00  0.00000000E+00  0.00000000E+00  0.00000000E+00
  0.00000000E+00  0.00000000E+00  0.00000000E+00  0.00000000E+00
Coordinates of each shell                  R   N=          81
 -3.23333463E+00  0.00000000E+00  0.00000000E+00 -3.23333463E+00  0.00000000E+00
  0.00000000E+00 -3.23333463E+00  0.00000000E+00  0.00000000E+00 -3.23333463E+00
  0.00000000E+00  0.00000000E+00 -3.23333463E+00  0.00000000E+00  0.00000000E+00
 -3.23333463E+00  0.00000000E+00  0.00000000E+00  3.23333463E+00  0.00000000E+00
  0.00000000E+00  3.23333463E+00  0.00000000E+00  0.00000000E+00  3.23333463E+00
  0.00000000E+00  0.00000000E+00  3.23333463E+00  0.00000000E+00  0.00000000E+00
  3.23333463E+00  0.00000000E+00  0.00000000E+00  3.23333463E+00  0.00000000E+00
  0.00000000E+00  3.23333463E+00  0.00000000E+00  0.00000000E+00  3.23333463E+00
  0.00000000E+00  0.00000000E+00  3.23333463E+00  0.00000000E+00  0.00000000E+00
  3.23333463E+00  0.00000000E+00  0.00000000E+00  3.23333463E+00  0.00000000E+00
  0.00000000E+00  3.23333463E+00  0.00000000E+00  0.00000000E+00  3.23333463E+00
  0.00000000E+00  0.00000000E+00 -3.17193246E+00 -1.60825404E+00 -8.77713227E-01
 -3.17193246E+00 -1.60825404E+00 -8.77713227E-01 -3.17193246E+00 -1.60825404E+00
 -8.77713227E-01 -3.17193246E+00 -1.60825404E+00 -8.77713227E-01  2.79071155E+00
  1.74486342E+00  1.79908228E+00  2.79071155E+00  1.74486342E+00  1.79908228E+00
  2.79071155E+00  1.74486342E+00  1.79908228E+00  2.79071155E+00  1.74486342E+00
  1.79908228E+00
Num ILSW                                   I              100
ILSW                                       I   N=         100
           1           0           0           1           2           0
           0           0           0           0        4336          -1
           7           0           0           0           2           0
           0           0           0           0           1           0
           1           1           0           0           0           0
           0           0      100000           0          -1           0
           0           0           0           0           0           0
           0           0           0           1           0           0
           0 -2000000000           1           0           0           0
           0           0           4          52           0           0
           0           0          55           0           0           0
           0           0           0           4           0           1
           0           0           0           0           0           0
           0           0           0           0           0           0
           0           0           0           0           0           0
           0           0           0           0           0           0
           0           0           0           0
Num RLSW                                   I               52
RLSW                                       R   N=          52
  1.00000000E+00  1.00000000E+00  1.00000000E+00  1.00000000E+00  5.40000000E-01
  0.00000000E+00  0.00000000E+00  1.00000000E+00  0.00000000E+00  0.00000000E+00
  0.00000000E+00  0.00000000E+00  1.00000000E+00  0.00000000E+00  0.00000000E+00
  0.00000000E+00  0.00000000E+00  1.00000000E+00  0.00000000E+00  0.00000000E+00
  0.00000000E+00  0.00000000E+00  1.00000000E+00  0.00000000E+00  0.00000000E+00
  0.00000000E+00  0.00000000E+00  1.00000000E+00  0.00000000E+00  0.00000000E+00
  0.00000000E+00  0.00000000E+00  1.00000000E+00  0.00000000E+00  0.00000000E+00
  0.00000000E+00  0.00000000E+00  0.00000000E+00  1.00000000E+00  1.00000000E+00
 -9.88773650E-01  1.00000000E+00  0.00000000E+00  0.00000000E+00  0.00000000E+00
  0.00000000E+00  0.00000000E+00  0.00000000E+00  0.00000000E+00  0.00000000E+00
  0.00000000E+00  0.00000000E+00
MxBond                                     I                3
NBond                                      I   N=           4
           3           3           2           2
IBond                                      I   N=          12
           2           3           4           1           3           4
           1           2           0           1           2           0
RBond                                      R   N=          12
  1.00000000E-01  1.00000000E+00  1.00000000E-01  1.00000000E-01  1.00000000E-01
  1.00000000E+00  1.00000000E+00  1.00000000E-01  0.00000000E+00  1.00000000E-01
  1.00000000E+00  0.00000000E+00
Virial Ratio                               R      2.001714341692940E+00
SCF Energy                                 R     -4.743782817553358E+02
Total Energy                               R     -4.743782817553358E+02
S**2                                       R      7.110045885383443E-10
S**2 after annihilation                    R      1.156408302860678E-12
RMS Force                                  R      4.662895284049668E-05
RMS Density                                R      2.076725659061307E-09
Job Status                                 I                1
Nuclear derivative order                   I                1
External E-field                           R   N=          35
  0.00000000E+00  0.00000000E+00  0.00000000E+00  0.00000000E+00  0.00000000E+00
  0.00000000E+00  0.00000000E+00  0.00000000E+00  0.00000000E+00  0.00000000E+00
  0.00000000E+00  0.00000000E+00  0.00000000E+00  0.00000000E+00  0.00000000E+00
  0.00000000E+00  0.00000000E+00  0.00000000E+00  0.00000000E+00  0.00000000E+00
  0.00000000E+00  0.00000000E+00  0.00000000E+00  0.00000000E+00  0.00000000E+00
  0.00000000E+00  0.00000000E+00  0.00000000E+00  0.00000000E+00  0.00000000E+00
  0.00000000E+00  0.00000000E+00  0.00000000E+00  0.00000000E+00  0.00000000E+00
IOpCl                                      I                1
IROHF                                      I                0
Alpha Orbital Energies                     R   N=          64
 -8.99784754E+01 -1.96727749E+01 -8.34001549E+00 -6.26214286E+00 -6.25846636E+00
 -6.25279302E+00 -1.08458962E+00 -8.38350984E-01 -5.25474918E-01 -4.96991755E-01
 -3.97692892E-01 -3.57297812E-01 -3.42414573E-01 -2.23085550E-01  1.60150125E-02
  3.85058138E-02  4.70661683E-02  5.43479962E-02  6.92016927E-02  1.34661303E-01
  1.92616633E-01  1.99004459E-01  2.11127140E-01  2.55137890E-01  3.08052149E-01
  3.39884822E-01  3.44599350E-01  3.90785269E-01  5.35025485E-01  5.91838017E-01
  6.99669579E-01  7.14616567E-01  7.85702795E-01  7.99670354E-01  9.68520218E-01
  1.03966634E+00  1.08056671E+00  1.09653926E+00  1.37228954E+00  1.39324349E+00
  1.39852833E+00  1.45843177E+00  1.46550328E+00  1.64061352E+00  1.66157947E+00
  1.67895891E+00  2.05842468E+00  2.08955502E+00  2.47717020E+00  2.52919527E+00
  2.88117486E+00  2.88685659E+00  3.16503694E+00  3.18778951E+00  3.84338379E+00
  5.03435600E+00  5.04360412E+00  5.51207129E+00  7.81487334E+00  1.74057459E+01
  1.74203903E+01  1.74528205E+01  4.98702109E+01  1.89074917E+02
Beta Orbital Energies                      R   N=          64
 -8.99784754E+01 -1.96727749E+01 -8.34001550E+00 -6.26214286E+00 -6.25846636E+00
 -6.25279302E+00 -1.08458960E+00 -8.38350997E-01 -5.25474907E-01 -4.96991760E-01
 -3.97692882E-01 -3.57297735E-01 -3.42414622E-01 -2.23085538E-01  1.60150187E-02
  3.85058204E-02  4.70661570E-02  5.43479949E-02  6.92016865E-02  1.34661302E-01
  1.92616635E-01  1.99004448E-01  2.11127122E-01  2.55137901E-01  3.08052153E-01
  3.39884826E-01  3.44599335E-01  3.90785269E-01  5.35025490E-01  5.91838011E-01
  6.99669561E-01  7.14616559E-01  7.85702831E-01  7.99670290E-01  9.68520209E-01
  1.03966633E+00  1.08056673E+00  1.09653927E+00  1.37228956E+00  1.39324349E+00
  1.39852833E+00  1.45843176E+00  1.46550328E+00  1.64061351E+00  1.66157948E+00
  1.67895885E+00  2.05842469E+00  2.08955501E+00  2.47717020E+00  2.52919527E+00
  2.88117484E+00  2.88685664E+00  3.16503697E+00  3.18778952E+00  3.84338380E+00
  5.03435605E+00  5.04360411E+00  5.51207129E+00  7.81487334E+00  1.74057458E+01
  1.74203903E+01  1.74528205E+01  4.98702109E+01  1.89074917E+02
Alpha MO coefficients                      R   N=        4096
  2.18223996E-07 -9.50398868E-07  7.45181471E-07  2.78728990E-07  3.18242176E-07
  7.47702278E-06 -1.95116887E-06 -1.23889408E-06 -1.21122330E-06 -3.38148762E-05
 -8.36912764E-06  5.56847118E-06  4.25853674E-06  1.80970359E-04  4.53678065E-05
 -8.10373109E-05 -4.54458297E-05 -1.12223452E-06 -6.91593864E-07  8.67034677E-07
  7.78462081E-07 -1.35481902E-06  4.10786276E-01  6.54412197E-01  1.53470851E-02
 -4.34202133E-03  1.60265574E-03 -8.97404455E-04  1.29667006E-04 -2.47187151E-05
  1.45545124E-05  1.53224750E-05 -3.09522701E-05  5.14593348E-05  5.36324694E-05
  8.02705068E-06 -1.70588128E-05 -1.77451568E-05  2.60743579E-06 -5.13434724E-06
 -5.19884915E-06 -4.21897554E-05  1.23285085E-04  1.27121360E-04  8.06677685E-05
 -1.26613301E-04 -1.31430336E-04  2.09483411E-05 -1.78326606E-05  7.68989804E-05
 -3.16782421E-05 -1.76113976E-05 -4.00209955E-07  1.40444223E-05 -1.89321786E-04
 -5.67012792E-06 -1.37793592E-06 -4.81540441E-07  2.67332338E-05 -2.18029689E-04
  2.77224263E-04 -3.13358248E-05  1.19322137E-04  1.22864868E-04  5.52843884E-01
  4.69701991E-01  2.20444852E-04 -1.08888990E-03 -5.91792997E-04  8.02839149E-03
 -2.66825220E-05  1.06171146E-04  5.66736065E-05 -3.04437008E-03 -1.15227603E-04
 -1.50058149E-04 -8.01331606E-05  2.43180363E-03  3.34130835E-04 -3.32904455E-04
 -1.83166180E-04 -9.88534446E-06 -4.38020168E-06  9.54122670E-05 -1.05591161E-04
 -9.20606579E-06  4.77600297E-08 -7.30153286E-07  6.33270051E-06 -1.55744927E-05
  5.06240432E-05 -5.80936742E-05 -4.47136622E-04  3.10380520E-04 -1.86446236E-05
 -8.96283344E-06 -7.67487074E-07  1.87245147E-07  2.28968372E-07  1.53654720E-05
  4.42079601E-07  5.65471018E-07 -5.14698756E-05 -5.41298871E-07 -8.03807226E-07
  6.88933394E-05 -9.63925853E-08  5.74177153E-09  1.76425007E-05 -9.10777428E-05
 -1.00313521E-04  1.22586872E-05  2.23915749E-06 -1.01735283E-05 -2.25960889E-05
  2.14577971E-06  5.86678734E-05  1.28478649E-05 -1.08250384E-03  1.68666736E-05
 -3.88892191E-04 -2.11956405E-04  1.03704973E-05 -2.10843710E-05  2.61045529E-04
  4.77528702E-06 -9.49196601E-07 -1.93391449E-06 -8.45270790E-07 -3.86328500E-06
  3.08228597E-05  4.92770026E-06  3.88201989E-06  4.43641180E-05 -4.19329035E-05
 -2.11203764E-05 -1.74397432E-05 -2.84253832E-04  8.09637860E-06  3.98285246E-05
  3.60166637E-05  2.24136136E-03  5.20239537E-04 -1.06697060E-03 -5.97143117E-04
 -1.68528346E-05 -8.97260877E-06  1.59977216E-05  8.20574015E-06 -1.68572040E-05
 -1.19758438E-01 -3.20470806E-01  5.15949345E-01  5.99053250E-01  4.28314652E-02
 -1.48698542E-02  2.36023835E-03 -3.82739503E-04  1.66746166E-04  1.76712248E-04
 -8.03804176E-04  1.27242505E-03  1.32958904E-03 -1.85318589E-03  2.87861183E-03
  3.00693200E-03 -1.66239638E-04  2.48122653E-04  2.63995074E-04 -4.54215254E-04
  1.32974713E-03  1.37140232E-03  1.03799211E-03 -1.59708568E-03 -1.65922330E-03
  9.92657239E-06 -1.11608752E-04  1.13457908E-03  5.46590144E-05 -1.27688367E-04
 -9.73589388E-06  1.22259047E-04 -2.48942243E-03 -7.60982477E-05 -3.47369792E-05
 -1.61268504E-05  1.59731559E-04 -2.06425377E-03  3.52882603E-03 -3.03060484E-04
  1.13324103E-03  1.16674586E-03  2.77179437E-06  1.39762071E-05  1.52540451E-05
  1.22482616E-06 -2.69282799E-07 -1.36170639E-04 -9.41478056E-05 -4.68840663E-06
  1.55360963E-06  3.18314974E-04  2.55113960E-04 -8.23464844E-05 -5.53959919E-05
  9.71917175E-05  1.99391511E-04 -9.56555103E-05 -4.00007636E-05 -1.77942323E-05
 -9.03029696E-07  1.73721475E-05  8.84256722E-06 -8.94827941E-07 -1.52020070E-04
 -4.17742953E-04  7.89095000E-04  5.83668358E-04  1.01527725E-04 -4.17939168E-05
 -1.20587877E-04 -2.46382679E-03 -3.24093736E-04 -3.69090997E-04  3.69991796E-01
  5.34921077E-02  6.11267224E-02  6.92503727E-01  1.00101420E-01  1.14392497E-01
  5.36982444E-02  7.75219872E-03  8.85749033E-03 -7.51444779E-03 -1.04050239E-03
 -1.19021874E-03  4.69319974E-03  5.77117416E-04  6.60740313E-04  1.31637246E-04
  3.36596393E-04  1.14464258E-04 -2.08054812E-04  3.22055307E-04 -3.65618049E-05
 -7.85132266E-05 -2.89034609E-04  5.81213814E-06 -2.90876071E-05 -1.49743135E-05
  1.68189003E-05 -4.17501943E-06  6.71418087E-05  6.26480666E-05  4.07798458E-05
  4.31327129E-05 -5.64048879E-07 -2.32016138E-06 -3.84858735E-06 -6.37706715E-06
 -6.07739323E-06  2.10688403E-05  2.82734950E-05  2.98736135E-05  2.75012536E-05
 -4.51553966E-05 -8.63721934E-05 -5.19047995E-05 -5.66179203E-05 -1.56819833E-04
 -3.88134020E-05  1.12203819E-04  9.15737687E-05  3.65851532E-06 -1.03135756E-06
 -2.14457493E-06 -2.33821315E-06  1.19141886E-06  7.72086412E-04  2.08913399E-03
 -3.69717937E-03 -3.74644011E-03  6.78062411E-04  3.36361033E-04  4.88901895E-04
  4.14484364E-04 -1.37624791E-03 -1.41375679E-03 -8.12395481E-02  2.58519625E-01
  2.65639358E-01 -1.51793594E-01  4.82957435E-01  4.96257551E-01 -1.15435774E-02
  3.66951099E-02  3.77064981E-02  1.53830687E-03 -4.76565597E-03 -4.89569823E-03
 -9.98895749E-04  3.01677826E-03  3.10057614E-03  1.53135862E-04 -2.30392922E-04
  6.16547516E-04 -2.20039293E-04 -2.23169173E-04 -7.80496432E-06  1.57287171E-05
  1.17142751E-04  2.32421637E-05  1.29848232E-05  8.70959477E-06  5.56687299E-04
  9.86448181E-05 -1.15060763E-03 -9.32040978E-05  4.48342757E-04  4.61288709E-04
  4.38800019E-08  2.94620275E-07  1.81389341E-07 -5.04265977E-06  4.53264571E-06
 -2.62915381E-06 -1.03226534E-06  2.26588490E-05 -1.94029491E-05  9.18529489E-07
 -7.49683771E-07 -5.10157911E-05  4.87428560E-05  1.21314446E-05  3.22870571E-06
  4.62480290E-05 -5.37176510E-05 -1.42152961E-06  4.40064232E-06 -8.03902880E-07
 -7.01635306E-07 -2.27066350E-06 -7.80026285E-06 -2.11274881E-05  3.75647842E-05
  3.70814543E-05 -6.49408874E-06  1.52083427E-06 -3.61222389E-06 -2.61552507E-05
 -1.53754813E-03  1.48829739E-03  4.21448879E-03  2.73147943E-01 -2.64537711E-01
  7.85831447E-03  5.09406705E-01 -4.93349154E-01  5.77140414E-04  3.72975917E-02
 -3.61227929E-02 -7.96681313E-05 -5.01376050E-03  4.85643529E-03  5.05043507E-05
  2.89891747E-03 -2.80818180E-03 -3.61282770E-04  1.14251935E-04  1.71976886E-05
 -2.09040382E-04 -1.11194651E-04 -5.06255618E-06  4.25836055E-06 -1.53010359E-05
  7.48648644E-06  6.93258219E-06 -5.36258766E-06 -6.67485693E-07 -1.90677111E-06
  3.30943665E-06  8.51757837E-07  6.84660109E-05 -6.60023659E-05 -1.18706729E-01
 -1.95639513E-01  1.89250182E-03 -4.15772068E-02 -2.26049594E-02  5.74977856E-01
  3.33728623E-03 -6.66028103E-02 -3.62151252E-02  4.18908883E-01  3.39486597E-03
 -2.48495211E-02 -1.33407572E-02 -1.97034260E-02 -4.90135122E-03  5.38110802E-03
  2.96875263E-03 -4.96215987E-03 -3.54457499E-04  9.23682215E-03 -3.28489325E-03
 -4.31665295E-04  3.29161922E-04  9.38648616E-04 -1.99633272E-03 -3.39027053E-03
  4.58655442E-03  6.96865344E-03  7.65156391E-03 -4.42354241E-03 -9.24485502E-05
 -1.03307797E-04  7.82005577E-04  1.27676265E-05  1.47779678E-05  1.39967992E-03
  2.40663150E-05  2.85882244E-05 -1.23403980E-03 -9.75800736E-05 -1.09764531E-04
 -6.10513175E-03  6.42776578E-05  3.80801033E-05 -3.13668227E-03  1.73335625E-03
  1.90894330E-03 -6.11806301E-04 -8.44036893E-05  3.79412378E-04  1.07769509E-03
 -6.83517572E-05  1.10542789E-01  8.95492646E-02  1.70191745E-02 -9.78236886E-04
  2.29563840E-02  1.25139791E-02  7.22572839E-04  7.27660076E-05 -4.59237247E-03
 -3.82472737E-05  3.01390718E-05  2.98162436E-05  1.76774743E-03  2.94897286E-03
  4.65835829E-03  1.40074652E-03  7.61877774E-04 -9.35536856E-03  7.27854481E-03
  2.13712780E-03  1.17202025E-03 -4.13607475E-03  6.98491041E-03  7.52942929E-04
  3.31112587E-04 -9.53971374E-03 -1.61617774E-03  4.60557148E-03  2.60725074E-03
 -1.47927342E-04 -9.83225978E-05 -1.76201033E-04  4.84768197E-04 -1.76638804E-04
  3.34251348E-02  9.49791402E-02 -1.99317551E-01 -3.69010585E-01  6.69553978E-01
  4.07351159E-01 -1.02961256E-02  1.85651623E-04  1.11177118E-03  8.36788361E-04
  2.17352805E-03 -1.16399292E-02 -1.21070094E-02  4.43371719E-03 -2.32667533E-02
 -2.41946665E-02 -6.67287533E-03  3.25021722E-02  3.37443360E-02 -4.49142020E-03
  4.31147121E-02  4.51187209E-02 -1.40821954E-03  5.77244695E-03  6.80847968E-03
  1.10316944E-03 -2.47838467E-03  2.39085801E-02 -3.92845057E-04 -2.60535868E-03
 -2.27432246E-03 -3.00683392E-03  1.10171838E-02  9.36969817E-04 -4.80723109E-04
 -2.68028176E-04  1.01065434E-01  1.33728361E-01  1.95998007E-03  5.06454851E-03
 -1.61842010E-02 -1.66641648E-02 -3.92909200E-02 -6.57940526E-02 -7.83255888E-03
  2.20505135E-01  1.20735309E-01  2.00749311E-01 -1.13007521E-02  3.17568366E-01
  1.73888375E-01  2.86243847E-01 -6.12607079E-03  2.12636429E-01  1.16664059E-01
  6.01748530E-02 -1.42926128E-03  2.24271058E-02  1.25509949E-02  1.90844626E-03
  8.57597629E-04 -1.31839953E-02  1.37266909E-02  1.62148759E-03 -8.77215815E-04
 -2.50116172E-03  5.33110020E-03  9.96393527E-03 -1.92961071E-02 -1.73516232E-02
 -1.35284816E-03  1.66429106E-03 -7.21788778E-04 -7.75536411E-04  1.77820863E-03
 -3.27656930E-03 -2.90950939E-03  3.42295724E-03 -6.36117999E-03 -5.65403632E-03
 -4.65927920E-03  9.10325763E-03  8.09196338E-03 -9.98604471E-03  1.64459538E-02
  1.44778791E-02 -5.84017647E-03  6.17249115E-03  4.38205613E-03  4.76090270E-04
 -1.14386723E-03  2.15789720E-03 -7.16305673E-04 -1.43914877E-03 -1.65867391E-01
 -2.59210639E-01 -8.12548504E-02  5.12183006E-04 -2.61918048E-02 -1.42992842E-02
  8.38862700E-03  1.26333982E-02  8.84387595E-03 -2.52257968E-04 -8.18155695E-04
 -9.10912100E-04 -2.15638096E-03 -3.61514255E-03  3.47101274E-03  1.53089324E-02
  6.45055594E-03  1.10051912E-02  5.60606728E-03  2.21009864E-02  9.23220924E-03
  1.64193467E-02  4.43206231E-03  1.52669263E-02  6.04443470E-03  7.72980087E-03
  4.32196407E-03 -6.88220086E-04 -1.25991645E-03  1.01513037E-04 -1.89229806E-04
 -8.52954371E-04  1.10185078E-03 -1.99830931E-04  1.21577137E-02  3.47341092E-02
 -7.46569819E-02 -1.36502249E-01  2.50867377E-01  2.97649898E-01  2.43537796E-02
 -4.55828686E-03  1.68866957E-02  1.72006678E-02 -1.45851430E-02  5.68530727E-02
  5.84628770E-02 -2.84082647E-02  1.10697568E-01  1.13835352E-01  4.15041448E-02
 -1.61181140E-01 -1.65792046E-01  7.28609217E-02 -2.82228746E-01 -2.90037810E-01
  1.98509956E-02 -7.61199063E-02 -7.76062982E-02 -1.54378878E-02  1.15547556E-02
 -4.12220881E-02  2.38803873E-02  1.10673963E-02 -1.08080001E-02 -1.76078403E-02
 -7.67358959E-03  1.00857278E-03 -1.64501016E-03 -1.13570069E-03 -1.57414452E-01
 -2.84750224E-01 -1.31806383E-01 -6.31971620E-03  1.81946487E-02  1.86603144E-02
  1.13964390E-04  1.91619773E-04  4.24583314E-03 -1.45813850E-01  2.67170560E-01
 -6.39974241E-04  6.26046129E-03 -2.13760561E-01  3.91665511E-01 -7.20205843E-04
  5.64204987E-03 -1.92804102E-01  3.53101817E-01  1.65487267E-03  1.59932002E-03
 -4.22044665E-02  7.67573792E-02 -1.04753766E-02  1.02258427E-03 -7.84016270E-03
 -6.05977712E-03 -7.98301395E-04  6.07298437E-05  1.74597853E-04 -3.85085822E-04
 -6.57264765E-04  1.06268785E-03  2.41362144E-03  1.30777227E-03 -2.08820260E-04
  1.57763919E-03 -3.76100765E-05  1.16318468E-04  5.10299413E-03 -3.91409603E-03
  2.23135199E-04  9.83593118E-03 -7.51822958E-03 -2.93540051E-04 -1.43675810E-02
  1.09002203E-02 -7.54037806E-04 -2.91273393E-02  2.28406396E-02 -6.01380575E-04
 -1.46045374E-02  1.39835485E-02  6.48651305E-04 -1.12219107E-03 -5.09903801E-04
  8.01981282E-04  7.70580120E-04  4.01518082E-05 -7.60480160E-05 -1.01780519E-03
  4.95651569E-04 -1.72617247E-02  3.15443931E-02 -1.49105943E-03 -2.41946904E-03
 -2.83321780E-03 -3.33764200E-04 -8.00384287E-04  1.10572220E-03  2.10556381E-05
  3.58538741E-05 -5.52746914E-03 -1.27206331E-02  1.93055085E-02 -1.10462043E-04
 -8.36311540E-03 -1.84920984E-02  2.81269353E-02 -1.34407428E-04 -7.62176062E-03
 -1.72385288E-02  2.66270585E-02 -2.05345716E-03 -2.21699288E-03 -1.83277903E-03
  5.63346773E-03 -7.76420994E-04 -2.22707509E-05 -4.80361709E-04 -6.50401340E-04
  4.55841860E-04  1.03280584E-04  2.93235632E-04 -6.14791048E-04 -1.25695905E-03
  3.02426528E-03  7.44741875E-04 -3.07471471E-03 -1.43016701E-03 -4.31383198E-02
  4.19542628E-02 -3.07875707E-03 -7.43068248E-02  7.15939807E-02 -5.94738657E-03
 -1.43132848E-01  1.37899322E-01  8.47765384E-03  2.10901939E-01 -2.03231032E-01
  1.80760871E-02  4.34211966E-01 -4.18481112E-01  1.11802761E-02  2.38798160E-01
 -2.30968029E-01 -1.41275847E-02  1.49066587E-03  8.07172477E-04 -8.33185034E-03
 -8.36217282E-04  1.07192085E-03  1.35288920E-03  2.20794549E-03 -8.99290800E-04
 -9.87791217E-04  2.32420393E-03 -1.36146538E-04 -1.19862154E-04  1.67333313E-03