 Entering Gaussian System, Link 0=g16
 Initial command:
 /home/szhao/Apps/g16/l1.exe "/home/szhao/tmp/Gau-121262.inp" -scrdir="/home/szhao/tmp/"
 Default is to use a total of  16 processors:
                               16 via shared-memory
                                1 via Linda
 Entering Link 1 = /home/szhao/Apps/g16/l1.exe PID=    121264.
  
 Copyright (c) 1988,1990,1992,1993,1995,1998,2003,2009,2016,
            Gaussian, Inc.  All Rights Reserved.
  
 This is part of the Gaussian(R) 16 program.  It is based on
 the Gaussian(R) 09 system (copyright 2009, Gaussian, Inc.),
 the Gaussian(R) 03 system (copyright 2003, Gaussian, Inc.),
 the Gaussian(R) 98 system (copyright 1998, Gaussian, Inc.),
 the Gaussian(R) 94 system (copyright 1995, Gaussian, Inc.),
 the Gaussian 92(TM) system (copyright 1992, Gaussian, Inc.),
 the Gaussian 90(TM) system (copyright 1990, Gaussian, Inc.),
 the Gaussian 88(TM) system (copyright 1988, Gaussian, Inc.),
 the Gaussian 86(TM) system (copyright 1986, Carnegie Mellon
 University), and the Gaussian 82(TM) system (copyright 1983,
 Carnegie Mellon University). Gaussian is a federally registered
 trademark of Gaussian, Inc.
  
 This software contains proprietary and confidential information,
 including trade secrets, belonging to Gaussian, Inc.
  
 This software is provided under written license and may be
 used, copied, transmitted, or stored only in accord with that
 written license.
  
 The following legend is applicable only to US Government
 contracts under FAR:
  
                    RESTRICTED RIGHTS LEGEND
  
 Use, reproduction and disclosure by the US Government is
 subject to restrictions as set forth in subparagraphs (a)
 and (c) of the Commercial Computer Software - Restricted
 Rights clause in FAR 52.227-19.
  
 Gaussian, Inc.
 340 Quinnipiac St., Bldg. 40, Wallingford CT 06492
  
  
 ---------------------------------------------------------------
 Warning -- This program may not be used in any manner that
 competes with the business of Gaussian, Inc. or will provide
 assistance to any competitor of Gaussian, Inc.  The licensee
 of this program is prohibited from giving any competitor of
 Gaussian, Inc. access to this program.  By using this program,
 the user acknowledges that Gaussian, Inc. is engaged in the
 business of creating and licensing software in the field of
 computational chemistry and represents and warrants to the
 licensee that it is not a competitor of Gaussian, Inc. and that
 it will not use this program in any manner prohibited above.
 ---------------------------------------------------------------
  

 Cite this work as:
 Gaussian 16, Revision A.03,
 M. J. Frisch, G. W. Trucks, H. B. Schlegel, G. E. Scuseria, 
 M. A. Robb, J. R. Cheeseman, G. Scalmani, V. Barone, 
 G. A. Petersson, H. Nakatsuji, X. Li, M. Caricato, A. V. Marenich, 
 J. Bloino, B. G. Janesko, R. Gomperts, B. Mennucci, H. P. Hratchian, 
 J. V. Ortiz, A. F. Izmaylov, J. L. Sonnenberg, D. Williams-Young, 
 F. Ding, F. Lipparini, F. Egidi, J. Goings, B. Peng, A. Petrone, 
 T. Henderson, D. Ranasinghe, V. G. Zakrzewski, J. Gao, N. Rega, 
 G. Zheng, W. Liang, M. Hada, M. Ehara, K. Toyota, R. Fukuda, 
 J. Hasegawa, M. Ishida, T. Nakajima, Y. Honda, O. Kitao, H. Nakai, 
 T. Vreven, K. Throssell, J. A. Montgomery, Jr., J. E. Peralta, 
 F. Ogliaro, M. J. Bearpark, J. J. Heyd, E. N. Brothers, K. N. Kudin, 
 V. N. Staroverov, T. A. Keith, R. Kobayashi, J. Normand, 
 K. Raghavachari, A. P. Rendell, J. C. Burant, S. S. Iyengar, 
 J. Tomasi, M. Cossi, J. M. Millam, M. Klene, C. Adamo, R. Cammi, 
 J. W. Ochterski, R. L. Martin, K. Morokuma, O. Farkas, 
 J. B. Foresman, and D. J. Fox, Gaussian, Inc., Wallingford CT, 2016.
 
 ******************************************
 Gaussian 16:  ES64L-G16RevA.03 25-Dec-2016
                19-Nov-2024 
 ******************************************
 %chk=opt.chk
 %mem=4GB
 %nprocshared=8
 Will use up to    8 processors via shared memory.
 --------------------------------------------
 #p opt UM062X/6-311+G** nosymm int=superfine
 --------------------------------------------
 1/18=20,19=15,26=5,38=1/1,3;
 2/9=110,12=2,15=1,17=6,18=5,40=1/2;
 3/5=4,6=6,7=111,11=2,25=1,30=1,71=1,74=-55,75=-7,116=2/1,2,3;
 4//1;
 5/5=2,38=5/2;
 6/7=2,8=2,9=2,10=2,28=1/1;
 7/30=1/1,2,3,16;
 1/18=20,19=15,26=5/3(2);
 2/9=110,15=1/2;
 99//99;
 2/9=110,15=1/2;
 3/5=4,6=6,7=111,11=2,25=1,30=1,71=1,74=-55,75=-7,116=2/1,2,3;
 4/5=5,16=3,69=1/1;
 5/5=2,38=5/2;
 7/30=1/1,2,3,16;
 1/18=20,19=15,26=5/3(-5);
 2/9=110,15=1/2;
 6/7=2,8=2,9=2,10=2,19=2,28=1/1;
 99/9=1/99;
 Leave Link    1 at Tue Nov 19 10:49:38 2024, MaxMem=   536870912 cpu:               0.3 elap:               0.0
 (Enter /home/szhao/Apps/g16/l101.exe)
 -------------------
 Title Card Required
 -------------------
 Symbolic Z-matrix:
 Charge =  1 Multiplicity = 2
 C                    -1   -0.54431   0.        0. 
 C                    -1    0.54431   0.        0. 
 H                    0    -0.97229  -0.9323    0. 
 H                    0    -0.96976   0.93666   0. 
 H                    0     0.97229   0.9323    0. 
 H                    0     0.96976  -0.93666   0. 
 
 ITRead=  2  2  0  0  0  0
 MicOpt= -2 -2 -1 -1 -1 -1
 NAtoms=      6 NQM=        4 NQMF=       2 NMMI=      0 NMMIF=      0
                NMic=       0 NMicF=      0.
                    Isotopes and Nuclear Properties:
 (Nuclear quadrupole moments (NQMom) in fm**2, nuclear magnetic moments (NMagM)
  in nuclear magnetons)

  Atom         1           2           3           4           5           6
 IAtWgt=          12          12           1           1           1           1
 AtmWgt=  12.0000000  12.0000000   1.0078250   1.0078250   1.0078250   1.0078250
 NucSpn=           0           0           1           1           1           1
 AtZEff=  -0.0000000  -0.0000000  -0.0000000  -0.0000000  -0.0000000  -0.0000000
 NQMom=    0.0000000   0.0000000   0.0000000   0.0000000   0.0000000   0.0000000
 NMagM=    0.0000000   0.0000000   2.7928460   2.7928460   2.7928460   2.7928460
 AtZNuc=   6.0000000   6.0000000   1.0000000   1.0000000   1.0000000   1.0000000
 Leave Link  101 at Tue Nov 19 10:49:39 2024, MaxMem=   536870912 cpu:               2.5 elap:               0.3
 (Enter /home/szhao/Apps/g16/l103.exe)

 GradGradGradGradGradGradGradGradGradGradGradGradGradGradGradGradGradGrad
 Berny optimization.
 Initialization pass.
                           ----------------------------
                           !    Initial Parameters    !
                           ! (Angstroms and Degrees)  !
 --------------------------                            --------------------------
 ! Name  Definition              Value          Derivative Info.                !
 --------------------------------------------------------------------------------
 ! X1    R(1,-1)                -0.5443         Frozen                          !
 ! Y1    R(1,-2)                 0.0            Frozen                          !
 ! Z1    R(1,-3)                 0.0            Frozen                          !
 ! X2    R(2,-1)                 0.5443         Frozen                          !
 ! Y2    R(2,-2)                 0.0            Frozen                          !
 ! Z2    R(2,-3)                 0.0            Frozen                          !
 ! R1    R(1,3)                  1.0258         estimate D2E/DX2                !
 ! R2    R(1,4)                  1.0288         estimate D2E/DX2                !
 ! R3    R(2,5)                  1.0258         estimate D2E/DX2                !
 ! R4    R(2,6)                  1.0288         estimate D2E/DX2                !
 ! A1    A(2,1,3)              114.6583         estimate D2E/DX2                !
 ! A2    A(2,1,4)              114.4289         estimate D2E/DX2                !
 ! A3    A(3,1,4)              130.9129         estimate D2E/DX2                !
 ! A4    A(1,2,5)              114.6583         estimate D2E/DX2                !
 ! A5    A(1,2,6)              114.4289         estimate D2E/DX2                !
 ! A6    A(5,2,6)              130.9129         estimate D2E/DX2                !
 ! D1    D(3,1,2,5)            180.0            estimate D2E/DX2                !
 ! D2    D(3,1,2,6)              0.0            estimate D2E/DX2                !
 ! D3    D(4,1,2,5)              0.0            estimate D2E/DX2                !
 ! D4    D(4,1,2,6)            180.0            estimate D2E/DX2                !
 --------------------------------------------------------------------------------
 Trust Radius=3.00D-01 FncErr=1.00D-07 GrdErr=1.00D-07 EigMax=2.50D+02 EigMin=1.00D-04
 Number of steps in this run=     30 maximum allowed number of steps=    100.
 GradGradGradGradGradGradGradGradGradGradGradGradGradGradGradGradGradGrad

 Leave Link  103 at Tue Nov 19 10:49:39 2024, MaxMem=   536870912 cpu:               0.1 elap:               0.0
 (Enter /home/szhao/Apps/g16/l202.exe)
                          Input orientation:                          
 ---------------------------------------------------------------------
 Center     Atomic      Atomic             Coordinates (Angstroms)
 Number     Number       Type             X           Y           Z
 ---------------------------------------------------------------------
      1          6           0       -0.544307    0.000000    0.000000
      2          6           0        0.544307    0.000000    0.000000
      3          1           0       -0.972293   -0.932297    0.000000
      4          1           0       -0.969763    0.936658    0.000000
      5          1           0        0.972293    0.932297    0.000000
      6          1           0        0.969763   -0.936658    0.000000
 ---------------------------------------------------------------------
                    Distance matrix (angstroms):
                    1          2          3          4          5
     1  C    0.000000
     2  C    1.088614   0.000000
     3  H    1.025841   1.780239   0.000000
     4  H    1.028757   1.780375   1.868957   0.000000
     5  H    1.780239   1.025841   2.694091   1.942060   0.000000
     6  H    1.780375   1.028757   1.942060   2.696492   1.868957
                    6
     6  H    0.000000
 Symmetry turned off by external request.
 Stoichiometry    C2H4(1+,2)
 Framework group  C2H[SGH(C2H4)]
 Deg. of freedom     5
 Full point group                 C2H     NOp   4
 Rotational constants (GHZ):         143.5596000          46.3158450          35.0181362
 Leave Link  202 at Tue Nov 19 10:49:39 2024, MaxMem=   536870912 cpu:               0.0 elap:               0.0
 (Enter /home/szhao/Apps/g16/l301.exe)
 Standard basis: 6-311+G(d,p) (5D, 7F)
 Ernie: Thresh=  0.10000D-02 Tol=  0.10000D-05 Strict=F.
    68 basis functions,   104 primitive gaussians,    70 cartesian basis functions
     8 alpha electrons        7 beta electrons
       nuclear repulsion energy        38.5001131513 Hartrees.
 IExCor= 4336 DFT=T Ex+Corr=M062X ExCW=0 ScaHFX=  0.540000
 ScaDFX=  1.000000  1.000000  1.000000  1.000000 ScalE2=  1.000000  1.000000
 IRadAn=      7 IRanWt=     -1 IRanGd=            0 ICorTp=0 IEmpDi=  4
 NAtoms=    6 NActive=    6 NUniq=    6 SFac= 1.00D+00 NAtFMM=   60 NAOKFM=F Big=F
 Integral buffers will be    131072 words long.
 Raffenetti 2 integral format.
 Two-electron integral symmetry is turned off.
 Leave Link  301 at Tue Nov 19 10:49:39 2024, MaxMem=   536870912 cpu:               0.3 elap:               0.0
 (Enter /home/szhao/Apps/g16/l302.exe)
 NPDir=0 NMtPBC=     1 NCelOv=     1 NCel=       1 NClECP=     1 NCelD=      1
         NCelK=      1 NCelE2=     1 NClLst=     1 CellRange=     0.0.
 One-electron integrals computed using PRISM.
 NBasis=    68 RedAO= T EigKep=  4.15D-05  NBF=    68
 NBsUse=    68 1.00D-06 EigRej= -1.00D+00 NBFU=    68
 Precomputing XC quadrature grid using
 IXCGrd= 4 IRadAn=           7 IRanWt=          -1 IRanGd=           0 AccXCQ= 0.00D+00.
 Generated NRdTot=       0 NPtTot=           0 NUsed=           0 NTot=          32
 NSgBfM=    70    70    70    70    70 MxSgAt=     6 MxSgA2=     6.
 Leave Link  302 at Tue Nov 19 10:49:39 2024, MaxMem=   536870912 cpu:               1.2 elap:               0.2
 (Enter /home/szhao/Apps/g16/l303.exe)
 DipDrv:  MaxL=1.
 Leave Link  303 at Tue Nov 19 10:49:39 2024, MaxMem=   536870912 cpu:               0.2 elap:               0.0
 (Enter /home/szhao/Apps/g16/l401.exe)
 ExpMin= 4.38D-02 ExpMax= 4.56D+03 ExpMxC= 6.82D+02 IAcc=3 IRadAn=         7 AccDes= 0.00D+00
 Harris functional with IExCor= 1009 and IRadAn=       7 diagonalized for initial guess.
 HarFok:  IExCor= 1009 AccDes= 0.00D+00 IRadAn=         7 IDoV= 1 UseB2=F ITyADJ=14
 ICtDFT=  3500011 ScaDFX=  1.000000  1.000000  1.000000  1.000000
 FoFCou: FMM=F IPFlag=           0 FMFlag=      100000 FMFlg1=           0
         NFxFlg=           0 DoJE=T BraDBF=F KetDBF=T FulRan=T
         wScrn=  0.000000 ICntrl=       500 IOpCl=  0 I1Cent=   200000004 NGrid=           0
         NMat0=    1 NMatS0=      1 NMatT0=    0 NMatD0=    1 NMtDS0=    0 NMtDT0=    0
 Symmetry not used in FoFCou.
 Harris En= -78.0790851693858    
 JPrj=0 DoOrth=F DoCkMO=F.
 Initial guess <Sx>= 0.0000 <Sy>= 0.0000 <Sz>= 0.5000 <S**2>= 0.7500 S= 0.5000
 Leave Link  401 at Tue Nov 19 10:49:39 2024, MaxMem=   536870912 cpu:               2.4 elap:               0.3
 (Enter /home/szhao/Apps/g16/l502.exe)
 Keep R1 and R2 ints in memory in canonical form, NReq=12681614.
 FoFCou: FMM=F IPFlag=           0 FMFlag=           0 FMFlg1=           0
         NFxFlg=           0 DoJE=F BraDBF=F KetDBF=F FulRan=T
         wScrn=  0.000000 ICntrl=       600 IOpCl=  0 I1Cent=           0 NGrid=           0
         NMat0=    1 NMatS0=   2346 NMatT0=    0 NMatD0=    1 NMtDS0=    0 NMtDT0=    0
 Symmetry not used in FoFCou.
 Two-electron integral symmetry not used.
 UHF open shell SCF:
 Using DIIS extrapolation, IDIIS=  1040.
 NGot=   536870912 LenX=   531353794 LenY=   531348453
 Requested convergence on RMS density matrix=1.00D-08 within 128 cycles.
 Requested convergence on MAX density matrix=1.00D-06.
 Requested convergence on             energy=1.00D-06.
 No special actions if energy rises.

 Cycle   1  Pass 1  IDiag  1:
 E= -77.8688529709696    
 DIIS: error= 6.31D-02 at cycle   1 NSaved=   1.
 NSaved= 1 IEnMin= 1 EnMin= -77.8688529709696     IErMin= 1 ErrMin= 6.31D-02
 ErrMax= 6.31D-02  0.00D+00 EMaxC= 1.00D-01 BMatC= 5.05D-01 BMatP= 5.05D-01
 IDIUse=3 WtCom= 3.69D-01 WtEn= 6.31D-01
 Coeff-Com:  0.100D+01
 Coeff-En:   0.100D+01
 Coeff:      0.100D+01
 Gap=     0.600 Goal=   None    Shift=    0.000
 Gap=     0.121 Goal=   None    Shift=    0.000
 GapD=    0.121 DampG=1.000 DampE=0.500 DampFc=0.5000 IDamp=-1.
 Damping current iteration by 5.00D-01
 RMSDP=4.40D-03 MaxDP=1.02D-01              OVMax= 1.40D-01

 Cycle   2  Pass 1  IDiag  1:
 E= -77.9231042906097     Delta-E=       -0.054251319640 Rises=F Damp=T
 DIIS: error= 1.39D-02 at cycle   2 NSaved=   2.
 NSaved= 2 IEnMin= 2 EnMin= -77.9231042906097     IErMin= 2 ErrMin= 1.39D-02
 ErrMax= 1.39D-02  0.00D+00 EMaxC= 1.00D-01 BMatC= 3.31D-02 BMatP= 5.05D-01
 IDIUse=3 WtCom= 8.61D-01 WtEn= 1.39D-01
 Coeff-Com: -0.274D+00 0.127D+01
 Coeff-En:   0.000D+00 0.100D+01
 Coeff:     -0.236D+00 0.124D+01
 Gap=     0.557 Goal=   None    Shift=    0.000
 Gap=     0.176 Goal=   None    Shift=    0.000
 RMSDP=8.49D-04 MaxDP=1.36D-02 DE=-5.43D-02 OVMax= 5.94D-02

 Cycle   3  Pass 1  IDiag  1:
 E= -77.9679634581613     Delta-E=       -0.044859167552 Rises=F Damp=F
 DIIS: error= 2.25D-03 at cycle   3 NSaved=   3.
 NSaved= 3 IEnMin= 3 EnMin= -77.9679634581613     IErMin= 3 ErrMin= 2.25D-03
 ErrMax= 2.25D-03  0.00D+00 EMaxC= 1.00D-01 BMatC= 2.82D-04 BMatP= 3.31D-02
 IDIUse=3 WtCom= 9.77D-01 WtEn= 2.25D-02
 Coeff-Com: -0.185D-01 0.170D-01 0.100D+01
 Coeff-En:   0.000D+00 0.000D+00 0.100D+01
 Coeff:     -0.181D-01 0.166D-01 0.100D+01
 Gap=     0.518 Goal=   None    Shift=    0.000
 Gap=     0.175 Goal=   None    Shift=    0.000
 RMSDP=1.46D-04 MaxDP=2.55D-03 DE=-4.49D-02 OVMax= 4.90D-03

 Cycle   4  Pass 1  IDiag  1:
 E= -77.9680708353071     Delta-E=       -0.000107377146 Rises=F Damp=F
 DIIS: error= 3.66D-04 at cycle   4 NSaved=   4.
 NSaved= 4 IEnMin= 4 EnMin= -77.9680708353071     IErMin= 4 ErrMin= 3.66D-04
 ErrMax= 3.66D-04  0.00D+00 EMaxC= 1.00D-01 BMatC= 1.75D-05 BMatP= 2.82D-04
 IDIUse=3 WtCom= 9.96D-01 WtEn= 3.66D-03
 Coeff-Com:  0.117D-01-0.263D-01-0.349D+00 0.136D+01
 Coeff-En:   0.000D+00 0.000D+00 0.000D+00 0.100D+01
 Coeff:      0.117D-01-0.262D-01-0.348D+00 0.136D+01
 Gap=     0.518 Goal=   None    Shift=    0.000
 Gap=     0.176 Goal=   None    Shift=    0.000
 RMSDP=5.90D-05 MaxDP=9.92D-04 DE=-1.07D-04 OVMax= 1.63D-03

 Cycle   5  Pass 1  IDiag  1:
 E= -77.9680813114330     Delta-E=       -0.000010476126 Rises=F Damp=F
 DIIS: error= 6.07D-05 at cycle   5 NSaved=   5.
 NSaved= 5 IEnMin= 5 EnMin= -77.9680813114330     IErMin= 5 ErrMin= 6.07D-05
 ErrMax= 6.07D-05  0.00D+00 EMaxC= 1.00D-01 BMatC= 3.33D-07 BMatP= 1.75D-05
 IDIUse=1 WtCom= 1.00D+00 WtEn= 0.00D+00
 Coeff-Com: -0.156D-02 0.337D-02 0.359D-01-0.233D+00 0.120D+01
 Coeff:     -0.156D-02 0.337D-02 0.359D-01-0.233D+00 0.120D+01
 Gap=     0.518 Goal=   None    Shift=    0.000
 Gap=     0.176 Goal=   None    Shift=    0.000
 RMSDP=7.98D-06 MaxDP=1.11D-04 DE=-1.05D-05 OVMax= 3.00D-04

 Cycle   6  Pass 1  IDiag  1:
 E= -77.9680815371134     Delta-E=       -0.000000225680 Rises=F Damp=F
 DIIS: error= 8.64D-06 at cycle   6 NSaved=   6.
 NSaved= 6 IEnMin= 6 EnMin= -77.9680815371134     IErMin= 6 ErrMin= 8.64D-06
 ErrMax= 8.64D-06  0.00D+00 EMaxC= 1.00D-01 BMatC= 9.83D-09 BMatP= 3.33D-07
 IDIUse=1 WtCom= 1.00D+00 WtEn= 0.00D+00
 Coeff-Com: -0.330D-03 0.843D-03 0.103D-01-0.415D-01-0.333D-01 0.106D+01
 Coeff:     -0.330D-03 0.843D-03 0.103D-01-0.415D-01-0.333D-01 0.106D+01
 Gap=     0.518 Goal=   None    Shift=    0.000
 Gap=     0.176 Goal=   None    Shift=    0.000
 RMSDP=1.36D-06 MaxDP=1.79D-05 DE=-2.26D-07 OVMax= 4.65D-05

 Cycle   7  Pass 1  IDiag  1:
 E= -77.9680815425294     Delta-E=       -0.000000005416 Rises=F Damp=F
 DIIS: error= 2.18D-06 at cycle   7 NSaved=   7.
 NSaved= 7 IEnMin= 7 EnMin= -77.9680815425294     IErMin= 7 ErrMin= 2.18D-06
 ErrMax= 2.18D-06  0.00D+00 EMaxC= 1.00D-01 BMatC= 2.22D-10 BMatP= 9.83D-09
 IDIUse=1 WtCom= 1.00D+00 WtEn= 0.00D+00
 Coeff-Com:  0.443D-04-0.823D-04-0.100D-02 0.588D-02-0.294D-01 0.625D-02
 Coeff-Com:  0.102D+01
 Coeff:      0.443D-04-0.823D-04-0.100D-02 0.588D-02-0.294D-01 0.625D-02
 Coeff:      0.102D+01
 Gap=     0.518 Goal=   None    Shift=    0.000
 Gap=     0.176 Goal=   None    Shift=    0.000
 RMSDP=2.19D-07 MaxDP=4.44D-06 DE=-5.42D-09 OVMax= 1.95D-05

 Cycle   8  Pass 1  IDiag  1:
 E= -77.9680815427539     Delta-E=       -0.000000000224 Rises=F Damp=F
 DIIS: error= 1.45D-06 at cycle   8 NSaved=   8.
 NSaved= 8 IEnMin= 8 EnMin= -77.9680815427539     IErMin= 8 ErrMin= 1.45D-06
 ErrMax= 1.45D-06  0.00D+00 EMaxC= 1.00D-01 BMatC= 4.11D-11 BMatP= 2.22D-10
 IDIUse=1 WtCom= 1.00D+00 WtEn= 0.00D+00
 Coeff-Com: -0.118D-04 0.145D-04 0.166D-03-0.131D-02 0.127D-01-0.397D-01
 Coeff-Com: -0.309D+00 0.134D+01
 Coeff:     -0.118D-04 0.145D-04 0.166D-03-0.131D-02 0.127D-01-0.397D-01
 Coeff:     -0.309D+00 0.134D+01
 Gap=     0.518 Goal=   None    Shift=    0.000
 Gap=     0.176 Goal=   None    Shift=    0.000
 RMSDP=1.14D-07 MaxDP=1.04D-06 DE=-2.24D-10 OVMax= 1.59D-05

 Cycle   9  Pass 1  IDiag  1:
 E= -77.9680815428468     Delta-E=       -0.000000000093 Rises=F Damp=F
 DIIS: error= 8.39D-07 at cycle   9 NSaved=   9.
 NSaved= 9 IEnMin= 9 EnMin= -77.9680815428468     IErMin= 9 ErrMin= 8.39D-07
 ErrMax= 8.39D-07  0.00D+00 EMaxC= 1.00D-01 BMatC= 1.24D-11 BMatP= 4.11D-11
 IDIUse=1 WtCom= 1.00D+00 WtEn= 0.00D+00
 Coeff-Com:  0.571D-05-0.333D-05-0.138D-04 0.262D-03-0.564D-02 0.277D-01
 Coeff-Com:  0.151D+00-0.155D+01 0.238D+01
 Coeff:      0.571D-05-0.333D-05-0.138D-04 0.262D-03-0.564D-02 0.277D-01
 Coeff:      0.151D+00-0.155D+01 0.238D+01
 Gap=     0.518 Goal=   None    Shift=    0.000
 Gap=     0.176 Goal=   None    Shift=    0.000
 RMSDP=1.31D-07 MaxDP=1.27D-06 DE=-9.29D-11 OVMax= 1.95D-05

 Cycle  10  Pass 1  IDiag  1:
 E= -77.9680815428926     Delta-E=       -0.000000000046 Rises=F Damp=F
 DIIS: error= 8.66D-08 at cycle  10 NSaved=  10.
 NSaved=10 IEnMin=10 EnMin= -77.9680815428926     IErMin=10 ErrMin= 8.66D-08
 ErrMax= 8.66D-08  0.00D+00 EMaxC= 1.00D-01 BMatC= 2.16D-13 BMatP= 1.24D-11
 IDIUse=1 WtCom= 1.00D+00 WtEn= 0.00D+00
 Coeff-Com:  0.532D-06-0.136D-05-0.160D-04 0.896D-04-0.449D-03 0.494D-04
 Coeff-Com:  0.113D-01 0.224D-01-0.202D+00 0.117D+01
 Coeff:      0.532D-06-0.136D-05-0.160D-04 0.896D-04-0.449D-03 0.494D-04
 Coeff:      0.113D-01 0.224D-01-0.202D+00 0.117D+01
 Gap=     0.518 Goal=   None    Shift=    0.000
 Gap=     0.176 Goal=   None    Shift=    0.000
 RMSDP=1.74D-08 MaxDP=1.65D-07 DE=-4.58D-11 OVMax= 2.46D-06

 Cycle  11  Pass 1  IDiag  1:
 E= -77.9680815428931     Delta-E=       -0.000000000001 Rises=F Damp=F
 DIIS: error= 7.40D-09 at cycle  11 NSaved=  11.
 NSaved=11 IEnMin=11 EnMin= -77.9680815428931     IErMin=11 ErrMin= 7.40D-09
 ErrMax= 7.40D-09  0.00D+00 EMaxC= 1.00D-01 BMatC= 3.38D-15 BMatP= 2.16D-13
 IDIUse=1 WtCom= 1.00D+00 WtEn= 0.00D+00
 Coeff-Com: -0.704D-07-0.591D-07-0.111D-05 0.335D-05 0.577D-04-0.528D-03
 Coeff-Com: -0.162D-02 0.354D-01-0.591D-01 0.117D+00 0.909D+00
 Coeff:     -0.704D-07-0.591D-07-0.111D-05 0.335D-05 0.577D-04-0.528D-03
 Coeff:     -0.162D-02 0.354D-01-0.591D-01 0.117D+00 0.909D+00
 Gap=     0.518 Goal=   None    Shift=    0.000
 Gap=     0.176 Goal=   None    Shift=    0.000
 RMSDP=1.44D-09 MaxDP=1.39D-08 DE=-5.40D-13 OVMax= 1.96D-07

 SCF Done:  E(UM062X) =  -77.9680815429     A.U. after   11 cycles
            NFock= 11  Conv=0.14D-08     -V/T= 1.9836
 <Sx>= 0.0000 <Sy>= 0.0000 <Sz>= 0.5000 <S**2>= 0.7548 S= 0.5024
 <L.S>=  0.00000000000    
 KE= 7.926619448155D+01 PE=-2.539780195055D+02 EE= 5.824363032979D+01
 Annihilation of the first spin contaminant:
 S**2 before annihilation     0.7548,   after     0.7500
 Leave Link  502 at Tue Nov 19 10:49:46 2024, MaxMem=   536870912 cpu:              52.0 elap:               6.6
 (Enter /home/szhao/Apps/g16/l601.exe)
 Copying SCF densities to generalized density rwf, IOpCl= 1 IROHF=0.

 **********************************************************************

            Population analysis using the SCF density.

 **********************************************************************

 Alpha  occ. eigenvalues --  -10.82228 -10.81582  -1.28143  -0.97989  -0.97838
 Alpha  occ. eigenvalues --   -0.82185  -0.75486  -0.70753
 Alpha virt. eigenvalues --   -0.18960  -0.15623  -0.14696  -0.11884  -0.10622
 Alpha virt. eigenvalues --   -0.10000  -0.06897  -0.06117  -0.02887  -0.00258
 Alpha virt. eigenvalues --    0.00366   0.03821   0.13263   0.15645   0.18650
 Alpha virt. eigenvalues --    0.24357   0.26342   0.29297   0.36731   0.40718
 Alpha virt. eigenvalues --    0.42619   0.45961   0.52276   0.54321   0.64647
 Alpha virt. eigenvalues --    0.66353   0.82718   0.89006   0.99453   1.06552
 Alpha virt. eigenvalues --    1.09376   1.15698   1.42629   1.46498   1.48648
 Alpha virt. eigenvalues --    1.48803   1.49029   1.62516   1.66261   1.66558
 Alpha virt. eigenvalues --    1.93044   2.00298   2.12582   2.14927   2.16697
 Alpha virt. eigenvalues --    2.18037   2.42731   2.43754   2.51953   2.51985
 Alpha virt. eigenvalues --    2.52200   2.67273   2.72144   3.01702   3.39415
 Alpha virt. eigenvalues --    3.67834   3.71595   3.89515  23.48277  25.15108
  Beta  occ. eigenvalues --  -10.82167 -10.81505  -1.26053  -0.92376  -0.91259
  Beta  occ. eigenvalues --   -0.79512  -0.70230
  Beta virt. eigenvalues --   -0.52606  -0.18497  -0.15675  -0.14469  -0.11657
  Beta virt. eigenvalues --   -0.10499  -0.09596  -0.05935  -0.05875  -0.02496
  Beta virt. eigenvalues --    0.00076   0.01281   0.04505   0.13156   0.15960
  Beta virt. eigenvalues --    0.18723   0.25572   0.26706   0.29239   0.37196
  Beta virt. eigenvalues --    0.40388   0.42713   0.46019   0.52128   0.54647
  Beta virt. eigenvalues --    0.64901   0.66790   0.83083   0.89836   0.99734
  Beta virt. eigenvalues --    1.07262   1.09612   1.16279   1.42390   1.46430
  Beta virt. eigenvalues --    1.48436   1.49967   1.50129   1.62210   1.66985
  Beta virt. eigenvalues --    1.68175   1.93042   2.02329   2.12027   2.13977
  Beta virt. eigenvalues --    2.16520   2.18410   2.42926   2.44208   2.50741
  Beta virt. eigenvalues --    2.50906   2.51491   2.66205   2.71533   3.01652
  Beta virt. eigenvalues --    3.39944   3.67400   3.71968   3.90003  23.48130
  Beta virt. eigenvalues --   25.14955
          Condensed to atoms (all electrons):
               1          2          3          4          5          6
     1  C    4.658206   0.777546   0.343710   0.341680  -0.015237  -0.014855
     2  C    0.777546   4.658206  -0.015237  -0.014855   0.343710   0.341680
     3  H    0.343710  -0.015237   0.378287  -0.000019   0.005009  -0.006191
     4  H    0.341680  -0.014855  -0.000019   0.377765  -0.006191   0.005010
     5  H   -0.015237   0.343710   0.005009  -0.006191   0.378287  -0.000019
     6  H   -0.014855   0.341680  -0.006191   0.005010  -0.000019   0.377765
          Atomic-Atomic Spin Densities.
               1          2          3          4          5          6
     1  C    0.095527  -0.078086   0.075815   0.077381  -0.020295  -0.021043
     2  C   -0.078086   0.095527  -0.020295  -0.021043   0.075815   0.077381
     3  H    0.075815  -0.020295   0.149824  -0.013383   0.002602  -0.011404
     4  H    0.077381  -0.021043  -0.013383   0.153318  -0.011404   0.002673
     5  H   -0.020295   0.075815   0.002602  -0.011404   0.149824  -0.013383
     6  H   -0.021043   0.077381  -0.011404   0.002673  -0.013383   0.153318
 Mulliken charges and spin densities:
               1          2
     1  C   -0.091050   0.129299
     2  C   -0.091050   0.129299
     3  H    0.294440   0.183159
     4  H    0.296610   0.187542
     5  H    0.294440   0.183159
     6  H    0.296610   0.187542
 Sum of Mulliken charges =   1.00000   1.00000
 Mulliken charges and spin densities with hydrogens summed into heavy atoms:
               1          2
     1  C    0.500000   0.500000
     2  C    0.500000   0.500000
 Electronic spatial extent (au):  <R**2>=             57.1777
 Charge=              1.0000 electrons
 Dipole moment (field-independent basis, Debye):
    X=              0.0000    Y=             -0.0000    Z=              0.0000  Tot=              0.0000
 Quadrupole moment (field-independent basis, Debye-Ang):
   XX=             -6.9025   YY=             -5.6454   ZZ=            -12.3882
   XY=             -0.0307   XZ=              0.0000   YZ=              0.0000
 Traceless Quadrupole moment (field-independent basis, Debye-Ang):
   XX=              1.4095   YY=              2.6666   ZZ=             -4.0761
   XY=             -0.0307   XZ=              0.0000   YZ=              0.0000
 Octapole moment (field-independent basis, Debye-Ang**2):
  XXX=              0.0000  YYY=             -0.0000  ZZZ=              0.0000  XYY=              0.0000
  XXY=             -0.0000  XXZ=              0.0000  XZZ=              0.0000  YZZ=             -0.0000
  YYZ=              0.0000  XYZ=              0.0000
 Hexadecapole moment (field-independent basis, Debye-Ang**3):
 XXXX=            -36.0098 YYYY=            -12.5519 ZZZZ=            -11.7766 XXXY=             -0.0154
 XXXZ=              0.0000 YYYX=             -0.0504 YYYZ=              0.0000 ZZZX=              0.0000
 ZZZY=              0.0000 XXYY=             -3.8870 XXZZ=             -8.6262 YYZZ=             -5.3125
 XXYZ=             -0.0000 YYXZ=              0.0000 ZZXY=             -0.0006
 N-N= 3.850011315129D+01 E-N=-2.539780194852D+02  KE= 7.926619448155D+01
                          Isotropic Fermi Contact Couplings
        Atom                 a.u.       MegaHertz       Gauss      10(-4) cm-1
     1  C(13)             -0.04143     -46.57817     -16.62025     -15.53680
     2  C(13)             -0.04143     -46.57817     -16.62025     -15.53680
     3  H(1)               0.11786     526.79801     187.97463     175.72090
     4  H(1)               0.12013     536.96850     191.60372     179.11341
     5  H(1)               0.11786     526.79801     187.97463     175.72090
     6  H(1)               0.12013     536.96850     191.60372     179.11341
 --------------------------------------------------------
       Center         ----  Spin Dipole Couplings  ----
                      3XX-RR        3YY-RR        3ZZ-RR
 --------------------------------------------------------
     1   Atom       -0.198187      0.404475     -0.206287
     2   Atom       -0.198187      0.404475     -0.206287
     3   Atom       -0.008045      0.043107     -0.035062
     4   Atom       -0.009473      0.044569     -0.035096
     5   Atom       -0.008045      0.043107     -0.035062
     6   Atom       -0.009473      0.044569     -0.035096
 --------------------------------------------------------
                        XY            XZ            YZ
 --------------------------------------------------------
     1   Atom       -0.005412      0.000000     -0.000000
     2   Atom       -0.005412     -0.000000      0.000000
     3   Atom        0.048044      0.000000      0.000000
     4   Atom       -0.047499     -0.000000      0.000000
     5   Atom        0.048044     -0.000000     -0.000000
     6   Atom       -0.047499      0.000000     -0.000000
 --------------------------------------------------------


 ---------------------------------------------------------------------------------
              Anisotropic Spin Dipole Couplings in Principal Axis System
 ---------------------------------------------------------------------------------

       Atom             a.u.   MegaHertz   Gauss  10(-4) cm-1        Axes

              Baa    -0.2063   -27.682    -9.878    -9.234  0.0000  0.0000  1.0000
     1 C(13)  Bbb    -0.1982   -26.601    -9.492    -8.873  1.0000  0.0090 -0.0000
              Bcc     0.4045    54.283    19.370    18.107 -0.0090  1.0000 -0.0000
 
              Baa    -0.2063   -27.682    -9.878    -9.234 -0.0000 -0.0000  1.0000
     2 C(13)  Bbb    -0.1982   -26.601    -9.492    -8.873  1.0000  0.0090  0.0000
              Bcc     0.4045    54.283    19.370    18.107 -0.0090  1.0000  0.0000
 
              Baa    -0.0369   -19.686    -7.025    -6.567  0.8573 -0.5148  0.0000
     3 H(1)   Bbb    -0.0351   -18.707    -6.675    -6.240 -0.0000 -0.0000  1.0000
              Bcc     0.0720    38.394    13.700    12.807  0.5148  0.8573  0.0000
 
              Baa    -0.0371   -19.794    -7.063    -6.603  0.8644  0.5028 -0.0000
     4 H(1)   Bbb    -0.0351   -18.726    -6.682    -6.246  0.0000 -0.0000  1.0000
              Bcc     0.0722    38.520    13.745    12.849 -0.5028  0.8644  0.0000
 
              Baa    -0.0369   -19.686    -7.025    -6.567  0.8573 -0.5148 -0.0000
     5 H(1)   Bbb    -0.0351   -18.707    -6.675    -6.240  0.0000  0.0000  1.0000
              Bcc     0.0720    38.394    13.700    12.807  0.5148  0.8573 -0.0000
 
              Baa    -0.0371   -19.794    -7.063    -6.603  0.8644  0.5028  0.0000
     6 H(1)   Bbb    -0.0351   -18.726    -6.682    -6.246 -0.0000  0.0000  1.0000
              Bcc     0.0722    38.520    13.745    12.849 -0.5028  0.8644 -0.0000
 

 ---------------------------------------------------------------------------------

 No NMR shielding tensors so no spin-rotation constants.
 Leave Link  601 at Tue Nov 19 10:49:46 2024, MaxMem=   536870912 cpu:               1.3 elap:               0.2
 (Enter /home/szhao/Apps/g16/l701.exe)
 ... and contract with generalized density number  0.
 Compute integral first derivatives.
 Leave Link  701 at Tue Nov 19 10:49:46 2024, MaxMem=   536870912 cpu:               0.7 elap:               0.1
 (Enter /home/szhao/Apps/g16/l702.exe)
 L702 exits ... SP integral derivatives will be done elsewhere.
 Leave Link  702 at Tue Nov 19 10:49:46 2024, MaxMem=   536870912 cpu:               0.3 elap:               0.0
 (Enter /home/szhao/Apps/g16/l703.exe)
 Integral derivatives from FoFJK, PRISM(SPDF).
 Compute integral first derivatives, UseDBF=F ICtDFT=           0.
 Calling FoFJK, ICntrl=      2127 FMM=F ISym2X=0 I1Cent= 0 IOpClX= 1 NMat=1 NMatS=1 NMatT=0.
 FoFJK:  IHMeth= 1 ICntrl=    2127 DoSepK=F KAlg= 0 I1Cent=           0 FoldK=F
 IRaf=         0 NMat=       1 IRICut=       1 DoRegI=T DoRafI=F ISym2E= 0 IDoP0=0 IntGTp=1.
 FoFCou: FMM=F IPFlag=           0 FMFlag=      100000 FMFlg1=         800
         NFxFlg=           0 DoJE=F BraDBF=F KetDBF=F FulRan=T
         wScrn=  0.000000 ICntrl=      2127 IOpCl=  1 I1Cent=           0 NGrid=           0
         NMat0=    1 NMatS0=      1 NMatT0=    0 NMatD0=    1 NMtDS0=    0 NMtDT0=    0
 Symmetry not used in FoFCou.
 Leave Link  703 at Tue Nov 19 10:49:47 2024, MaxMem=   536870912 cpu:               7.9 elap:               1.0
 (Enter /home/szhao/Apps/g16/l716.exe)
 Dipole        = 8.42903525D-12-7.12763182D-14 1.82965281D-15
 -------------------------------------------------------------------
 Center     Atomic                   Forces (Hartrees/Bohr)
 Number     Number              X              Y              Z
 -------------------------------------------------------------------
      1        6          -0.000000000   -0.000000000   -0.000000000
      2        6          -0.000000000   -0.000000000   -0.000000000
      3        1          -0.070085249   -0.060418591    0.000000000
      4        1          -0.068275184    0.059278441    0.000000000
      5        1           0.070085249    0.060418591   -0.000000000
      6        1           0.068275184   -0.059278441    0.000000000
 -------------------------------------------------------------------
 Cartesian Forces:  Max     0.070085249 RMS     0.043124861
 Leave Link  716 at Tue Nov 19 10:49:47 2024, MaxMem=   536870912 cpu:               0.3 elap:               0.0
 (Enter /home/szhao/Apps/g16/l103.exe)

 GradGradGradGradGradGradGradGradGradGradGradGradGradGradGradGradGradGrad
 Berny optimization.
 FormGI is forming the generalized inverse of G from B-inverse, IUseBI=4.
 Internal  Forces:  Max     0.138360433 RMS     0.060518281
 Search for a local minimum.
 Step number   1 out of a maximum of   30
 All quantities printed in internal units (Hartrees-Bohrs-Radians)
 RMS Force = .49973D-01 SwitMx=.10000D-02 MixMth= 1
 Mixed Optimization -- RFO/linear search
 Second derivative matrix not updated -- first step.
 The second derivative matrix:
                          X1        Y1        Z1        X2        Y2
           X1           0.50000
           Y1           0.00000   0.50000
           Z1           0.00000   0.00000   0.50000
           X2           0.00000   0.00000   0.00000   0.50000
           Y2           0.00000   0.00000   0.00000   0.00000   0.50000
           Z2           0.00000   0.00000   0.00000   0.00000   0.00000
           R1           0.00000   0.00000   0.00000   0.00000   0.00000
           R2           0.00000   0.00000   0.00000   0.00000   0.00000
           R3           0.00000   0.00000   0.00000   0.00000   0.00000
           R4           0.00000   0.00000   0.00000   0.00000   0.00000
           A1           0.00000   0.00000   0.00000   0.00000   0.00000
           A2           0.00000   0.00000   0.00000   0.00000   0.00000
           A3           0.00000   0.00000   0.00000   0.00000   0.00000
           A4           0.00000   0.00000   0.00000   0.00000   0.00000
           A5           0.00000   0.00000   0.00000   0.00000   0.00000
           A6           0.00000   0.00000   0.00000   0.00000   0.00000
           D1           0.00000   0.00000   0.00000   0.00000   0.00000
           D2           0.00000   0.00000   0.00000   0.00000   0.00000
           D3           0.00000   0.00000   0.00000   0.00000   0.00000
           D4           0.00000   0.00000   0.00000   0.00000   0.00000
                          Z2        R1        R2        R3        R4
           Z2           0.50000
           R1           0.00000   0.43419
           R2           0.00000   0.00000   0.42970
           R3           0.00000   0.00000   0.00000   0.43419
           R4           0.00000   0.00000   0.00000   0.00000   0.42970
           A1           0.00000   0.00000   0.00000   0.00000   0.00000
           A2           0.00000   0.00000   0.00000   0.00000   0.00000
           A3           0.00000   0.00000   0.00000   0.00000   0.00000
           A4           0.00000   0.00000   0.00000   0.00000   0.00000
           A5           0.00000   0.00000   0.00000   0.00000   0.00000
           A6           0.00000   0.00000   0.00000   0.00000   0.00000
           D1           0.00000   0.00000   0.00000   0.00000   0.00000
           D2           0.00000   0.00000   0.00000   0.00000   0.00000
           D3           0.00000   0.00000   0.00000   0.00000   0.00000
           D4           0.00000   0.00000   0.00000   0.00000   0.00000
                          A1        A2        A3        A4        A5
           A1           0.16000
           A2           0.00000   0.16000
           A3           0.00000   0.00000   0.16000
           A4           0.00000   0.00000   0.00000   0.16000
           A5           0.00000   0.00000   0.00000   0.00000   0.16000
           A6           0.00000   0.00000   0.00000   0.00000   0.00000
           D1           0.00000   0.00000   0.00000   0.00000   0.00000
           D2           0.00000   0.00000   0.00000   0.00000   0.00000
           D3           0.00000   0.00000   0.00000   0.00000   0.00000
           D4           0.00000   0.00000   0.00000   0.00000   0.00000
                          A6        D1        D2        D3        D4
           A6           0.16000
           D1           0.00000   0.06208
           D2           0.00000   0.00000   0.06208
           D3           0.00000   0.00000   0.00000   0.06208
           D4           0.00000   0.00000   0.00000   0.00000   0.06208
 ITU=  0
     Eigenvalues ---    0.06208   0.06208   0.06208   0.16000   0.16000
     Eigenvalues ---    0.16000   0.16000   0.42970   0.42970   0.43419
     Eigenvalues ---    0.434191000.000001000.000001000.000001000.00000
     Eigenvalues --- 1000.000001000.000001000.000001000.000001000.00000
 RFO step:  Lambda=-8.35860319D-02 EMin= 6.20779986D-02
 Linear search not attempted -- first point.
 Maximum step size (   0.300) exceeded in Quadratic search.
    -- Step size scaled by   0.630
 Iteration  1 RMS(Cart)=  0.07158951 RMS(Int)=  0.00302000
 Iteration  2 RMS(Cart)=  0.00340888 RMS(Int)=  0.00000658
 Iteration  3 RMS(Cart)=  0.00000697 RMS(Int)=  0.00000000
 Iteration  4 RMS(Cart)=  0.00000000 RMS(Int)=  0.00000000
 ITry= 1 IFail=0 DXMaxC= 1.62D-01 DCOld= 1.00D+10 DXMaxT= 3.00D-01 DXLimC= 3.00D+00 Rises=F
 Variable       Old X    -DE/DX   Delta X   Delta X   Delta X     New X
                                 (Linear)    (Quad)   (Total)
    X1       -1.02859  -0.13836   0.00000   0.00000   0.00000  -1.02859
    Y1        0.00000   0.00024   0.00000   0.00000   0.00000   0.00000
    Z1        0.00000   0.00000   0.00000   0.00000   0.00000   0.00000
    X2        1.02859   0.13836   0.00000   0.00000   0.00000   1.02859
    Y2        0.00000  -0.00024   0.00000   0.00000   0.00000   0.00000
    Z2        0.00000  -0.00000   0.00000   0.00000   0.00000   0.00000
    R1        1.93856   0.08415   0.00000   0.10236   0.10236   2.04092
    R2        1.94407   0.08221   0.00000   0.10087   0.10087   2.04494
    R3        1.93856   0.08415   0.00000   0.10236   0.10236   2.04092
    R4        1.94407   0.08221   0.00000   0.10087   0.10087   2.04494
    A1        2.00116   0.02534   0.00000   0.06553   0.06553   2.06669
    A2        1.99716   0.02392   0.00000   0.06186   0.06186   2.05902
    A3        2.28486  -0.04927   0.00000  -0.12739  -0.12739   2.15748
    A4        2.00116   0.02534   0.00000   0.06553   0.06553   2.06669
    A5        1.99716   0.02392   0.00000   0.06186   0.06186   2.05902
    A6        2.28486  -0.04927   0.00000  -0.12739  -0.12739   2.15748
    D1        3.14159  -0.00000   0.00000  -0.00000   0.00000   3.14159
    D2        0.00000   0.00000   0.00000   0.00000   0.00000   0.00000
    D3        0.00000  -0.00000   0.00000  -0.00000   0.00000   0.00000
    D4        3.14159  -0.00000   0.00000  -0.00000   0.00000   3.14159
         Item               Value     Threshold  Converged?
 Maximum Force            0.084149     0.000450     NO 
 RMS     Force            0.049973     0.000300     NO 
 Maximum Displacement     0.162335     0.001800     NO 
 RMS     Displacement     0.072693     0.001200     NO 
 Predicted change in Energy=-3.982752D-02
 Lowest energy point so far.  Saving SCF results.
 GradGradGradGradGradGradGradGradGradGradGradGradGradGradGradGradGradGrad

 Leave Link  103 at Tue Nov 19 10:49:47 2024, MaxMem=   536870912 cpu:               0.1 elap:               0.0
 (Enter /home/szhao/Apps/g16/l202.exe)
                          Input orientation:                          
 ---------------------------------------------------------------------
 Center     Atomic      Atomic             Coordinates (Angstroms)
 Number     Number       Type             X           Y           Z
 ---------------------------------------------------------------------
      1          6           0       -0.544307    0.000000    0.000000
      2          6           0        0.544307    0.000000    0.000000
      3          1           0       -1.058197   -0.949912    0.000000
      4          1           0       -1.051888    0.955710   -0.000000
      5          1           0        1.058197    0.949912    0.000000
      6          1           0        1.051888   -0.955710   -0.000000
 ---------------------------------------------------------------------
                    Distance matrix (angstroms):
                    1          2          3          4          5
     1  C    0.000000
     2  C    1.088614   0.000000
     3  H    1.080007   1.862888   0.000000
     4  H    1.082137   1.860435   1.905632   0.000000
     5  H    1.862888   1.080007   2.844020   2.110093   0.000000
     6  H    1.860435   1.082137   2.110093   2.842428   1.905632
                    6
     6  H    0.000000
 Symmetry turned off by external request.
 Stoichiometry    C2H4(1+,2)
 Framework group  C2H[SGH(C2H4)]
 Deg. of freedom     5
 Full point group                 C2H     NOp   4
 Rotational constants (GHZ):         138.0876086          43.5753592          33.1229706
 Leave Link  202 at Tue Nov 19 10:49:47 2024, MaxMem=   536870912 cpu:               0.0 elap:               0.0
 (Enter /home/szhao/Apps/g16/l301.exe)
 Standard basis: 6-311+G(d,p) (5D, 7F)
 Ernie: Thresh=  0.10000D-02 Tol=  0.10000D-05 Strict=F.
    68 basis functions,   104 primitive gaussians,    70 cartesian basis functions
     8 alpha electrons        7 beta electrons
       nuclear repulsion energy        37.4987055185 Hartrees.
 IExCor= 4336 DFT=T Ex+Corr=M062X ExCW=0 ScaHFX=  0.540000
 ScaDFX=  1.000000  1.000000  1.000000  1.000000 ScalE2=  1.000000  1.000000
 IRadAn=      7 IRanWt=     -1 IRanGd=            0 ICorTp=0 IEmpDi=  4
 NAtoms=    6 NActive=    6 NUniq=    6 SFac= 1.00D+00 NAtFMM=   60 NAOKFM=F Big=F
 Integral buffers will be    131072 words long.
 Raffenetti 2 integral format.
 Two-electron integral symmetry is turned off.
 Leave Link  301 at Tue Nov 19 10:49:47 2024, MaxMem=   536870912 cpu:               0.3 elap:               0.0
 (Enter /home/szhao/Apps/g16/l302.exe)
 NPDir=0 NMtPBC=     1 NCelOv=     1 NCel=       1 NClECP=     1 NCelD=      1
         NCelK=      1 NCelE2=     1 NClLst=     1 CellRange=     0.0.
 One-electron integrals computed using PRISM.
 NBasis=    68 RedAO= T EigKep=  4.33D-05  NBF=    68
 NBsUse=    68 1.00D-06 EigRej= -1.00D+00 NBFU=    68
 Precomputing XC quadrature grid using
 IXCGrd= 4 IRadAn=           7 IRanWt=          -1 IRanGd=           0 AccXCQ= 0.00D+00.
 Generated NRdTot=       0 NPtTot=           0 NUsed=           0 NTot=          32
 NSgBfM=    70    70    70    70    70 MxSgAt=     6 MxSgA2=     6.
 Leave Link  302 at Tue Nov 19 10:49:47 2024, MaxMem=   536870912 cpu:               1.0 elap:               0.1
 (Enter /home/szhao/Apps/g16/l303.exe)
 DipDrv:  MaxL=1.
 Leave Link  303 at Tue Nov 19 10:49:48 2024, MaxMem=   536870912 cpu:               0.3 elap:               0.0
 (Enter /home/szhao/Apps/g16/l401.exe)
 Initial guess from the checkpoint file:  "opt.chk"
 B after Tr=     0.000000   -0.000000   -0.000000
         Rot=    1.000000   -0.000000    0.000000    0.000402 Ang=   0.05 deg.
 Guess basis will be translated and rotated to current coordinates.
 JPrj=2 DoOrth=T DoCkMO=T.
 Initial guess <Sx>= 0.0000 <Sy>= 0.0000 <Sz>= 0.5000 <S**2>= 0.7552 S= 0.5026
 Generating alternative initial guess.
 ExpMin= 4.38D-02 ExpMax= 4.56D+03 ExpMxC= 6.82D+02 IAcc=3 IRadAn=         5 AccDes= 0.00D+00
 Harris functional with IExCor= 1009 and IRadAn=       5 diagonalized for initial guess.
 HarFok:  IExCor= 1009 AccDes= 0.00D+00 IRadAn=         5 IDoV= 1 UseB2=F ITyADJ=14
 ICtDFT=  3500011 ScaDFX=  1.000000  1.000000  1.000000  1.000000
 FoFCou: FMM=F IPFlag=           0 FMFlag=      100000 FMFlg1=           0
         NFxFlg=           0 DoJE=T BraDBF=F KetDBF=T FulRan=T
         wScrn=  0.000000 ICntrl=       500 IOpCl=  0 I1Cent=   200000004 NGrid=           0
         NMat0=    1 NMatS0=      1 NMatT0=    0 NMatD0=    1 NMtDS0=    0 NMtDT0=    0
 Symmetry not used in FoFCou.
 Harris En= -78.1131328510471    
 Leave Link  401 at Tue Nov 19 10:49:48 2024, MaxMem=   536870912 cpu:               2.1 elap:               0.3
 (Enter /home/szhao/Apps/g16/l502.exe)
 Keep R1 and R2 ints in memory in canonical form, NReq=12681614.
 FoFCou: FMM=F IPFlag=           0 FMFlag=           0 FMFlg1=           0
         NFxFlg=           0 DoJE=F BraDBF=F KetDBF=F FulRan=T
         wScrn=  0.000000 ICntrl=       600 IOpCl=  0 I1Cent=           0 NGrid=           0
         NMat0=    1 NMatS0=   2346 NMatT0=    0 NMatD0=    1 NMtDS0=    0 NMtDT0=    0
 Symmetry not used in FoFCou.
 Two-electron integral symmetry not used.
 UHF open shell SCF:
 Using DIIS extrapolation, IDIIS=  1040.
 NGot=   536870912 LenX=   531353794 LenY=   531348453
 Requested convergence on RMS density matrix=1.00D-08 within 128 cycles.
 Requested convergence on MAX density matrix=1.00D-06.
 Requested convergence on             energy=1.00D-06.
 No special actions if energy rises.

 Cycle   1  Pass 1  IDiag  1:
 E= -78.0060861353541    
 DIIS: error= 9.89D-03 at cycle   1 NSaved=   1.
 NSaved= 1 IEnMin= 1 EnMin= -78.0060861353541     IErMin= 1 ErrMin= 9.89D-03
 ErrMax= 9.89D-03  0.00D+00 EMaxC= 1.00D-01 BMatC= 1.12D-02 BMatP= 1.12D-02
 IDIUse=3 WtCom= 9.01D-01 WtEn= 9.89D-02
 Coeff-Com:  0.100D+01
 Coeff-En:   0.100D+01
 Coeff:      0.100D+01
 Gap=     0.717 Goal=   None    Shift=    0.000
 Gap=     0.693 Goal=   None    Shift=    0.000
 GapD=    0.693 DampG=2.000 DampE=1.000 DampFc=2.0000 IDamp=-1.
 RMSDP=6.28D-04 MaxDP=9.02D-03              OVMax= 1.97D-02

 Cycle   2  Pass 1  IDiag  1:
 E= -78.0084024289034     Delta-E=       -0.002316293549 Rises=F Damp=F
 DIIS: error= 1.87D-03 at cycle   2 NSaved=   2.
 NSaved= 2 IEnMin= 2 EnMin= -78.0084024289034     IErMin= 2 ErrMin= 1.87D-03
 ErrMax= 1.87D-03  0.00D+00 EMaxC= 1.00D-01 BMatC= 4.12D-04 BMatP= 1.12D-02
 IDIUse=3 WtCom= 9.81D-01 WtEn= 1.87D-02
 Coeff-Com:  0.369D-01 0.963D+00
 Coeff-En:   0.000D+00 0.100D+01
 Coeff:      0.362D-01 0.964D+00
 Gap=     0.514 Goal=   None    Shift=    0.000
 Gap=     0.187 Goal=   None    Shift=    0.000
 RMSDP=1.59D-04 MaxDP=3.87D-03 DE=-2.32D-03 OVMax= 4.94D-03

 Cycle   3  Pass 1  IDiag  1:
 E= -78.0084751274864     Delta-E=       -0.000072698583 Rises=F Damp=F
 DIIS: error= 1.28D-03 at cycle   3 NSaved=   3.
 NSaved= 3 IEnMin= 3 EnMin= -78.0084751274864     IErMin= 3 ErrMin= 1.28D-03
 ErrMax= 1.28D-03  0.00D+00 EMaxC= 1.00D-01 BMatC= 1.37D-04 BMatP= 4.12D-04
 IDIUse=3 WtCom= 9.87D-01 WtEn= 1.28D-02
 Coeff-Com: -0.182D-01 0.356D+00 0.663D+00
 Coeff-En:   0.000D+00 0.583D-01 0.942D+00
 Coeff:     -0.180D-01 0.352D+00 0.666D+00
 Gap=     0.512 Goal=   None    Shift=    0.000
 Gap=     0.185 Goal=   None    Shift=    0.000
 RMSDP=5.50D-05 MaxDP=1.08D-03 DE=-7.27D-05 OVMax= 1.81D-03

 Cycle   4  Pass 1  IDiag  1:
 E= -78.0085076411031     Delta-E=       -0.000032513617 Rises=F Damp=F
 DIIS: error= 1.12D-04 at cycle   4 NSaved=   4.
 NSaved= 4 IEnMin= 4 EnMin= -78.0085076411031     IErMin= 4 ErrMin= 1.12D-04
 ErrMax= 1.12D-04  0.00D+00 EMaxC= 1.00D-01 BMatC= 7.76D-07 BMatP= 1.37D-04
 IDIUse=3 WtCom= 9.99D-01 WtEn= 1.12D-03
 Coeff-Com:  0.245D-03-0.503D-01-0.342D-01 0.108D+01
 Coeff-En:   0.000D+00 0.000D+00 0.000D+00 0.100D+01
 Coeff:      0.245D-03-0.502D-01-0.342D-01 0.108D+01
 Gap=     0.513 Goal=   None    Shift=    0.000
 Gap=     0.185 Goal=   None    Shift=    0.000
 RMSDP=8.11D-06 MaxDP=1.70D-04 DE=-3.25D-05 OVMax= 2.86D-04

 Cycle   5  Pass 1  IDiag  1:
 E= -78.0085080307623     Delta-E=       -0.000000389659 Rises=F Damp=F
 DIIS: error= 2.30D-05 at cycle   5 NSaved=   5.
 NSaved= 5 IEnMin= 5 EnMin= -78.0085080307623     IErMin= 5 ErrMin= 2.30D-05
 ErrMax= 2.30D-05  0.00D+00 EMaxC= 1.00D-01 BMatC= 4.30D-08 BMatP= 7.76D-07
 IDIUse=1 WtCom= 1.00D+00 WtEn= 0.00D+00
 Coeff-Com:  0.409D-03-0.130D-02-0.140D-01-0.200D+00 0.121D+01
 Coeff:      0.409D-03-0.130D-02-0.140D-01-0.200D+00 0.121D+01
 Gap=     0.513 Goal=   None    Shift=    0.000
 Gap=     0.185 Goal=   None    Shift=    0.000
 RMSDP=2.30D-06 MaxDP=4.44D-05 DE=-3.90D-07 OVMax= 9.37D-05

 Cycle   6  Pass 1  IDiag  1:
 E= -78.0085080601199     Delta-E=       -0.000000029358 Rises=F Damp=F
 DIIS: error= 4.92D-06 at cycle   6 NSaved=   6.
 NSaved= 6 IEnMin= 6 EnMin= -78.0085080601199     IErMin= 6 ErrMin= 4.92D-06
 ErrMax= 4.92D-06  0.00D+00 EMaxC= 1.00D-01 BMatC= 2.70D-09 BMatP= 4.30D-08
 IDIUse=1 WtCom= 1.00D+00 WtEn= 0.00D+00
 Coeff-Com: -0.295D-04 0.445D-02 0.396D-02-0.769D-01-0.464D-01 0.111D+01
 Coeff:     -0.295D-04 0.445D-02 0.396D-02-0.769D-01-0.464D-01 0.111D+01
 Gap=     0.513 Goal=   None    Shift=    0.000
 Gap=     0.185 Goal=   None    Shift=    0.000
 RMSDP=6.93D-07 MaxDP=1.04D-05 DE=-2.94D-08 OVMax= 3.88D-05

 Cycle   7  Pass 1  IDiag  1:
 E= -78.0085080620181     Delta-E=       -0.000000001898 Rises=F Damp=F
 DIIS: error= 1.89D-06 at cycle   7 NSaved=   7.
 NSaved= 7 IEnMin= 7 EnMin= -78.0085080620181     IErMin= 7 ErrMin= 1.89D-06
 ErrMax= 1.89D-06  0.00D+00 EMaxC= 1.00D-01 BMatC= 9.32D-11 BMatP= 2.70D-09
 IDIUse=1 WtCom= 1.00D+00 WtEn= 0.00D+00
 Coeff-Com: -0.628D-05-0.630D-03-0.151D-03 0.167D-01-0.195D-01-0.208D+00
 Coeff-Com:  0.121D+01
 Coeff:     -0.628D-05-0.630D-03-0.151D-03 0.167D-01-0.195D-01-0.208D+00
 Coeff:      0.121D+01
 Gap=     0.513 Goal=   None    Shift=    0.000
 Gap=     0.185 Goal=   None    Shift=    0.000
 RMSDP=1.60D-07 MaxDP=1.64D-06 DE=-1.90D-09 OVMax= 1.84D-05

 Cycle   8  Pass 1  IDiag  1:
 E= -78.0085080621729     Delta-E=       -0.000000000155 Rises=F Damp=F
 DIIS: error= 1.02D-06 at cycle   8 NSaved=   8.
 NSaved= 8 IEnMin= 8 EnMin= -78.0085080621729     IErMin= 8 ErrMin= 1.02D-06
 ErrMax= 1.02D-06  0.00D+00 EMaxC= 1.00D-01 BMatC= 2.05D-11 BMatP= 9.32D-11
 IDIUse=1 WtCom= 1.00D+00 WtEn= 0.00D+00
 Coeff-Com:  0.803D-05 0.269D-03-0.176D-03-0.102D-01 0.236D-01 0.103D+00
 Coeff-Com: -0.107D+01 0.195D+01
 Coeff:      0.803D-05 0.269D-03-0.176D-03-0.102D-01 0.236D-01 0.103D+00
 Coeff:     -0.107D+01 0.195D+01
 Gap=     0.513 Goal=   None    Shift=    0.000
 Gap=     0.185 Goal=   None    Shift=    0.000
 RMSDP=1.15D-07 MaxDP=1.04D-06 DE=-1.55D-10 OVMax= 1.60D-05

 Cycle   9  Pass 1  IDiag  1:
 E= -78.0085080622270     Delta-E=       -0.000000000054 Rises=F Damp=F
 DIIS: error= 2.55D-07 at cycle   9 NSaved=   9.
 NSaved= 9 IEnMin= 9 EnMin= -78.0085080622270     IErMin= 9 ErrMin= 2.55D-07
 ErrMax= 2.55D-07  0.00D+00 EMaxC= 1.00D-01 BMatC= 1.35D-12 BMatP= 2.05D-11
 IDIUse=1 WtCom= 1.00D+00 WtEn= 0.00D+00
 Coeff-Com: -0.211D-05 0.733D-05 0.999D-04 0.827D-03-0.491D-02-0.207D-02
 Coeff-Com:  0.169D+00-0.618D+00 0.146D+01
 Coeff:     -0.211D-05 0.733D-05 0.999D-04 0.827D-03-0.491D-02-0.207D-02
 Coeff:      0.169D+00-0.618D+00 0.146D+01
 Gap=     0.513 Goal=   None    Shift=    0.000
 Gap=     0.185 Goal=   None    Shift=    0.000
 RMSDP=3.58D-08 MaxDP=3.28D-07 DE=-5.41D-11 OVMax= 4.95D-06

 Cycle  10  Pass 1  IDiag  1:
 E= -78.0085080622307     Delta-E=       -0.000000000004 Rises=F Damp=F
 DIIS: error= 1.55D-08 at cycle  10 NSaved=  10.
 NSaved=10 IEnMin=10 EnMin= -78.0085080622307     IErMin=10 ErrMin= 1.55D-08
 ErrMax= 1.55D-08  0.00D+00 EMaxC= 1.00D-01 BMatC= 1.12D-14 BMatP= 1.35D-12
 IDIUse=1 WtCom= 1.00D+00 WtEn= 0.00D+00
 Coeff-Com: -0.136D-06-0.285D-05 0.514D-06 0.120D-03-0.240D-03-0.158D-02
 Coeff-Com:  0.127D-01-0.302D-01-0.262D-01 0.105D+01
 Coeff:     -0.136D-06-0.285D-05 0.514D-06 0.120D-03-0.240D-03-0.158D-02
 Coeff:      0.127D-01-0.302D-01-0.262D-01 0.105D+01
 Gap=     0.513 Goal=   None    Shift=    0.000
 Gap=     0.185 Goal=   None    Shift=    0.000
 RMSDP=2.83D-09 MaxDP=2.43D-08 DE=-3.71D-12 OVMax= 3.53D-07

 SCF Done:  E(UM062X) =  -78.0085080622     A.U. after   10 cycles
            NFock= 10  Conv=0.28D-08     -V/T= 1.9881
 <Sx>= 0.0000 <Sy>= 0.0000 <Sz>= 0.5000 <S**2>= 0.7556 S= 0.5028
 <L.S>=  0.00000000000    
 KE= 7.894528568583D+01 PE=-2.519598149316D+02 EE= 5.750731566500D+01
 Annihilation of the first spin contaminant:
 S**2 before annihilation     0.7556,   after     0.7500
 Leave Link  502 at Tue Nov 19 10:49:54 2024, MaxMem=   536870912 cpu:              45.3 elap:               5.8
 (Enter /home/szhao/Apps/g16/l701.exe)
 ... and contract with generalized density number  0.
 Compute integral first derivatives.
 Leave Link  701 at Tue Nov 19 10:49:54 2024, MaxMem=   536870912 cpu:               0.7 elap:               0.1
 (Enter /home/szhao/Apps/g16/l702.exe)
 L702 exits ... SP integral derivatives will be done elsewhere.
 Leave Link  702 at Tue Nov 19 10:49:54 2024, MaxMem=   536870912 cpu:               0.3 elap:               0.0
 (Enter /home/szhao/Apps/g16/l703.exe)
 Integral derivatives from FoFJK, PRISM(SPDF).
 Compute integral first derivatives, UseDBF=F ICtDFT=           0.
 Calling FoFJK, ICntrl=      2127 FMM=F ISym2X=0 I1Cent= 0 IOpClX= 1 NMat=1 NMatS=1 NMatT=0.
 FoFJK:  IHMeth= 1 ICntrl=    2127 DoSepK=F KAlg= 0 I1Cent=           0 FoldK=F
 IRaf=         0 NMat=       1 IRICut=       1 DoRegI=T DoRafI=F ISym2E= 0 IDoP0=0 IntGTp=1.
 FoFCou: FMM=F IPFlag=           0 FMFlag=      100000 FMFlg1=         800
         NFxFlg=           0 DoJE=F BraDBF=F KetDBF=F FulRan=T
         wScrn=  0.000000 ICntrl=      2127 IOpCl=  1 I1Cent=           0 NGrid=           0
         NMat0=    1 NMatS0=      1 NMatT0=    0 NMatD0=    1 NMtDS0=    0 NMtDT0=    0
 Symmetry not used in FoFCou.
 Leave Link  703 at Tue Nov 19 10:49:55 2024, MaxMem=   536870912 cpu:               8.7 elap:               1.1
 (Enter /home/szhao/Apps/g16/l716.exe)
 Dipole        = 2.74398504D-10-1.96709316D-12-1.99885593D-13
 -------------------------------------------------------------------
 Center     Atomic                   Forces (Hartrees/Bohr)
 Number     Number              X              Y              Z
 -------------------------------------------------------------------
      1        6          -0.000000000   -0.000000000   -0.000000000
      2        6          -0.000000000   -0.000000000   -0.000000000
      3        1          -0.041904230   -0.018998136    0.000000000
      4        1          -0.041055243    0.019117311   -0.000000000
      5        1           0.041904230    0.018998136    0.000000000
      6        1           0.041055243   -0.019117311   -0.000000000
 -------------------------------------------------------------------
 Cartesian Forces:  Max     0.041904230 RMS     0.021519754
 Leave Link  716 at Tue Nov 19 10:49:55 2024, MaxMem=   536870912 cpu:               0.3 elap:               0.0
 (Enter /home/szhao/Apps/g16/l103.exe)

 GradGradGradGradGradGradGradGradGradGradGradGradGradGradGradGradGradGrad
 Berny optimization.
 Using GEDIIS/GDIIS optimizer.
 FormGI is forming the generalized inverse of G from B-inverse, IUseBI=4.
 Internal  Forces:  Max     0.082959473 RMS     0.034125616
 Search for a local minimum.
 Step number   2 out of a maximum of   30
 All quantities printed in internal units (Hartrees-Bohrs-Radians)
 RMS Force = .26083D-01 SwitMx=.10000D-02 MixMth= 1
 Mixed Optimization -- RFO/linear search
 Update second derivatives using D2CorX and points    1    2
 DE= -4.04D-02 DEPred=-3.98D-02 R= 1.02D+00
 TightC=F SS=  1.41D+00  RLast= 3.00D-01 DXNew= 5.0454D-01 9.0000D-01
 Trust test= 1.02D+00 RLast= 3.00D-01 DXMaxT set to 5.05D-01
 The second derivative matrix:
                          X1        Y1        Z1        X2        Y2
           X1           0.63057
           Y1           0.00192   0.50003
           Z1           0.00000   0.00000   0.50000
           X2          -0.13057  -0.00192  -0.00000   0.63057
           Y2          -0.00192  -0.00003  -0.00000   0.00192   0.50003
           Z2          -0.00000  -0.00000  -0.00000   0.00000   0.00000
           R1          -0.11195  -0.00164  -0.00000   0.11195   0.00164
           R2          -0.10857  -0.00159  -0.00000   0.10857   0.00159
           R3          -0.11195  -0.00164  -0.00000   0.11195   0.00164
           R4          -0.10857  -0.00159  -0.00000   0.10857   0.00159
           A1          -0.01437  -0.00021  -0.00000   0.01437   0.00021
           A2          -0.01329  -0.00020  -0.00000   0.01329   0.00020
           A3           0.02767   0.00041   0.00000  -0.02767  -0.00041
           A4          -0.01437  -0.00021  -0.00000   0.01437   0.00021
           A5          -0.01329  -0.00020  -0.00000   0.01329   0.00020
           A6           0.02767   0.00041   0.00000  -0.02767  -0.00041
           D1           0.00000   0.00000   0.00000  -0.00000  -0.00000
           D2           0.00000   0.00000   0.00000  -0.00000  -0.00000
           D3           0.00000   0.00000   0.00000  -0.00000  -0.00000
           D4           0.00000   0.00000   0.00000  -0.00000  -0.00000
                          Z2        R1        R2        R3        R4
           Z2           0.50000
           R1           0.00000   0.45313
           R2           0.00000   0.01794   0.44669
           R3           0.00000   0.01893   0.01794   0.45313
           R4           0.00000   0.01794   0.01699   0.01794   0.44669
           A1           0.00000  -0.00585  -0.00578  -0.00585  -0.00578
           A2           0.00000  -0.00576  -0.00568  -0.00576  -0.00568
           A3          -0.00000   0.01161   0.01146   0.01161   0.01146
           A4           0.00000  -0.00585  -0.00578  -0.00585  -0.00578
           A5           0.00000  -0.00576  -0.00568  -0.00576  -0.00568
           A6          -0.00000   0.01161   0.01146   0.01161   0.01146
           D1          -0.00000  -0.00000  -0.00000  -0.00000  -0.00000
           D2          -0.00000  -0.00000  -0.00000  -0.00000  -0.00000
           D3          -0.00000  -0.00000  -0.00000  -0.00000  -0.00000
           D4          -0.00000  -0.00000  -0.00000  -0.00000  -0.00000
                          A1        A2        A3        A4        A5
           A1           0.15729
           A2          -0.00258   0.15753
           A3           0.00529   0.00505   0.14966
           A4          -0.00271  -0.00258   0.00529   0.15729
           A5          -0.00258  -0.00247   0.00505  -0.00258   0.15753
           A6           0.00529   0.00505  -0.01034   0.00529   0.00505
           D1          -0.00000  -0.00000   0.00000  -0.00000  -0.00000
           D2          -0.00000  -0.00000   0.00000  -0.00000  -0.00000
           D3          -0.00000  -0.00000   0.00000  -0.00000  -0.00000
           D4          -0.00000  -0.00000   0.00000  -0.00000  -0.00000
                          A6        D1        D2        D3        D4
           A6           0.14966
           D1           0.00000   0.06208
           D2           0.00000   0.00000   0.06208
           D3           0.00000   0.00000   0.00000   0.06208
           D4           0.00000   0.00000   0.00000   0.00000   0.06208
 ITU=  1  0
 Use linear search instead of GDIIS.
 Linear search step of   0.531 exceeds DXMaxT=   0.505 but not scaled.
 Quartic linear search produced a step of  1.76885.
 Iteration  1 RMS(Cart)=  0.12464465 RMS(Int)=  0.01405742
 Iteration  2 RMS(Cart)=  0.01772715 RMS(Int)=  0.00015911
 Iteration  3 RMS(Cart)=  0.00016418 RMS(Int)=  0.00000001
 Iteration  4 RMS(Cart)=  0.00000001 RMS(Int)=  0.00000000
 ITry= 1 IFail=0 DXMaxC= 3.05D-01 DCOld= 1.00D+10 DXMaxT= 5.05D-01 DXLimC= 3.00D+00 Rises=F
 Variable       Old X    -DE/DX   Delta X   Delta X   Delta X     New X
                                 (Linear)    (Quad)   (Total)
    X1       -1.02859  -0.08296   0.00000   0.00000   0.00000  -1.02859
    Y1        0.00000   0.00105   0.00000   0.00000   0.00000   0.00000
    Z1        0.00000   0.00000   0.00000   0.00000   0.00000   0.00000
    X2        1.02859   0.08296   0.00000   0.00000   0.00000   1.02859
    Y2        0.00000  -0.00105   0.00000   0.00000   0.00000   0.00000
    Z2        0.00000  -0.00000   0.00000   0.00000   0.00000   0.00000
    R1        2.04092   0.03665   0.18106   0.00000   0.18106   2.22198
    R2        2.04494   0.03614   0.17843   0.00000   0.17843   2.22337
    R3        2.04092   0.03665   0.18106   0.00000   0.18106   2.22198
    R4        2.04494   0.03614   0.17843   0.00000   0.17843   2.22337
    A1        2.06669   0.01924   0.11591   0.00000   0.11591   2.18261
    A2        2.05902   0.01828   0.10941   0.00000   0.10941   2.16843
    A3        2.15748  -0.03753  -0.22533   0.00000  -0.22533   1.93215
    A4        2.06669   0.01924   0.11591   0.00000   0.11591   2.18261
    A5        2.05902   0.01828   0.10941   0.00000   0.10941   2.16843
    A6        2.15748  -0.03753  -0.22533   0.00000  -0.22533   1.93215
    D1        3.14159   0.00000   0.00000   0.00000   0.00000   3.14159
    D2        0.00000   0.00000   0.00000   0.00000   0.00000   0.00000
    D3        0.00000   0.00000   0.00000   0.00000   0.00000   0.00000
    D4        3.14159   0.00000   0.00000   0.00000   0.00000   3.14159
         Item               Value     Threshold  Converged?
 Maximum Force            0.037527     0.000450     NO 
 RMS     Force            0.026083     0.000300     NO 
 Maximum Displacement     0.305079     0.001800     NO 
 RMS     Displacement     0.134110     0.001200     NO 
 Predicted change in Energy=-1.476898D-02
 Lowest energy point so far.  Saving SCF results.
 GradGradGradGradGradGradGradGradGradGradGradGradGradGradGradGradGradGrad

 Leave Link  103 at Tue Nov 19 10:49:55 2024, MaxMem=   536870912 cpu:               0.1 elap:               0.0
 (Enter /home/szhao/Apps/g16/l202.exe)
                          Input orientation:                          
 ---------------------------------------------------------------------
 Center     Atomic      Atomic             Coordinates (Angstroms)
 Number     Number       Type             X           Y           Z
 ---------------------------------------------------------------------
      1          6           0       -0.544307    0.000000    0.000000
      2          6           0        0.544307    0.000000    0.000000
      3          1           0       -1.219638   -0.962538    0.000000
      4          1           0       -1.206342    0.972624   -0.000000
      5          1           0        1.219638    0.962538    0.000000
      6          1           0        1.206342   -0.972624   -0.000000
 ---------------------------------------------------------------------
                    Distance matrix (angstroms):
                    1          2          3          4          5
     1  C    0.000000
     2  C    1.088614   0.000000
     3  H    1.175819   2.009472   0.000000
     4  H    1.176557   2.002690   1.935207   0.000000
     5  H    2.009472   1.175819   3.107407   2.426000   0.000000
     6  H    2.002690   1.176557   2.426000   3.099198   1.935207
                    6
     6  H    0.000000
 Symmetry turned off by external request.
 Stoichiometry    C2H4(1+,2)
 Framework group  C2H[SGH(C2H4)]
 Deg. of freedom     5
 Full point group                 C2H     NOp   4
 Rotational constants (GHZ):         133.9016198          38.7498601          30.0528501
 Leave Link  202 at Tue Nov 19 10:49:55 2024, MaxMem=   536870912 cpu:               0.0 elap:               0.0
 (Enter /home/szhao/Apps/g16/l301.exe)
 Standard basis: 6-311+G(d,p) (5D, 7F)
 Ernie: Thresh=  0.10000D-02 Tol=  0.10000D-05 Strict=F.
    68 basis functions,   104 primitive gaussians,    70 cartesian basis functions
     8 alpha electrons        7 beta electrons
       nuclear repulsion energy        35.9525633760 Hartrees.
 IExCor= 4336 DFT=T Ex+Corr=M062X ExCW=0 ScaHFX=  0.540000
 ScaDFX=  1.000000  1.000000  1.000000  1.000000 ScalE2=  1.000000  1.000000
 IRadAn=      7 IRanWt=     -1 IRanGd=            0 ICorTp=0 IEmpDi=  4
 NAtoms=    6 NActive=    6 NUniq=    6 SFac= 1.00D+00 NAtFMM=   60 NAOKFM=F Big=F
 Integral buffers will be    131072 words long.
 Raffenetti 2 integral format.
 Two-electron integral symmetry is turned off.
 Leave Link  301 at Tue Nov 19 10:49:55 2024, MaxMem=   536870912 cpu:               0.3 elap:               0.0
 (Enter /home/szhao/Apps/g16/l302.exe)
 NPDir=0 NMtPBC=     1 NCelOv=     1 NCel=       1 NClECP=     1 NCelD=      1
         NCelK=      1 NCelE2=     1 NClLst=     1 CellRange=     0.0.
 One-electron integrals computed using PRISM.
 NBasis=    68 RedAO= T EigKep=  4.79D-05  NBF=    68
 NBsUse=    68 1.00D-06 EigRej= -1.00D+00 NBFU=    68
 Precomputing XC quadrature grid using
 IXCGrd= 4 IRadAn=           7 IRanWt=          -1 IRanGd=           0 AccXCQ= 0.00D+00.
 Generated NRdTot=       0 NPtTot=           0 NUsed=           0 NTot=          32
 NSgBfM=    70    70    70    70    70 MxSgAt=     6 MxSgA2=     6.
 Leave Link  302 at Tue Nov 19 10:49:55 2024, MaxMem=   536870912 cpu:               1.1 elap:               0.1
 (Enter /home/szhao/Apps/g16/l303.exe)
 DipDrv:  MaxL=1.
 Leave Link  303 at Tue Nov 19 10:49:55 2024, MaxMem=   536870912 cpu:               0.3 elap:               0.0
 (Enter /home/szhao/Apps/g16/l401.exe)
 Initial guess from the checkpoint file:  "opt.chk"
 B after Tr=     0.000000   -0.000000    0.000000
         Rot=    1.000000   -0.000000   -0.000000    0.000823 Ang=   0.09 deg.
 Guess basis will be translated and rotated to current coordinates.
 JPrj=2 DoOrth=T DoCkMO=T.
 Initial guess <Sx>= 0.0000 <Sy>= 0.0000 <Sz>= 0.5000 <S**2>= 0.7566 S= 0.5033
 Generating alternative initial guess.
 ExpMin= 4.38D-02 ExpMax= 4.56D+03 ExpMxC= 6.82D+02 IAcc=3 IRadAn=         5 AccDes= 0.00D+00
 Harris functional with IExCor= 1009 and IRadAn=       5 diagonalized for initial guess.
 HarFok:  IExCor= 1009 AccDes= 0.00D+00 IRadAn=         5 IDoV= 1 UseB2=F ITyADJ=14
 ICtDFT=  3500011 ScaDFX=  1.000000  1.000000  1.000000  1.000000
 FoFCou: FMM=F IPFlag=           0 FMFlag=      100000 FMFlg1=           0
         NFxFlg=           0 DoJE=T BraDBF=F KetDBF=T FulRan=T
         wScrn=  0.000000 ICntrl=       500 IOpCl=  0 I1Cent=   200000004 NGrid=           0
         NMat0=    1 NMatS0=      1 NMatT0=    0 NMatD0=    1 NMtDS0=    0 NMtDT0=    0
 Symmetry not used in FoFCou.
 Harris En= -78.1301821566063    
 Leave Link  401 at Tue Nov 19 10:49:55 2024, MaxMem=   536870912 cpu:               1.9 elap:               0.2
 (Enter /home/szhao/Apps/g16/l502.exe)
 Keep R1 and R2 ints in memory in canonical form, NReq=12681614.
 FoFCou: FMM=F IPFlag=           0 FMFlag=           0 FMFlg1=           0
         NFxFlg=           0 DoJE=F BraDBF=F KetDBF=F FulRan=T
         wScrn=  0.000000 ICntrl=       600 IOpCl=  0 I1Cent=           0 NGrid=           0
         NMat0=    1 NMatS0=   2346 NMatT0=    0 NMatD0=    1 NMtDS0=    0 NMtDT0=    0
 Symmetry not used in FoFCou.
 Two-electron integral symmetry not used.
 UHF open shell SCF:
 Using DIIS extrapolation, IDIIS=  1040.
 NGot=   536870912 LenX=   531353794 LenY=   531348453
 Requested convergence on RMS density matrix=1.00D-08 within 128 cycles.
 Requested convergence on MAX density matrix=1.00D-06.
 Requested convergence on             energy=1.00D-06.
 No special actions if energy rises.

 Cycle   1  Pass 1  IDiag  1:
 E= -78.0252214141809    
 DIIS: error= 1.58D-02 at cycle   1 NSaved=   1.
 NSaved= 1 IEnMin= 1 EnMin= -78.0252214141809     IErMin= 1 ErrMin= 1.58D-02
 ErrMax= 1.58D-02  0.00D+00 EMaxC= 1.00D-01 BMatC= 2.68D-02 BMatP= 2.68D-02
 IDIUse=3 WtCom= 8.42D-01 WtEn= 1.58D-01
 Coeff-Com:  0.100D+01
 Coeff-En:   0.100D+01
 Coeff:      0.100D+01
 Recover alternate guess density for next cycle.
 RMSDP=2.52D-03 MaxDP=5.30D-02              OVMax= 0.00D+00

 Cycle   2  Pass 1  IDiag  1:
 E= -77.9324092492691     Delta-E=        0.092812164912 Rises=F Damp=F
 Switch densities from cycles 1 and 2 for lowest energy.
 DIIS: error= 6.35D-02 at cycle   2 NSaved=   2.
 NSaved= 2 IEnMin= 1 EnMin= -78.0252214141809     IErMin= 1 ErrMin= 1.58D-02
 ErrMax= 6.35D-02  0.00D+00 EMaxC= 1.00D+00 BMatC= 4.74D-01 BMatP= 2.68D-02
 IDIUse=1 WtCom= 1.00D+00 WtEn= 0.00D+00
 Coeff-Com:  0.100D+01-0.217D-02
 Coeff:      0.100D+01-0.217D-02
 Gap=     0.516 Goal=   None    Shift=    0.000
 Gap=     0.202 Goal=   None    Shift=    0.000
 RMSDP=1.32D-03 MaxDP=1.75D-02 DE= 9.28D-02 OVMax= 1.32D-01

 Cycle   3  Pass 1  IDiag  1:
 E= -78.0312772666557     Delta-E=       -0.098868017387 Rises=F Damp=F
 DIIS: error= 3.54D-03 at cycle   3 NSaved=   3.
 NSaved= 3 IEnMin= 3 EnMin= -78.0312772666557     IErMin= 3 ErrMin= 3.54D-03
 ErrMax= 3.54D-03  0.00D+00 EMaxC= 1.00D+00 BMatC= 1.20D-03 BMatP= 2.68D-02
 IDIUse=1 WtCom= 1.00D+00 WtEn= 0.00D+00
 Coeff-Com: -0.302D-01 0.437D-01 0.987D+00
 Coeff:     -0.302D-01 0.437D-01 0.987D+00
 Gap=     0.506 Goal=   None    Shift=    0.000
 Gap=     0.204 Goal=   None    Shift=    0.000
 RMSDP=2.34D-04 MaxDP=4.92D-03 DE=-9.89D-02 OVMax= 7.60D-03

 Cycle   4  Pass 1  IDiag  1:
 E= -78.0315957518703     Delta-E=       -0.000318485215 Rises=F Damp=F
 DIIS: error= 8.77D-04 at cycle   4 NSaved=   4.
 NSaved= 4 IEnMin= 4 EnMin= -78.0315957518703     IErMin= 4 ErrMin= 8.77D-04
 ErrMax= 8.77D-04  0.00D+00 EMaxC= 1.00D+00 BMatC= 3.31D-05 BMatP= 1.20D-03
 IDIUse=1 WtCom= 1.00D+00 WtEn= 0.00D+00
 Coeff-Com: -0.669D-02-0.319D-02 0.578D-01 0.952D+00
 Coeff:     -0.669D-02-0.319D-02 0.578D-01 0.952D+00
 Gap=     0.504 Goal=   None    Shift=    0.000
 Gap=     0.204 Goal=   None    Shift=    0.000
 RMSDP=3.66D-05 MaxDP=6.33D-04 DE=-3.18D-04 OVMax= 1.69D-03

 Cycle   5  Pass 1  IDiag  1:
 E= -78.0316079149406     Delta-E=       -0.000012163070 Rises=F Damp=F
 DIIS: error= 1.57D-04 at cycle   5 NSaved=   5.
 NSaved= 5 IEnMin= 5 EnMin= -78.0316079149406     IErMin= 5 ErrMin= 1.57D-04
 ErrMax= 1.57D-04  0.00D+00 EMaxC= 1.00D+00 BMatC= 1.58D-06 BMatP= 3.31D-05
 IDIUse=1 WtCom= 1.00D+00 WtEn= 0.00D+00
 Coeff-Com:  0.213D-02-0.850D-03-0.509D-01-0.178D+00 0.123D+01
 Coeff:      0.213D-02-0.850D-03-0.509D-01-0.178D+00 0.123D+01
 Gap=     0.504 Goal=   None    Shift=    0.000
 Gap=     0.204 Goal=   None    Shift=    0.000
 RMSDP=1.37D-05 MaxDP=2.78D-04 DE=-1.22D-05 OVMax= 6.10D-04

 Cycle   6  Pass 1  IDiag  1:
 E= -78.0316090950884     Delta-E=       -0.000001180148 Rises=F Damp=F
 DIIS: error= 2.99D-05 at cycle   6 NSaved=   6.
 NSaved= 6 IEnMin= 6 EnMin= -78.0316090950884     IErMin= 6 ErrMin= 2.99D-05
 ErrMax= 2.99D-05  0.00D+00 EMaxC= 1.00D+00 BMatC= 9.76D-08 BMatP= 1.58D-06
 IDIUse=1 WtCom= 1.00D+00 WtEn= 0.00D+00
 Coeff-Com:  0.135D-04 0.394D-03 0.909D-02-0.218D-01-0.291D+00 0.130D+01
 Coeff:      0.135D-04 0.394D-03 0.909D-02-0.218D-01-0.291D+00 0.130D+01
 Gap=     0.505 Goal=   None    Shift=    0.000
 Gap=     0.204 Goal=   None    Shift=    0.000
 RMSDP=4.63D-06 MaxDP=6.32D-05 DE=-1.18D-06 OVMax= 1.62D-04

 Cycle   7  Pass 1  IDiag  1:
 E= -78.0316091733563     Delta-E=       -0.000000078268 Rises=F Damp=F
 DIIS: error= 4.05D-06 at cycle   7 NSaved=   7.
 NSaved= 7 IEnMin= 7 EnMin= -78.0316091733563     IErMin= 7 ErrMin= 4.05D-06
 ErrMax= 4.05D-06  0.00D+00 EMaxC= 1.00D+00 BMatC= 1.53D-09 BMatP= 9.76D-08
 IDIUse=1 WtCom= 1.00D+00 WtEn= 0.00D+00
 Coeff-Com: -0.262D-04-0.247D-04 0.939D-03 0.466D-02-0.173D-01-0.655D-01
 Coeff-Com:  0.108D+01
 Coeff:     -0.262D-04-0.247D-04 0.939D-03 0.466D-02-0.173D-01-0.655D-01
 Coeff:      0.108D+01
 Gap=     0.505 Goal=   None    Shift=    0.000
 Gap=     0.204 Goal=   None    Shift=    0.000
 RMSDP=5.05D-07 MaxDP=7.73D-06 DE=-7.83D-08 OVMax= 1.84D-05

 Cycle   8  Pass 1  IDiag  1:
 E= -78.0316091742164     Delta-E=       -0.000000000860 Rises=F Damp=F
 DIIS: error= 6.78D-07 at cycle   8 NSaved=   8.
 NSaved= 8 IEnMin= 8 EnMin= -78.0316091742164     IErMin= 8 ErrMin= 6.78D-07
 ErrMax= 6.78D-07  0.00D+00 EMaxC= 1.00D+00 BMatC= 2.03D-11 BMatP= 1.53D-09
 IDIUse=1 WtCom= 1.00D+00 WtEn= 0.00D+00
 Coeff-Com:  0.180D-05-0.158D-05-0.244D-03 0.125D-04 0.749D-02-0.215D-01
 Coeff-Com: -0.768D-01 0.109D+01
 Coeff:      0.180D-05-0.158D-05-0.244D-03 0.125D-04 0.749D-02-0.215D-01
 Coeff:     -0.768D-01 0.109D+01
 Gap=     0.505 Goal=   None    Shift=    0.000
 Gap=     0.204 Goal=   None    Shift=    0.000
 RMSDP=5.60D-08 MaxDP=7.40D-07 DE=-8.60D-10 OVMax= 2.18D-06

 Cycle   9  Pass 1  IDiag  1:
 E= -78.0316091742263     Delta-E=       -0.000000000010 Rises=F Damp=F
 DIIS: error= 8.14D-08 at cycle   9 NSaved=   9.
 NSaved= 9 IEnMin= 9 EnMin= -78.0316091742263     IErMin= 9 ErrMin= 8.14D-08
 ErrMax= 8.14D-08  0.00D+00 EMaxC= 1.00D+00 BMatC= 2.14D-13 BMatP= 2.03D-11
 IDIUse=1 WtCom= 1.00D+00 WtEn= 0.00D+00
 Coeff-Com:  0.581D-07 0.327D-06 0.225D-04-0.601D-04-0.811D-03 0.394D-02
 Coeff-Com: -0.487D-02-0.122D+00 0.112D+01
 Coeff:      0.581D-07 0.327D-06 0.225D-04-0.601D-04-0.811D-03 0.394D-02
 Coeff:     -0.487D-02-0.122D+00 0.112D+01
 Gap=     0.505 Goal=   None    Shift=    0.000
 Gap=     0.204 Goal=   None    Shift=    0.000
 RMSDP=7.66D-09 MaxDP=1.08D-07 DE=-9.95D-12 OVMax= 2.46D-07

 SCF Done:  E(UM062X) =  -78.0316091742     A.U. after    9 cycles
            NFock=  9  Conv=0.77D-08     -V/T= 1.9943
 <Sx>= 0.0000 <Sy>= 0.0000 <Sz>= 0.5000 <S**2>= 0.7579 S= 0.5040
 <L.S>=  0.00000000000    
 KE= 7.847654023000D+01 PE=-2.487984572363D+02 EE= 5.633774445606D+01
 Annihilation of the first spin contaminant:
 S**2 before annihilation     0.7579,   after     0.7500
 Leave Link  502 at Tue Nov 19 10:50:01 2024, MaxMem=   536870912 cpu:              41.8 elap:               5.4
 (Enter /home/szhao/Apps/g16/l701.exe)
 ... and contract with generalized density number  0.
 Compute integral first derivatives.
 Leave Link  701 at Tue Nov 19 10:50:01 2024, MaxMem=   536870912 cpu:               0.8 elap:               0.1
 (Enter /home/szhao/Apps/g16/l702.exe)
 L702 exits ... SP integral derivatives will be done elsewhere.
 Leave Link  702 at Tue Nov 19 10:50:01 2024, MaxMem=   536870912 cpu:               0.3 elap:               0.0
 (Enter /home/szhao/Apps/g16/l703.exe)
 Integral derivatives from FoFJK, PRISM(SPDF).
 Compute integral first derivatives, UseDBF=F ICtDFT=           0.
 Calling FoFJK, ICntrl=      2127 FMM=F ISym2X=0 I1Cent= 0 IOpClX= 1 NMat=1 NMatS=1 NMatT=0.
 FoFJK:  IHMeth= 1 ICntrl=    2127 DoSepK=F KAlg= 0 I1Cent=           0 FoldK=F
 IRaf=         0 NMat=       1 IRICut=       1 DoRegI=T DoRafI=F ISym2E= 0 IDoP0=0 IntGTp=1.
 FoFCou: FMM=F IPFlag=           0 FMFlag=      100000 FMFlg1=         800
         NFxFlg=           0 DoJE=F BraDBF=F KetDBF=F FulRan=T
         wScrn=  0.000000 ICntrl=      2127 IOpCl=  1 I1Cent=           0 NGrid=           0
         NMat0=    1 NMatS0=      1 NMatT0=    0 NMatD0=    1 NMtDS0=    0 NMtDT0=    0
 Symmetry not used in FoFCou.
 Leave Link  703 at Tue Nov 19 10:50:02 2024, MaxMem=   536870912 cpu:               8.8 elap:               1.1
 (Enter /home/szhao/Apps/g16/l716.exe)
 Dipole        = 5.19701926D-09-2.84150481D-11-1.86308915D-12
 -------------------------------------------------------------------
 Center     Atomic                   Forces (Hartrees/Bohr)
 Number     Number              X              Y              Z
 -------------------------------------------------------------------
      1        6          -0.000000000   -0.000000000   -0.000000000
      2        6          -0.000000000   -0.000000000   -0.000000000
      3        1           0.001261211    0.023454945    0.000000000
      4        1           0.000510729   -0.022756161   -0.000000000
      5        1          -0.001261212   -0.023454945    0.000000000
      6        1          -0.000510729    0.022756161   -0.000000000
 -------------------------------------------------------------------
 Cartesian Forces:  Max     0.023454945 RMS     0.010902746
 Leave Link  716 at Tue Nov 19 10:50:02 2024, MaxMem=   536870912 cpu:               0.3 elap:               0.0
 (Enter /home/szhao/Apps/g16/l103.exe)

 GradGradGradGradGradGradGradGradGradGradGradGradGradGradGradGradGradGrad
 Berny optimization.
 Using GEDIIS/GDIIS optimizer.
 FormGI is forming the generalized inverse of G from B-inverse, IUseBI=4.
 Internal  Forces:  Max     0.019924837 RMS     0.011282074
 Search for a local minimum.
 Step number   3 out of a maximum of   30
 All quantities printed in internal units (Hartrees-Bohrs-Radians)
 RMS Force = .13465D-01 SwitMx=.10000D-02 MixMth= 1
 Mixed Optimization -- RFO/linear search
 Update second derivatives using D2CorX and points    2    3
 The second derivative matrix:
                          X1        Y1        Z1        X2        Y2
           X1           0.63510
           Y1          -0.00040   0.50000
           Z1          -0.00000   0.00000   0.50000
           X2          -0.13510   0.00040   0.00000   0.63510
           Y2           0.00040  -0.00000  -0.00000  -0.00040   0.50000
           Z2           0.00000  -0.00000  -0.00000  -0.00000   0.00000
           R1          -0.09020   0.00027   0.00000   0.09020  -0.00027
           R2          -0.08808   0.00026   0.00000   0.08808  -0.00026
           R3          -0.09020   0.00027   0.00000   0.09020  -0.00027
           R4          -0.08808   0.00026   0.00000   0.08808  -0.00026
           A1          -0.01594   0.00005   0.00000   0.01594  -0.00005
           A2          -0.01458   0.00004   0.00000   0.01458  -0.00004
           A3           0.03051  -0.00009  -0.00000  -0.03051   0.00009
           A4          -0.01594   0.00005   0.00000   0.01594  -0.00005
           A5          -0.01458   0.00004   0.00000   0.01458  -0.00004
           A6           0.03051  -0.00009  -0.00000  -0.03051   0.00009
           D1           0.00000  -0.00000  -0.00000  -0.00000   0.00000
           D2           0.00000  -0.00000  -0.00000  -0.00000   0.00000
           D3           0.00000  -0.00000  -0.00000  -0.00000   0.00000
           D4           0.00000  -0.00000  -0.00000  -0.00000   0.00000
                          Z2        R1        R2        R3        R4
           Z2           0.50000
           R1          -0.00000   0.41736
           R2          -0.00000  -0.01634   0.41383
           R3          -0.00000  -0.01683  -0.01634   0.41736
           R4          -0.00000  -0.01634  -0.01587  -0.01634   0.41383
           A1          -0.00000  -0.00754  -0.00734  -0.00754  -0.00734
           A2          -0.00000  -0.00743  -0.00723  -0.00743  -0.00723
           A3           0.00000   0.01496   0.01457   0.01496   0.01457
           A4          -0.00000  -0.00754  -0.00734  -0.00754  -0.00734
           A5          -0.00000  -0.00743  -0.00723  -0.00743  -0.00723
           A6           0.00000   0.01496   0.01457   0.01496   0.01457
[...]
           A6           0.03132  -0.00104  -0.00000  -0.03132   0.00104
           D1          -0.00000   0.00000   0.00000   0.00000  -0.00000
           D2          -0.00000   0.00000   0.00000   0.00000  -0.00000
           D3          -0.00000   0.00000   0.00000   0.00000  -0.00000
           D4          -0.00000   0.00000   0.00000   0.00000  -0.00000
                          Z2        R1        R2        R3        R4
           Z2           0.50000
           R1          -0.00000   0.39371
           R2          -0.00000  -0.03650   0.39683
           R3          -0.00000  -0.04048  -0.03650   0.39371
           R4          -0.00000  -0.03650  -0.03286  -0.03650   0.39683
           A1          -0.00000   0.00194   0.00223   0.00194   0.00223
           A2          -0.00000  -0.00118  -0.00066  -0.00118  -0.00066
           A3           0.00000  -0.00076  -0.00158  -0.00076  -0.00158
           A4          -0.00000   0.00194   0.00223   0.00194   0.00223
           A5          -0.00000  -0.00118  -0.00066  -0.00118  -0.00066
           A6           0.00000  -0.00076  -0.00157  -0.00076  -0.00158
           D1          -0.00000   0.00000   0.00000   0.00000   0.00000
           D2          -0.00000   0.00000   0.00000   0.00000   0.00000
           D3          -0.00000   0.00000   0.00000   0.00000   0.00000
           D4          -0.00000   0.00000   0.00000   0.00000   0.00000
                          A1        A2        A3        A4        A5
           A1           0.15384
           A2          -0.00676   0.15252
           A3           0.01292   0.01424   0.13284
           A4          -0.00616  -0.00676   0.01292   0.15384
           A5          -0.00676  -0.00748   0.01424  -0.00676   0.15252
           A6           0.01292   0.01424  -0.02716   0.01292   0.01424
           D1           0.00000   0.00000  -0.00000   0.00000   0.00000
           D2           0.00000   0.00000  -0.00000   0.00000   0.00000
           D3           0.00000   0.00000  -0.00000   0.00000   0.00000
           D4           0.00000   0.00000  -0.00000   0.00000   0.00000
                          A6        D1        D2        D3        D4
           A6           0.13284
           D1          -0.00000   0.06208
           D2          -0.00000   0.00000   0.06208
           D3          -0.00000   0.00000   0.00000   0.06208
           D4          -0.00000   0.00000   0.00000   0.00000   0.06208
 ITU=  1  1  1  0  1  0
     Eigenvalues ---    0.06208   0.06208   0.06208   0.07839   0.15965
     Eigenvalues ---    0.16000   0.16000   0.28576   0.42970   0.43181
     Eigenvalues ---    0.434191000.000001000.000001000.000001000.00000
     Eigenvalues --- 1000.000001000.000001000.000001000.000001000.00000
 En-DIIS/RFO-DIIS/Sim-DIIS IScMMF=       -3 using points:     6    5
 RFO step:  Lambda=-1.82616065D-07.
 NNeg= 0 NGDIIS= 2 SimSw=  2.50D-01 Rises=F DC= -1.70D-05 SmlDif=  1.00D-05
 NRisDI= 0 DoIntr=F SqrtH=F CThrHd= 10.0 CDAdj=  3.0
 RMS Error=  0.2709243281D-03 NUsed= 2 OKEnD=T EnDIS=F
 InvSVX:  RCond= 4.17D-05 Info=           0 Equed=N FErr=  1.05D-15 BErr=  2.97D-17
 DidBck=F Rises=F RFO-DIIS coefs:    1.07947   -0.07947
 Iteration  1 RMS(Cart)=  0.00038802 RMS(Int)=  0.00000010
 Iteration  2 RMS(Cart)=  0.00000011 RMS(Int)=  0.00000000
 ITry= 1 IFail=0 DXMaxC= 9.79D-04 DCOld= 1.00D+10 DXMaxT= 7.10D-01 DXLimC= 3.00D+00 Rises=F
 Variable       Old X    -DE/DX   Delta X   Delta X   Delta X     New X
                                 (Linear)    (Quad)   (Total)
    X1       -1.02859  -0.00013   0.00000   0.00000   0.00000  -1.02859
    Y1        0.00000  -0.00015   0.00000   0.00000   0.00000   0.00000
    Z1        0.00000  -0.00000   0.00000   0.00000   0.00000   0.00000
    X2        1.02859   0.00013   0.00000   0.00000   0.00000   1.02859
    Y2        0.00000   0.00015   0.00000   0.00000   0.00000   0.00000
    Z2        0.00000   0.00000   0.00000   0.00000   0.00000   0.00000
    R1        2.14097   0.00009   0.00037  -0.00007   0.00029   2.14126
    R2        2.14514   0.00003   0.00035  -0.00021   0.00013   2.14527
    R3        2.14097   0.00009   0.00037  -0.00007   0.00029   2.14126
    R4        2.14514   0.00003   0.00035  -0.00021   0.00013   2.14527
    A1        2.30442  -0.00002   0.00020  -0.00018   0.00002   2.30444
    A2        2.28948   0.00006   0.00023   0.00032   0.00055   2.29003
    A3        1.68928  -0.00004  -0.00043  -0.00014  -0.00057   1.68871
    A4        2.30442  -0.00002   0.00020  -0.00018   0.00002   2.30444
    A5        2.28948   0.00006   0.00023   0.00032   0.00055   2.29003
    A6        1.68928  -0.00004  -0.00043  -0.00014  -0.00057   1.68871
    D1        3.14159  -0.00000   0.00000  -0.00000   0.00000   3.14159
    D2       -0.00000  -0.00000   0.00000  -0.00000   0.00000   0.00000
    D3       -0.00000  -0.00000   0.00000  -0.00000   0.00000   0.00000
    D4        3.14159  -0.00000   0.00000  -0.00000   0.00000   3.14159
         Item               Value     Threshold  Converged?
 Maximum Force            0.000094     0.000450     YES
 RMS     Force            0.000048     0.000300     YES
 Maximum Displacement     0.000979     0.001800     YES
 RMS     Displacement     0.000388     0.001200     YES
 Predicted change in Energy=-9.126876D-08
 Optimization completed.
    -- Stationary point found.
                           ----------------------------
                           !   Optimized Parameters   !
                           ! (Angstroms and Degrees)  !
 --------------------------                            --------------------------
 ! Name  Definition              Value          Derivative Info.                !
 --------------------------------------------------------------------------------
 ! X1    R(1,-1)                -0.5443         -DE/DX =   -0.0001              !
 ! Y1    R(1,-2)                 0.0            -DE/DX =   -0.0002              !
 ! Z1    R(1,-3)                 0.0            -DE/DX =    0.0                 !
 ! X2    R(2,-1)                 0.5443         -DE/DX =    0.0001              !
 ! Y2    R(2,-2)                 0.0            -DE/DX =    0.0002              !
 ! Z2    R(2,-3)                 0.0            -DE/DX =    0.0                 !
 ! R1    R(1,3)                  1.133          -DE/DX =    0.0001              !
 ! R2    R(1,4)                  1.1352         -DE/DX =    0.0                 !
 ! R3    R(2,5)                  1.133          -DE/DX =    0.0001              !
 ! R4    R(2,6)                  1.1352         -DE/DX =    0.0                 !
 ! A1    A(2,1,3)              132.0338         -DE/DX =    0.0                 !
 ! A2    A(2,1,4)              131.1777         -DE/DX =    0.0001              !
 ! A3    A(3,1,4)               96.7885         -DE/DX =    0.0                 !
 ! A4    A(1,2,5)              132.0338         -DE/DX =    0.0                 !
 ! A5    A(1,2,6)              131.1777         -DE/DX =    0.0001              !
 ! A6    A(5,2,6)               96.7885         -DE/DX =    0.0                 !
 ! D1    D(3,1,2,5)            180.0            -DE/DX =    0.0                 !
 ! D2    D(3,1,2,6)              0.0            -DE/DX =    0.0                 !
 ! D3    D(4,1,2,5)              0.0            -DE/DX =    0.0                 !
 ! D4    D(4,1,2,6)            180.0            -DE/DX =    0.0                 !
 --------------------------------------------------------------------------------
 Lowest energy point so far.  Saving SCF results.
 Largest change from initial coordinates is atom    3       0.332 Angstoms.
 GradGradGradGradGradGradGradGradGradGradGradGradGradGradGradGradGradGrad

 Leave Link  103 at Tue Nov 19 10:50:23 2024, MaxMem=   536870912 cpu:               0.0 elap:               0.0
 (Enter /home/szhao/Apps/g16/l202.exe)
                          Input orientation:                          
 ---------------------------------------------------------------------
 Center     Atomic      Atomic             Coordinates (Angstroms)
 Number     Number       Type             X           Y           Z
 ---------------------------------------------------------------------
      1          6           0       -0.544307    0.000000    0.000000
      2          6           0        0.544307    0.000000    0.000000
      3          1           0       -1.302896   -0.841500   -0.000000
      4          1           0       -1.291691    0.854402    0.000000
      5          1           0        1.302896    0.841500   -0.000000
      6          1           0        1.291691   -0.854402    0.000000
 ---------------------------------------------------------------------
                    Distance matrix (angstroms):
                    1          2          3          4          5
     1  C    0.000000
     2  C    1.088614   0.000000
     3  H    1.132952   2.029847   0.000000
     4  H    1.135159   2.025065   1.695939   0.000000
     5  H    2.029848   1.132952   3.102038   2.594619   0.000000
     6  H    2.025065   1.135159   2.594619   3.097397   1.695939
                    6
     6  H    0.000000
 Symmetry turned off by external request.
 Stoichiometry    C2H4(1+,2)
 Framework group  CS[SG(C2H4)]
 Deg. of freedom     9
 Full point group                 CS      NOp   2
 Rotational constants (GHZ):         174.3445893          36.3708086          30.0929773
 Leave Link  202 at Tue Nov 19 10:50:23 2024, MaxMem=   536870912 cpu:               0.0 elap:               0.0
 (Enter /home/szhao/Apps/g16/l601.exe)
 Copying SCF densities to generalized density rwf, IOpCl= 1 IROHF=0.

 **********************************************************************

            Population analysis using the SCF density.

 **********************************************************************

 Alpha  occ. eigenvalues --  -10.82543 -10.81909  -1.22350  -0.97452  -0.86337
 Alpha  occ. eigenvalues --   -0.85588  -0.68601  -0.67438
 Alpha virt. eigenvalues --   -0.18592  -0.15989  -0.15114  -0.13796  -0.10271
 Alpha virt. eigenvalues --   -0.08702  -0.07415  -0.06868  -0.03090  -0.02932
 Alpha virt. eigenvalues --   -0.00260   0.02254   0.12280   0.16570   0.20471
 Alpha virt. eigenvalues --    0.21467   0.26524   0.30296   0.33748   0.33864
 Alpha virt. eigenvalues --    0.42611   0.46075   0.48948   0.51886   0.54521
 Alpha virt. eigenvalues --    0.74354   0.87848   0.89380   0.91563   1.05475
 Alpha virt. eigenvalues --    1.24675   1.30700   1.37895   1.38036   1.39351
 Alpha virt. eigenvalues --    1.39968   1.40535   1.62676   1.72471   1.77983
 Alpha virt. eigenvalues --    1.80963   1.87680   2.05137   2.09449   2.09914
 Alpha virt. eigenvalues --    2.25263   2.30069   2.34452   2.40870   2.41316
 Alpha virt. eigenvalues --    2.52547   2.69434   2.71032   3.02815   3.08842
 Alpha virt. eigenvalues --    3.51902   3.55847   3.57105  23.41203  25.11539
  Beta  occ. eigenvalues --  -10.82539 -10.81889  -1.21115  -0.92671  -0.83352
  Beta  occ. eigenvalues --   -0.80061  -0.68232
  Beta virt. eigenvalues --   -0.46665  -0.18254  -0.15031  -0.15026  -0.13587
  Beta virt. eigenvalues --   -0.10116  -0.08600  -0.05319  -0.05276  -0.02673
  Beta virt. eigenvalues --   -0.02447   0.00119   0.02984   0.12624   0.16551
  Beta virt. eigenvalues --    0.20194   0.21720   0.27224   0.30307   0.33031
  Beta virt. eigenvalues --    0.34467   0.42658   0.46375   0.48724   0.51397
  Beta virt. eigenvalues --    0.54116   0.74775   0.87674   0.89681   0.92289
  Beta virt. eigenvalues --    1.05643   1.26029   1.30484   1.37504   1.38580
  Beta virt. eigenvalues --    1.38768   1.39609   1.40387   1.62432   1.74345
  Beta virt. eigenvalues --    1.77841   1.80656   1.87522   2.07006   2.10002
  Beta virt. eigenvalues --    2.11307   2.27345   2.29270   2.33792   2.40067
  Beta virt. eigenvalues --    2.40514   2.52096   2.69130   2.70282   3.03822
  Beta virt. eigenvalues --    3.08466   3.51092   3.55228   3.56986  23.41148
  Beta virt. eigenvalues --   25.11536
          Condensed to atoms (all electrons):
               1          2          3          4          5          6
     1  C    4.668575   0.860295   0.312528   0.312095   0.003420   0.001898
     2  C    0.860295   4.668575   0.003420   0.001898   0.312528   0.312095
     3  H    0.312528   0.003420   0.363558  -0.008163   0.002036  -0.002631
     4  H    0.312095   0.001898  -0.008163   0.365086  -0.002631   0.002156
     5  H    0.003420   0.312528   0.002036  -0.002631   0.363558  -0.008163
     6  H    0.001898   0.312095  -0.002631   0.002156  -0.008163   0.365086
          Atomic-Atomic Spin Densities.
               1          2          3          4          5          6
     1  C    0.129513  -0.124793   0.075426   0.076589  -0.017903  -0.018708
     2  C   -0.124793   0.129513  -0.017903  -0.018708   0.075426   0.076589
     3  H    0.075426  -0.017903   0.151929  -0.019540   0.001545  -0.004197
     4  H    0.076589  -0.018708  -0.019540   0.156816  -0.004197   0.001657
     5  H   -0.017903   0.075426   0.001545  -0.004197   0.151929  -0.019540
     6  H   -0.018708   0.076589  -0.004197   0.001657  -0.019540   0.156816
 Mulliken charges and spin densities:
               1          2
     1  C   -0.158811   0.120124
     2  C   -0.158811   0.120124
     3  H    0.329252   0.187260
     4  H    0.329559   0.192616
     5  H    0.329252   0.187260
     6  H    0.329559   0.192616
 Sum of Mulliken charges =   1.00000   1.00000
 Mulliken charges and spin densities with hydrogens summed into heavy atoms:
               1          2
     1  C    0.500000   0.500000
     2  C    0.500000   0.500000
 Electronic spatial extent (au):  <R**2>=             63.7701
 Charge=              1.0000 electrons
 Dipole moment (field-independent basis, Debye):
    X=             -0.0000    Y=              0.0000    Z=              0.0000  Tot=              0.0000
 Quadrupole moment (field-independent basis, Debye-Ang):
   XX=             -2.2717   YY=             -7.4354   ZZ=            -12.8389
   XY=             -0.0322   XZ=             -0.0000   YZ=              0.0000
 Traceless Quadrupole moment (field-independent basis, Debye-Ang):
   XX=              5.2436   YY=              0.0799   ZZ=             -5.3235
   XY=             -0.0322   XZ=             -0.0000   YZ=              0.0000
 Octapole moment (field-independent basis, Debye-Ang**2):
  XXX=             -0.0000  YYY=             -0.0000  ZZZ=             -0.0000  XYY=              0.0000
  XXY=              0.0000  XXZ=              0.0000  XZZ=             -0.0000  YZZ=             -0.0000
  YYZ=              0.0000  XYZ=             -0.0000
 Hexadecapole moment (field-independent basis, Debye-Ang**3):
 XXXX=            -31.4481 YYYY=            -15.5839 ZZZZ=            -12.5284 XXXY=              0.1021
 XXXZ=             -0.0000 YYYX=             -0.1018 YYYZ=              0.0000 ZZZX=              0.0000
 ZZZY=             -0.0000 XXYY=             -2.1443 XXZZ=            -10.6027 YYZZ=             -5.5121
 XXYZ=              0.0000 YYXZ=             -0.0000 ZZXY=              0.0077
 N-N= 3.633618471908D+01 E-N=-2.495916994587D+02  KE= 7.862935855957D+01
                          Isotropic Fermi Contact Couplings
        Atom                 a.u.       MegaHertz       Gauss      10(-4) cm-1
     1  C(13)             -0.04719     -53.05476     -18.93126     -17.69716
     2  C(13)             -0.04719     -53.05477     -18.93126     -17.69717
     3  H(1)               0.10559     471.97893     168.41382     157.43522
     4  H(1)               0.10830     484.07168     172.72881     161.46893
     5  H(1)               0.10559     471.97892     168.41382     157.43522
     6  H(1)               0.10830     484.07167     172.72881     161.46893
 --------------------------------------------------------
       Center         ----  Spin Dipole Couplings  ----
                      3XX-RR        3YY-RR        3ZZ-RR
 --------------------------------------------------------
     1   Atom       -0.131509      0.271129     -0.139620
     2   Atom       -0.131509      0.271129     -0.139620
     3   Atom        0.027115     -0.002755     -0.024360
     4   Atom        0.025429     -0.001166     -0.024262
     5   Atom        0.027115     -0.002755     -0.024360
     6   Atom        0.025429     -0.001166     -0.024262
 --------------------------------------------------------
                        XY            XZ            YZ
 --------------------------------------------------------
     1   Atom       -0.002283      0.000000     -0.000000
     2   Atom       -0.002283     -0.000000      0.000000
     3   Atom        0.035948      0.000000      0.000000
     4   Atom       -0.036829     -0.000000      0.000000
     5   Atom        0.035948     -0.000000     -0.000000
     6   Atom       -0.036829      0.000000     -0.000000
 --------------------------------------------------------


 ---------------------------------------------------------------------------------
              Anisotropic Spin Dipole Couplings in Principal Axis System
 ---------------------------------------------------------------------------------

       Atom             a.u.   MegaHertz   Gauss  10(-4) cm-1        Axes

              Baa    -0.1396   -18.736    -6.685    -6.250  0.0000  0.0000  1.0000
     1 C(13)  Bbb    -0.1315   -17.649    -6.298    -5.887  1.0000  0.0057 -0.0000
              Bcc     0.2711    36.385    12.983    12.137 -0.0057  1.0000 -0.0000
 
              Baa    -0.1396   -18.736    -6.685    -6.250  0.0000 -0.0000  1.0000
     2 C(13)  Bbb    -0.1315   -17.649    -6.298    -5.887  1.0000  0.0057 -0.0000
              Bcc     0.2711    36.385    12.983    12.137 -0.0057  1.0000  0.0000
 
              Baa    -0.0267   -14.271    -5.092    -4.760 -0.5551  0.8318 -0.0000
     3 H(1)   Bbb    -0.0244   -12.997    -4.638    -4.335 -0.0000 -0.0000  1.0000
              Bcc     0.0511    27.268     9.730     9.096  0.8318  0.5551  0.0000
 
              Baa    -0.0270   -14.419    -5.145    -4.810  0.5746  0.8184  0.0000
     4 H(1)   Bbb    -0.0243   -12.945    -4.619    -4.318  0.0000 -0.0000  1.0000
              Bcc     0.0513    27.365     9.764     9.128  0.8184 -0.5746 -0.0000
 
              Baa    -0.0267   -14.271    -5.092    -4.760 -0.5551  0.8318 -0.0000
     5 H(1)   Bbb    -0.0244   -12.997    -4.638    -4.335  0.0000  0.0000  1.0000
              Bcc     0.0511    27.268     9.730     9.096  0.8318  0.5551 -0.0000
 
              Baa    -0.0270   -14.419    -5.145    -4.810  0.5746  0.8184  0.0000
     6 H(1)   Bbb    -0.0243   -12.945    -4.619    -4.318 -0.0000  0.0000  1.0000
              Bcc     0.0513    27.365     9.764     9.128  0.8184 -0.5746  0.0000
 

 ---------------------------------------------------------------------------------

 No NMR shielding tensors so no spin-rotation constants.
 Leave Link  601 at Tue Nov 19 10:50:23 2024, MaxMem=   536870912 cpu:               1.3 elap:               0.2
 (Enter /home/szhao/Apps/g16/l9999.exe)
 1\1\GINC-NODE01\FOpt\UM062X\6-311+G(d,p)\C2H4(1+,2)\SZHAO\19-Nov-2024\
 0\\#p opt UM062X/6-311+G** nosymm int=superfine\\Title Card Required\\
 1,2\C,-0.54430684,0.,0.\C,0.54430684,0.,0.\H,-1.3028961433,-0.84149985
 03,-0.0000000011\H,-1.2916906297,0.8544018017,0.0000000015\H,1.3028961
 445,0.8414998888,-0.0000000014\H,1.2916906312,-0.8544018392,0.00000000
 12\\Version=ES64L-G16RevA.03\HF=-78.0417392\S2=0.757403\S2-1=0.\S2A=0.
 75003\RMSD=6.611e-09\RMSF=3.695e-05\Dipole=-0.0000001,0.,0.\Quadrupole
 =3.8985153,0.0594061,-3.9579214,-0.0239117,0.,0.\PG=CS [SG(C2H4)]\\@


 FROM THE ASHES OF OUR DESPAIR GROW THE FLOWERS OF TOMORROW.
 Job cpu time:       0 days  0 hours  5 minutes 43.5 seconds.
 Elapsed time:       0 days  0 hours  0 minutes 43.6 seconds.
 File lengths (MBytes):  RWF=     10 Int=      0 D2E=      0 Chk=      2 Scr=      1
 Normal termination of Gaussian 16 at Tue Nov 19 10:50:23 2024.
