Title Card Required                                                     
FOpt      UM062X                                                      6-311+G(d,p)        
Number of atoms                            I                6
Info1-9                                    I   N=           9
          15          15           0           0           0         110
           2          18        -502
Full Title                                 C   N=           2
Title Card Required     
Route                                      C   N=           5
#p opt UM062X/6-311+G** nosymm int=superfine SCF=NoVarAcc   
Charge                                     I                1
Multiplicity                               I                2
Number of electrons                        I               15
Number of alpha electrons                  I                8
Number of beta electrons                   I                7
Number of basis functions                  I               68
Number of independent functions            I               68
Number of point charges in /Mol/           I                0
Number of translation vectors              I                0
Atomic numbers                             I   N=           6
           6           6           1           1           1           1
Nuclear charges                            R   N=           6
  6.00000000E+00  6.00000000E+00  1.00000000E+00  1.00000000E+00  1.00000000E+00
  1.00000000E+00
Current cartesian coordinates              R   N=          18
 -2.65700595E+00  0.00000000E+00  0.00000000E+00  2.65700595E+00  0.00000000E+00
  0.00000000E+00 -3.39012192E+00 -1.91708600E+00  3.19099660E-09 -3.39009112E+00
  1.91711351E+00  3.05585163E-09  3.39012207E+00  1.91708590E+00 -2.88504808E-09
  3.39009128E+00 -1.91711340E+00 -3.02041862E-09
Number of symbols in /Mol/                 I                0
Force Field                                I                0
Atom Types                                 C   N=           6
                                                            
            
Int Atom Types                             I   N=           6
           0           0           0           0           0           0
MM charges                                 R   N=           6
  0.00000000E+00  0.00000000E+00  0.00000000E+00  0.00000000E+00  0.00000000E+00
  0.00000000E+00
Integer atomic weights                     I   N=           6
          12          12           1           1           1           1
Real atomic weights                        R   N=           6
  1.20000000E+01  1.20000000E+01  1.00782504E+00  1.00782504E+00  1.00782504E+00
  1.00782504E+00
Atom fragment info                         I   N=           6
           0           0           0           0           0           0
Atom residue num                           I   N=           6
           0           0           0           0           0           0
Nuclear spins                              I   N=           6
           0           0           1           1           1           1
Nuclear ZEff                               R   N=           6
 -3.60000000E+00 -3.60000000E+00 -1.00000000E+00 -1.00000000E+00 -1.00000000E+00
 -1.00000000E+00
Nuclear ZNuc                               R   N=           6
  6.00000000E+00  6.00000000E+00  1.00000000E+00  1.00000000E+00  1.00000000E+00
  1.00000000E+00
Nuclear QMom                               R   N=           6
  0.00000000E+00  0.00000000E+00  0.00000000E+00  0.00000000E+00  0.00000000E+00
  0.00000000E+00
Nuclear GFac                               R   N=           6
  0.00000000E+00  0.00000000E+00  2.79284600E+00  2.79284600E+00  2.79284600E+00
  2.79284600E+00
MicOpt                                     I   N=           6
          -2          -2          -1          -1          -1          -1
Number of residues                         I                0
Number of secondary structures             I                0
Redundant internal dimensions              I   N=           4
          20          10           6           4
Redundant internal coordinate indices      I   N=          80
           1          -1           0           0           1          -2
           0           0           1          -3           0           0
           2          -1           0           0           2          -2
           0           0           2          -3           0           0
           1           3           0           0           1           4
           0           0           2           5           0           0
           2           6           0           0           2           1
           3           0           2           1           4           0
           3           1           4           0           1           2
           5           0           1           2           6           0
           5           2           6           0           3           1
           2           5           3           1           2           6
           4           1           2           5           4           1
           2           6
Redundant internal coordinates             R   N=          20
 -2.65700595E+00  0.00000000E+00  0.00000000E+00  2.65700595E+00  0.00000000E+00
  0.00000000E+00  2.05248088E+00  2.05249557E+00  2.05248084E+00  2.05249553E+00
  1.93604897E+00  1.93603017E+00  2.41110617E+00  1.93604906E+00  1.93603026E+00
  2.41110599E+00  3.14159265E+00  0.00000000E+00 -0.00000000E+00  3.14159265E+00
ZRed-IntVec                                I   N=          20
          -1          -1          -1          -1          -1          -1
           0           0           0           0           0           0
           0           0           0           0           0           0
           0           0
ZRed-FPVec                                 R   N=          20
  0.00000000E+00  0.00000000E+00  0.00000000E+00  0.00000000E+00  0.00000000E+00
  0.00000000E+00  0.00000000E+00  0.00000000E+00  0.00000000E+00  0.00000000E+00
  0.00000000E+00  0.00000000E+00  0.00000000E+00  0.00000000E+00  0.00000000E+00
  0.00000000E+00  0.00000000E+00  0.00000000E+00  0.00000000E+00  0.00000000E+00
ZRed-Constraint1                           R   N=          20
 -2.65700595E+00  0.00000000E+00  0.00000000E+00  2.65700595E+00  0.00000000E+00
  0.00000000E+00  2.05067934E+00  2.05048469E+00  2.05067934E+00  2.05048469E+00
  1.98162443E+00  1.98155420E+00  2.32000667E+00  1.98162443E+00  1.98155420E+00
  2.32000667E+00  3.14159265E+00  0.00000000E+00  0.00000000E+00  3.14159265E+00
ZRed-Constraint2                           R   N=          20
 -2.65700595E+00  0.00000000E+00  0.00000000E+00  2.65700595E+00  0.00000000E+00
  0.00000000E+00  0.00000000E+00  0.00000000E+00  0.00000000E+00  0.00000000E+00
  0.00000000E+00  0.00000000E+00  0.00000000E+00  0.00000000E+00  0.00000000E+00
  0.00000000E+00  0.00000000E+00  0.00000000E+00  0.00000000E+00  0.00000000E+00
Number of contracted shells                I               28
Number of primitive shells                 I               50
Pure/Cartesian d shells                    I                0
Pure/Cartesian f shells                    I                0
Highest angular momentum                   I                2
Largest degree of contraction              I                6
Shell types                                I   N=          28
           0          -1          -1          -1          -1          -2
           0          -1          -1          -1          -1          -2
           0           0           0           1           0           0
           0           1           0           0           0           1
           0           0           0           1
Number of primitives per shell             I   N=          28
           6           3           1           1           1           1
           6           3           1           1           1           1
           3           1           1           1           3           1
           1           1           3           1           1           1
           3           1           1           1
Shell to atom map                          I   N=          28
           1           1           1           1           1           1
           2           2           2           2           2           2
           3           3           3           3           4           4
           4           4           5           5           5           5
           6           6           6           6
Primitive exponents                        R   N=          50
  4.56324000E+03  6.82024000E+02  1.54973000E+02  4.44553000E+01  1.30290000E+01
  1.82773000E+00  2.09642000E+01  4.80331000E+00  1.45933000E+00  4.83456000E-01
  1.45585000E-01  4.38000000E-02  6.26000000E-01  4.56324000E+03  6.82024000E+02
  1.54973000E+02  4.44553000E+01  1.30290000E+01  1.82773000E+00  2.09642000E+01
  4.80331000E+00  1.45933000E+00  4.83456000E-01  1.45585000E-01  4.38000000E-02
  6.26000000E-01  3.38650000E+01  5.09479000E+00  1.15879000E+00  3.25840000E-01
  1.02741000E-01  7.50000000E-01  3.38650000E+01  5.09479000E+00  1.15879000E+00
  3.25840000E-01  1.02741000E-01  7.50000000E-01  3.38650000E+01  5.09479000E+00
  1.15879000E+00  3.25840000E-01  1.02741000E-01  7.50000000E-01  3.38650000E+01
  5.09479000E+00  1.15879000E+00  3.25840000E-01  1.02741000E-01  7.50000000E-01
Contraction coefficients                   R   N=          50
  1.96665025E-03  1.52306019E-02  7.61269097E-02  2.60801033E-01  6.16462078E-01
  2.21006028E-01  1.14660081E-01  9.19999648E-01 -3.03068213E-03  1.00000000E+00
  1.00000000E+00  1.00000000E+00  1.00000000E+00  1.96665025E-03  1.52306019E-02
  7.61269097E-02  2.60801033E-01  6.16462078E-01  2.21006028E-01  1.14660081E-01
  9.19999648E-01 -3.03068213E-03  1.00000000E+00  1.00000000E+00  1.00000000E+00
  1.00000000E+00  2.54938145E-02  1.90373109E-01  8.52161486E-01  1.00000000E+00
  1.00000000E+00  1.00000000E+00  2.54938145E-02  1.90373109E-01  8.52161486E-01
  1.00000000E+00  1.00000000E+00  1.00000000E+00  2.54938145E-02  1.90373109E-01
  8.52161486E-01  1.00000000E+00  1.00000000E+00  1.00000000E+00  2.54938145E-02
  1.90373109E-01  8.52161486E-01  1.00000000E+00  1.00000000E+00  1.00000000E+00
P(S=P) Contraction coefficients            R   N=          50
  0.00000000E+00  0.00000000E+00  0.00000000E+00  0.00000000E+00  0.00000000E+00
  0.00000000E+00  4.02486927E-02  2.37593957E-01  8.15853851E-01  1.00000000E+00
  1.00000000E+00  1.00000000E+00  0.00000000E+00  0.00000000E+00  0.00000000E+00
  0.00000000E+00  0.00000000E+00  0.00000000E+00  0.00000000E+00  4.02486927E-02
  2.37593957E-01  8.15853851E-01  1.00000000E+00  1.00000000E+00  1.00000000E+00
  0.00000000E+00  0.00000000E+00  0.00000000E+00  0.00000000E+00  0.00000000E+00
  0.00000000E+00  0.00000000E+00  0.00000000E+00  0.00000000E+00  0.00000000E+00
  0.00000000E+00  0.00000000E+00  0.00000000E+00  0.00000000E+00  0.00000000E+00
  0.00000000E+00  0.00000000E+00  0.00000000E+00  0.00000000E+00  0.00000000E+00
  0.00000000E+00  0.00000000E+00  0.00000000E+00  0.00000000E+00  0.00000000E+00
Coordinates of each shell                  R   N=          84
 -2.65700595E+00  0.00000000E+00  0.00000000E+00 -2.65700595E+00  0.00000000E+00
  0.00000000E+00 -2.65700595E+00  0.00000000E+00  0.00000000E+00 -2.65700595E+00
  0.00000000E+00  0.00000000E+00 -2.65700595E+00  0.00000000E+00  0.00000000E+00
 -2.65700595E+00  0.00000000E+00  0.00000000E+00  2.65700595E+00  0.00000000E+00
  0.00000000E+00  2.65700595E+00  0.00000000E+00  0.00000000E+00  2.65700595E+00
  0.00000000E+00  0.00000000E+00  2.65700595E+00  0.00000000E+00  0.00000000E+00
  2.65700595E+00  0.00000000E+00  0.00000000E+00  2.65700595E+00  0.00000000E+00
  0.00000000E+00 -3.39012192E+00 -1.91708600E+00  3.19099660E-09 -3.39012192E+00
 -1.91708600E+00  3.19099660E-09 -3.39012192E+00 -1.91708600E+00  3.19099660E-09
 -3.39012192E+00 -1.91708600E+00  3.19099660E-09 -3.39009112E+00  1.91711351E+00
  3.05585163E-09 -3.39009112E+00  1.91711351E+00  3.05585163E-09 -3.39009112E+00
  1.91711351E+00  3.05585163E-09 -3.39009112E+00  1.91711351E+00  3.05585163E-09
  3.39012207E+00  1.91708590E+00 -2.88504808E-09  3.39012207E+00  1.91708590E+00
 -2.88504808E-09  3.39012207E+00  1.91708590E+00 -2.88504808E-09  3.39012207E+00
  1.91708590E+00 -2.88504808E-09  3.39009128E+00 -1.91711340E+00 -3.02041862E-09
  3.39009128E+00 -1.91711340E+00 -3.02041862E-09  3.39009128E+00 -1.91711340E+00
 -3.02041862E-09  3.39009128E+00 -1.91711340E+00 -3.02041862E-09
Num ILSW                                   I              100
ILSW                                       I   N=         100
           1           0           0           0           2           0
           0           0           0           0        4336          -1
           7           0           0           0           2           0
           0           0           0           0           1           0
           1           1           0           0           0           0
           0           0      100000           0          -1           0
           0           0           0           0           0           0
           0           0           0           1           0           0
           0 -2000000000           1           0           0           0
           0           0           4          52           0           0
           0           0          55           0           0           0
           0           0           0           6           0           1
           0           0           0           0           0           0
           0           0           0           0           0           0
           0           0           0           0           0           0
           0           0           0           0           0           0
           0           0           0           0
Num RLSW                                   I               52
RLSW                                       R   N=          52
  1.00000000E+00  1.00000000E+00  1.00000000E+00  1.00000000E+00  5.40000000E-01
  0.00000000E+00  0.00000000E+00  1.00000000E+00  0.00000000E+00  0.00000000E+00
  0.00000000E+00  0.00000000E+00  1.00000000E+00  0.00000000E+00  0.00000000E+00
  0.00000000E+00  0.00000000E+00  1.00000000E+00  0.00000000E+00  0.00000000E+00
  0.00000000E+00  0.00000000E+00  1.00000000E+00  0.00000000E+00  0.00000000E+00
  0.00000000E+00  0.00000000E+00  1.00000000E+00  0.00000000E+00  0.00000000E+00
  0.00000000E+00  0.00000000E+00  1.00000000E+00  0.00000000E+00  0.00000000E+00
  0.00000000E+00  0.00000000E+00  0.00000000E+00  1.00000000E+00  1.00000000E+00
  0.00000000E+00  1.00000000E+00  0.00000000E+00  0.00000000E+00  0.00000000E+00
  0.00000000E+00  0.00000000E+00  0.00000000E+00  0.00000000E+00  0.00000000E+00
  0.00000000E+00  0.00000000E+00
MxBond                                     I                3
NBond                                      I   N=           6
           3           3           1           1           1           1
IBond                                      I   N=          18
           2           3           4           1           5           6
           1           0           0           1           0           0
           2           0           0           2           0           0
RBond                                      R   N=          18
  1.00000000E-01  1.00000000E+00  1.00000000E+00  1.00000000E-01  1.00000000E+00
  1.00000000E+00  1.00000000E+00  0.00000000E+00  0.00000000E+00  1.00000000E+00
  0.00000000E+00  0.00000000E+00  1.00000000E+00  0.00000000E+00  0.00000000E+00
  1.00000000E+00  0.00000000E+00  0.00000000E+00
Virial Ratio                               R      2.008620733612789E+00
SCF Energy                                 R     -7.791671128582641E+01
Total Energy                               R     -7.791671128582641E+01
S**2                                       R      7.523512499777061E-01
S**2 after annihilation                    R      7.500043252425272E-01
RMS Force                                  R      1.082829618090380E-04
RMS Density                                R      6.948469771667520E-09
Job Status                                 I                1
Nuclear derivative order                   I                1
External E-field                           R   N=          35
  0.00000000E+00  0.00000000E+00  0.00000000E+00  0.00000000E+00  0.00000000E+00
  0.00000000E+00  0.00000000E+00  0.00000000E+00  0.00000000E+00  0.00000000E+00
  0.00000000E+00  0.00000000E+00  0.00000000E+00  0.00000000E+00  0.00000000E+00
  0.00000000E+00  0.00000000E+00  0.00000000E+00  0.00000000E+00  0.00000000E+00
  0.00000000E+00  0.00000000E+00  0.00000000E+00  0.00000000E+00  0.00000000E+00
  0.00000000E+00  0.00000000E+00  0.00000000E+00  0.00000000E+00  0.00000000E+00
  0.00000000E+00  0.00000000E+00  0.00000000E+00  0.00000000E+00  0.00000000E+00
IOpCl                                      I                1
IROHF                                      I                0
Alpha Orbital Energies                     R   N=          68
 -1.09198153E+01 -1.09197614E+01 -1.02603036E+00 -1.00902352E+00 -7.93678401E-01
 -7.87707814E-01 -5.68883693E-01 -5.09538439E-01 -3.94249625E-01 -3.56024593E-01
 -1.32587902E-01 -1.06475294E-01 -1.04929258E-01 -7.67809818E-02 -7.50597412E-02
 -6.43401689E-02 -4.58351627E-02 -4.54290981E-02 -3.11113648E-02  1.55982668E-02
  1.61461609E-02  9.26549536E-02  1.99726084E-01  2.18973470E-01  2.39751842E-01
  3.28134411E-01  3.62328697E-01  3.75036178E-01  3.86503669E-01  4.24041954E-01
  4.43360248E-01  4.57510109E-01  5.21603859E-01  5.76716053E-01  8.07218358E-01
  8.08879656E-01  9.87871892E-01  9.92629652E-01  1.04087980E+00  1.06485959E+00
  1.11876083E+00  1.17661155E+00  1.26562178E+00  1.27245431E+00  1.45113535E+00
  1.45304432E+00  1.59521877E+00  1.61704725E+00  1.63330883E+00  1.67903320E+00
  1.79753995E+00  1.79957682E+00  2.14493342E+00  2.22190075E+00  2.24723501E+00
  2.29427506E+00  2.32884680E+00  2.38716941E+00  2.43820405E+00  2.45166778E+00
  2.45762738E+00  2.47087146E+00  2.71885709E+00  2.74912769E+00  3.36690850E+00
  3.39025464E+00  2.35065981E+01  2.35186842E+01
Beta Orbital Energies                      R   N=          68
 -1.09171888E+01 -1.09171572E+01 -9.98048454E-01 -9.84059961E-01 -7.89971121E-01
 -7.84205338E-01 -5.49575865E-01 -3.34170684E-01 -3.18998514E-01 -2.94187580E-01
 -1.43142530E-01 -1.09353902E-01 -1.08215256E-01 -7.43532040E-02 -7.35466685E-02
 -6.50250992E-02 -4.12185002E-02 -3.83474239E-02 -3.59798911E-02  4.96233884E-04
  1.83111972E-02  1.02084911E-01  1.96176858E-01  2.22181561E-01  2.44287074E-01
  3.36576958E-01  3.61710442E-01  3.65972844E-01  3.83202517E-01  4.34163215E-01
  4.52858045E-01  4.72637216E-01  5.34986319E-01  5.79876854E-01  8.36467470E-01
  8.36939153E-01  1.01913186E+00  1.02031522E+00  1.06309878E+00  1.08184332E+00
  1.13099562E+00  1.20031910E+00  1.29691304E+00  1.30673896E+00  1.46434237E+00
  1.46748996E+00  1.60359116E+00  1.62649351E+00  1.64410444E+00  1.68841962E+00
  1.81153193E+00  1.81329789E+00  2.17811298E+00  2.25744405E+00  2.26886003E+00
  2.31190724E+00  2.34463561E+00  2.40010496E+00  2.46784124E+00  2.49114477E+00
  2.49775367E+00  2.51330487E+00  2.74698992E+00  2.77615177E+00  3.40321841E+00
  3.42711155E+00  2.35187432E+01  2.35309335E+01
Alpha MO coefficients                      R   N=        4624
  3.97818007E-01  3.27161520E-01  4.85477526E-04 -1.94589698E-09  5.62446026E-12
  7.77250850E-03 -1.41627987E-03 -7.26452788E-08  4.74007319E-12 -1.76192060E-03
  2.78021270E-04  1.93085710E-08 -1.67860604E-15 -5.66261146E-04  1.64690127E-04
  3.67363132E-08 -1.37146241E-12 -9.08842862E-04  1.64174514E-12 -9.82852483E-14
 -1.21739558E-03  4.69480592E-08  4.00174072E-01  3.29099082E-01 -4.88073808E-04
  1.95973508E-09 -5.79036177E-12  7.81923496E-03  1.42403997E-03  7.30525629E-08
 -4.41338830E-12 -1.77585909E-03 -2.77725629E-04 -1.92961723E-08 -4.43522419E-14
 -5.67328371E-04 -1.67510579E-04 -3.67880551E-08  1.33811279E-12 -9.13869514E-04
  1.73413326E-12  9.82798655E-14 -1.22457727E-03  4.72233315E-08  8.70981326E-05
 -2.33399239E-03  1.48595452E-03 -6.45384007E-04 -1.38543615E-03  3.38898194E-12
  8.71165324E-05 -2.33386885E-03  1.48582385E-03 -6.45338999E-04  1.38539103E-03
  3.28969658E-12  8.75788561E-05 -2.34712873E-03  1.49524385E-03  6.48866974E-04
  1.39338352E-03 -3.16345384E-12  8.75973615E-05 -2.34700445E-03  1.49511276E-03
  6.48821693E-04 -1.39333813E-03 -3.26207525E-12  4.00179484E-01  3.29095951E-01
  4.42139462E-04 -2.36320167E-09  5.55155309E-12  7.93615177E-03 -1.31900074E-03
 -6.91408350E-08  4.93830327E-12 -2.36492810E-03 -4.88541436E-05 -2.04486745E-09
 -8.43509242E-13 -1.82781063E-04  4.77910467E-04  8.86608287E-09 -9.99247533E-13
 -8.54335011E-04  1.61837534E-12 -9.37971182E-14 -1.21989641E-03  4.67446409E-08
 -3.97823448E-01 -3.27158373E-01  4.39259198E-04 -2.35159027E-09  5.64740362E-12
 -7.89011756E-03 -1.31061180E-03 -6.87109533E-08  4.57175872E-12  2.35448579E-03
 -5.04955945E-05 -2.15882035E-09 -7.88994413E-13  1.79434165E-04  4.76930021E-04
  8.64906664E-09 -9.19702868E-13  8.48951693E-04 -1.69036648E-12 -9.31711606E-14
  1.21268629E-03 -4.64666771E-08  8.15917949E-05 -2.23184226E-03  1.57759880E-03
 -5.91780737E-04 -1.35013548E-03  3.37421278E-12  8.16097070E-05 -2.23171620E-03
  1.57752771E-03 -5.91734534E-04  1.35008919E-03  3.27951074E-12 -8.10766028E-05
  2.21802060E-03 -1.56879726E-03 -5.87959629E-04 -1.34193049E-03  3.11865103E-12
 -8.10944060E-05  2.21789527E-03 -1.56872694E-03 -5.87913692E-04  1.34188447E-03
  3.21412186E-12 -8.05591858E-02 -1.31434067E-01 -1.94181037E-02 -8.96057601E-07
  4.95459919E-11  3.69750907E-01 -2.84707318E-02 -9.46612898E-07  1.87978836E-10
  2.47258752E-01 -4.64711636E-03 -3.81989841E-07  2.45343680E-11  1.11728282E-03
 -2.10208323E-03 -2.12970617E-07  4.19100410E-11 -4.13794374E-03  1.00085683E-10
 -2.47100665E-13 -7.74312402E-03  2.42330657E-07 -8.05596545E-02 -1.31434813E-01
  1.94183661E-02  8.96066014E-07 -4.48922313E-11  3.69753017E-01  2.84711248E-02
  9.46620674E-07 -1.81848590E-10  2.47260048E-01  4.64724222E-03  3.81990912E-07
 -2.12730075E-11  1.11716950E-03  2.10214901E-03  2.12970911E-07 -4.15898926E-11
 -4.13789661E-03  1.00356558E-10  2.48963931E-13 -7.74318751E-03  2.42332628E-07
  7.36927444E-02  8.27291269E-02 -5.58415159E-03  3.49866105E-03  1.19131771E-02
 -4.47796303E-12  7.36909703E-02  8.27273808E-02 -5.58358057E-03  3.49834352E-03
 -1.19130215E-02 -3.82848626E-12  7.36932225E-02  8.27297387E-02 -5.58417456E-03
 -3.49869158E-03 -1.19132785E-02  3.03475836E-12  7.36914483E-02  8.27279925E-02
 -5.58360354E-03 -3.49837404E-03  1.19131229E-02  3.68759101E-12 -8.03410327E-02
 -1.31133119E-01 -3.15229057E-02 -1.01868106E-06  8.65467193E-11  3.69774968E-01
 -4.90437752E-02 -1.11801758E-06  2.38123591E-10  2.45962978E-01 -1.49742611E-02
 -2.29490190E-07  5.14428476E-11 -1.19048428E-02 -7.37761240E-03 -9.86765184E-09
  6.51376642E-12 -4.60604483E-03  9.13132220E-11 -3.23997320E-13 -9.82614042E-03
  2.73239069E-07  8.03405580E-02  1.31132326E-01 -3.15228798E-02 -1.01867893E-06
  8.16228464E-11 -3.69772747E-01 -4.90437211E-02 -1.11801403E-06  2.31183979E-10
 -2.45961371E-01 -1.49742860E-02 -2.29489103E-07  4.87284655E-11  1.19048569E-02
 -7.37760349E-03 -9.86702965E-09  5.77247411E-12  4.60594830E-03 -9.16920948E-11
 -3.25223597E-13  9.82609641E-03 -2.73238139E-07  7.76348507E-02  8.82411315E-02
 -3.56469001E-03  2.83208421E-03  1.22497105E-02 -1.23643303E-12  7.76327995E-02
  8.82390031E-02 -3.56459597E-03  2.83172312E-03 -1.22495122E-02 -5.30422588E-13
 -7.76344462E-02 -8.82407502E-02  3.56465859E-03  2.83207792E-03  1.22496728E-02
  2.79792497E-13 -7.76323950E-02 -8.82386217E-02  3.56456456E-03  2.83171683E-03
 -1.22494745E-02 -4.28820075E-13 -5.08729883E-07 -8.61005284E-07  1.33601790E-06
  1.61503657E-01 -5.23711775E-12  2.60118569E-06  1.63033468E-06  2.28811794E-01
 -7.24091349E-12  2.97666719E-06  8.83162175E-07  1.22871604E-01 -3.46390897E-12
  2.48182565E-07  7.59316481E-08  2.88310777E-03 -2.98783941E-13  1.83309669E-08
  4.51182714E-13  7.43570565E-11 -2.68216581E-07 -1.31161228E-02  5.08741467E-07
  8.61024927E-07  1.33606845E-06  1.61507885E-01  5.24496471E-12 -2.60124586E-06
  1.63040161E-06  2.28817730E-01  7.31689108E-12 -2.97674176E-06  8.83201161E-07
  1.22874913E-01  3.35453655E-12 -2.48183951E-07  7.59337309E-08  2.88334344E-03
  3.61845825E-13 -1.83324340E-08  4.48639148E-13 -7.16765243E-11  2.68222766E-07
  1.31165568E-02 -1.06492419E-01 -1.45037199E-01 -1.48079906E-02 -7.56672049E-03
 -1.23313158E-02  2.58103585E-11  1.06493025E-01  1.45038647E-01  1.48080582E-02
  7.56647419E-03 -1.23316385E-02 -2.50293315E-11  1.06495241E-01  1.45041073E-01
  1.48082603E-02 -7.56692216E-03 -1.23316479E-02  2.34587285E-11 -1.06495847E-01
 -1.45042520E-01 -1.48083279E-02  7.56667585E-03 -1.23319707E-02 -2.42322533E-11
 -4.03868369E-07 -6.88695613E-07  1.96569888E-06  1.63048178E-01 -5.58446072E-12
  2.09822431E-06  2.62766728E-06  2.29999816E-01 -7.62517171E-12  2.61404539E-06
  1.55219179E-06  1.28260042E-01 -4.27895349E-12  5.32624802E-08  8.40602769E-08
  9.38609877E-03 -1.44876864E-13  3.64493280E-08  4.34025045E-13  7.78031035E-11
 -1.95236275E-07 -1.46205179E-02 -4.03856656E-07 -6.88675673E-07 -1.96566293E-06
 -1.63043956E-01 -5.61808975E-12  2.09816413E-06 -2.62762177E-06 -2.29993809E-01
 -7.61570331E-12  2.61397714E-06 -1.55216734E-06 -1.28256766E-01 -4.44736248E-12
  5.32548598E-08 -8.40572861E-08 -9.38600641E-03 -4.43704615E-14  3.64492785E-08
 -4.32459157E-13  7.50632156E-11 -1.95230708E-07 -1.46202266E-02 -1.07992344E-01
 -1.46978720E-01 -9.84784685E-03 -7.31450133E-03 -1.24513371E-02  2.57779979E-11
  1.07992366E-01  1.46979349E-01  9.84812352E-03  7.31429286E-03 -1.24515928E-02
 -2.49997217E-11 -1.07989581E-01 -1.46975011E-01 -9.84749970E-03  7.31431676E-03
  1.24510262E-02 -2.34139319E-11  1.07989603E-01  1.46975639E-01  9.84777637E-03
 -7.31410830E-03  1.24512820E-02  2.42032261E-11 -1.37729509E-02 -2.27690219E-02
  1.76071158E-01 -2.00067988E-06 -1.68953336E-09  5.90493326E-02  2.72414805E-01
 -3.31707821E-06 -2.33958588E-09  1.49937370E-01  2.51184813E-01 -2.06276190E-06
 -2.33130534E-09  1.30820480E-02  7.13163428E-03  1.05211654E-07 -6.55153440E-11
  3.31628152E-03  1.83198805E-10  4.95774268E-13  6.08851644E-03 -4.40572717E-08
 -1.37729392E-02 -2.27689929E-02 -1.76070808E-01  2.00067668E-06  1.66921867E-09
  5.90492035E-02 -2.72414216E-01  3.31707297E-06  2.30846503E-09  1.49937248E-01
 -2.51184499E-01  2.06275429E-06  2.30594991E-09  1.30821603E-02 -7.13170182E-03
 -1.05212227E-07  6.46359740E-11  3.31632287E-03  1.82182291E-10 -4.95125032E-13
  6.08846703E-03 -4.40562476E-08 -4.32073026E-02 -7.74340259E-02 -2.27382022E-02
  8.32717714E-03 -8.25804144E-03 -1.16576615E-10 -4.32079849E-02 -7.74358736E-02
 -2.27397652E-02  8.32723116E-03  8.25795610E-03 -1.17205216E-10 -4.32072294E-02
 -7.74338958E-02 -2.27381871E-02 -8.32716216E-03  8.25802993E-03  1.16611663E-10
 -4.32079117E-02 -7.74357435E-02 -2.27397502E-02 -8.32721619E-03 -8.25794459E-03
  1.15980027E-10  3.81536471E-10  6.56087986E-10 -1.85535924E-09  7.00530908E-12
  1.94908803E-01 -2.06298691E-09 -2.45075995E-09  1.23995845E-11  3.09194508E-01
 -2.73239377E-09 -2.78364043E-09  1.96634315E-11  3.06601442E-01 -1.37781042E-10
 -1.57214826E-10  7.77463537E-12  2.10334963E-02 -5.79330735E-11  2.04345165E-04
 -5.58509084E-08  1.12623366E-10 -1.12401212E-12 -3.78232080E-10 -6.50361849E-10
 -1.87841852E-09 -6.97977078E-12  1.94906984E-01  2.04325502E-09 -2.48748972E-09
 -1.23171937E-11  3.09191792E-01  2.71546106E-09 -2.81884140E-09 -1.96052848E-11
  3.06598885E-01  1.40619725E-10 -1.60539475E-10 -7.73779395E-12  2.10333945E-02
  5.77200748E-11 -2.04371423E-04  5.58502354E-08 -1.13604268E-10 -1.11153832E-12
  4.61683725E-10  8.93850930E-10  2.57995244E-10 -8.06455393E-11  1.43687736E-10
  1.43592457E-02  4.61629021E-10  8.88501605E-10  2.38239190E-10 -8.15114327E-11
 -1.40942782E-10  1.43591427E-02 -4.57556363E-10 -8.83947696E-10 -2.37199850E-10
 -8.35291047E-11  1.40752978E-10  1.43591007E-02 -4.57485708E-10 -8.89329589E-10
 -2.56818101E-10 -8.26714462E-11 -1.43466852E-10  1.43589977E-02  3.35596241E-12
 -1.58973846E-11 -1.23884068E-09 -6.49896273E-12 -2.03412264E-01  2.45406956E-10
 -2.30909187E-09 -1.22722121E-11 -3.22215026E-01 -5.71815660E-10 -2.04868143E-09
 -1.75364983E-11 -3.18166138E-01 -1.32055094E-10 -2.12016325E-10 -3.46104041E-12
 -3.60151902E-02 -4.82824205E-11  1.00242824E-02  4.47291254E-08 -9.17470254E-11
  9.50744588E-13  1.22974207E-11 -7.31113595E-13  1.25778127E-09 -6.55728189E-12
  2.03413734E-01  1.98271057E-10  2.33645486E-09 -1.23222266E-11  3.22217547E-01
 -6.40994473E-10  2.07414672E-09 -1.75300746E-11  3.18168747E-01 -1.29689149E-10
  2.11975799E-10 -3.50941583E-12  3.60155230E-02 -5.02448987E-11  1.00243278E-02
  4.47292856E-08 -9.23179470E-11 -9.38999796E-13  1.43956284E-10  2.47449627E-10
  1.77006817E-10 -8.67919633E-11 -1.83656337E-11 -1.65418026E-02  1.44928004E-10
  2.55227258E-10  1.90531015E-10 -8.61708500E-11  1.53324271E-11 -1.65416420E-02
  1.58232277E-10  2.79175929E-10  2.01150585E-10  8.68328413E-11  1.31196268E-11
  1.65419133E-02  1.57202679E-10  2.71717239E-10  1.87585264E-10  8.74338981E-11
 -1.61176125E-11  1.65417527E-02 -3.21681575E-02 -5.40565096E-02  2.00770869E-01
 -1.44681534E-06  1.55725321E-09  1.63535988E-01  3.03116686E-01 -2.56574071E-06
  2.88769765E-09  2.55661532E-01  3.27748909E-01 -2.58298204E-06  2.84178269E-09
  9.97011355E-02  7.80320659E-02 -4.12839234E-07  4.41812492E-10  1.10563345E-02
  1.70143671E-10  5.72845540E-13 -9.21389258E-03 -9.13225772E-08  3.21682013E-02
  5.40565682E-02  2.00771025E-01 -1.44681661E-06  1.53200575E-09 -1.63536112E-01
  3.03116963E-01 -2.56574205E-06  2.84644095E-09 -2.55661893E-01  3.27749306E-01