 Entering Gaussian System, Link 0=g16
 Initial command:
 /home/szhao/Apps/g16/l1.exe "/home/szhao/tmp/Gau-98303.inp" -scrdir="/home/szhao/tmp/"
 Default is to use a total of  16 processors:
                               16 via shared-memory
                                1 via Linda
 Entering Link 1 = /home/szhao/Apps/g16/l1.exe PID=     98305.
  
 Copyright (c) 1988,1990,1992,1993,1995,1998,2003,2009,2016,
            Gaussian, Inc.  All Rights Reserved.
  
 This is part of the Gaussian(R) 16 program.  It is based on
 the Gaussian(R) 09 system (copyright 2009, Gaussian, Inc.),
 the Gaussian(R) 03 system (copyright 2003, Gaussian, Inc.),
 the Gaussian(R) 98 system (copyright 1998, Gaussian, Inc.),
 the Gaussian(R) 94 system (copyright 1995, Gaussian, Inc.),
 the Gaussian 92(TM) system (copyright 1992, Gaussian, Inc.),
 the Gaussian 90(TM) system (copyright 1990, Gaussian, Inc.),
 the Gaussian 88(TM) system (copyright 1988, Gaussian, Inc.),
 the Gaussian 86(TM) system (copyright 1986, Carnegie Mellon
 University), and the Gaussian 82(TM) system (copyright 1983,
 Carnegie Mellon University). Gaussian is a federally registered
 trademark of Gaussian, Inc.
  
 This software contains proprietary and confidential information,
 including trade secrets, belonging to Gaussian, Inc.
  
 This software is provided under written license and may be
 used, copied, transmitted, or stored only in accord with that
 written license.
  
 The following legend is applicable only to US Government
 contracts under FAR:
  
                    RESTRICTED RIGHTS LEGEND
  
 Use, reproduction and disclosure by the US Government is
 subject to restrictions as set forth in subparagraphs (a)
 and (c) of the Commercial Computer Software - Restricted
 Rights clause in FAR 52.227-19.
  
 Gaussian, Inc.
 340 Quinnipiac St., Bldg. 40, Wallingford CT 06492
  
  
 ---------------------------------------------------------------
 Warning -- This program may not be used in any manner that
 competes with the business of Gaussian, Inc. or will provide
 assistance to any competitor of Gaussian, Inc.  The licensee
 of this program is prohibited from giving any competitor of
 Gaussian, Inc. access to this program.  By using this program,
 the user acknowledges that Gaussian, Inc. is engaged in the
 business of creating and licensing software in the field of
 computational chemistry and represents and warrants to the
 licensee that it is not a competitor of Gaussian, Inc. and that
 it will not use this program in any manner prohibited above.
 ---------------------------------------------------------------
  

 Cite this work as:
 Gaussian 16, Revision A.03,
 M. J. Frisch, G. W. Trucks, H. B. Schlegel, G. E. Scuseria, 
 M. A. Robb, J. R. Cheeseman, G. Scalmani, V. Barone, 
 G. A. Petersson, H. Nakatsuji, X. Li, M. Caricato, A. V. Marenich, 
 J. Bloino, B. G. Janesko, R. Gomperts, B. Mennucci, H. P. Hratchian, 
 J. V. Ortiz, A. F. Izmaylov, J. L. Sonnenberg, D. Williams-Young, 
 F. Ding, F. Lipparini, F. Egidi, J. Goings, B. Peng, A. Petrone, 
 T. Henderson, D. Ranasinghe, V. G. Zakrzewski, J. Gao, N. Rega, 
 G. Zheng, W. Liang, M. Hada, M. Ehara, K. Toyota, R. Fukuda, 
 J. Hasegawa, M. Ishida, T. Nakajima, Y. Honda, O. Kitao, H. Nakai, 
 T. Vreven, K. Throssell, J. A. Montgomery, Jr., J. E. Peralta, 
 F. Ogliaro, M. J. Bearpark, J. J. Heyd, E. N. Brothers, K. N. Kudin, 
 V. N. Staroverov, T. A. Keith, R. Kobayashi, J. Normand, 
 K. Raghavachari, A. P. Rendell, J. C. Burant, S. S. Iyengar, 
 J. Tomasi, M. Cossi, J. M. Millam, M. Klene, C. Adamo, R. Cammi, 
 J. W. Ochterski, R. L. Martin, K. Morokuma, O. Farkas, 
 J. B. Foresman, and D. J. Fox, Gaussian, Inc., Wallingford CT, 2016.
 
 ******************************************
 Gaussian 16:  ES64L-G16RevA.03 25-Dec-2016
                 3-Dec-2024 
 ******************************************
 %chk=opt.chk
 %mem=4GB
 %nprocshared=8
 Will use up to    8 processors via shared memory.
 --------------------------------------------
 #p opt UM062X/6-311+G** nosymm int=superfine
 --------------------------------------------
 1/18=20,19=15,26=5,38=1/1,3;
 2/9=110,12=2,15=1,17=6,18=5,40=1/2;
 3/5=4,6=6,7=111,11=2,25=1,30=1,71=1,74=-55,75=-7,116=2/1,2,3;
 4//1;
 5/5=2,38=5/2;
 6/7=2,8=2,9=2,10=2,28=1/1;
 7/30=1/1,2,3,16;
 1/18=20,19=15,26=5/3(2);
 2/9=110,15=1/2;
 99//99;
 2/9=110,15=1/2;
 3/5=4,6=6,7=111,11=2,25=1,30=1,71=1,74=-55,75=-7,116=2/1,2,3;
 4/5=5,16=3,69=1/1;
 5/5=2,38=5/2;
 7/30=1/1,2,3,16;
 1/18=20,19=15,26=5/3(-5);
 2/9=110,15=1/2;
 6/7=2,8=2,9=2,10=2,19=2,28=1/1;
 99/9=1/99;
 Leave Link    1 at Tue Dec  3 23:12:00 2024, MaxMem=   536870912 cpu:               0.3 elap:               0.0
 (Enter /home/szhao/Apps/g16/l101.exe)
 -------------------
 Title Card Required
 -------------------
 Symbolic Z-matrix:
 Charge =  0 Multiplicity = 1
 C                    -1   -1.60763   0.        0. 
 C                    -1    1.60763   0.        0. 
 H                    0    -1.72067   0.32135   1.06377 
 H                    0     1.72132   1.03392  -0.40698 
 
 Add virtual bond connecting atoms C2         and C1         Dist= 6.08D+00.
 ITRead=  2  2  0  0
 MicOpt= -2 -2 -1 -1
 NAtoms=      4 NQM=        2 NQMF=       2 NMMI=      0 NMMIF=      0
                NMic=       0 NMicF=      0.
                    Isotopes and Nuclear Properties:
 (Nuclear quadrupole moments (NQMom) in fm**2, nuclear magnetic moments (NMagM)
  in nuclear magnetons)

  Atom         1           2           3           4
 IAtWgt=          12          12           1           1
 AtmWgt=  12.0000000  12.0000000   1.0078250   1.0078250
 NucSpn=           0           0           1           1
 AtZEff=  -0.0000000  -0.0000000  -0.0000000  -0.0000000
 NQMom=    0.0000000   0.0000000   0.0000000   0.0000000
 NMagM=    0.0000000   0.0000000   2.7928460   2.7928460
 AtZNuc=   6.0000000   6.0000000   1.0000000   1.0000000
 Leave Link  101 at Tue Dec  3 23:12:00 2024, MaxMem=   536870912 cpu:               2.2 elap:               0.3
 (Enter /home/szhao/Apps/g16/l103.exe)

 GradGradGradGradGradGradGradGradGradGradGradGradGradGradGradGradGradGrad
 Berny optimization.
 Initialization pass.
                           ----------------------------
                           !    Initial Parameters    !
                           ! (Angstroms and Degrees)  !
 --------------------------                            --------------------------
 ! Name  Definition              Value          Derivative Info.                !
 --------------------------------------------------------------------------------
 ! X1    R(1,-1)                -1.6076         Frozen                          !
 ! Y1    R(1,-2)                 0.0            Frozen                          !
 ! Z1    R(1,-3)                 0.0            Frozen                          !
 ! X2    R(2,-1)                 1.6076         Frozen                          !
 ! Y2    R(2,-2)                 0.0            Frozen                          !
 ! Z2    R(2,-3)                 0.0            Frozen                          !
 ! R1    R(1,3)                  1.117          estimate D2E/DX2                !
 ! R2    R(2,4)                  1.1169         estimate D2E/DX2                !
 ! A1    A(2,1,3)               95.8086         estimate D2E/DX2                !
 ! A2    A(1,2,4)               95.8424         estimate D2E/DX2                !
 ! D1    D(3,1,2,4)            -94.6772         estimate D2E/DX2                !
 --------------------------------------------------------------------------------
 Trust Radius=3.00D-01 FncErr=1.00D-07 GrdErr=1.00D-07 EigMax=2.50D+02 EigMin=1.00D-04
 Number of steps in this run=     21 maximum allowed number of steps=    100.
 GradGradGradGradGradGradGradGradGradGradGradGradGradGradGradGradGradGrad

 Leave Link  103 at Tue Dec  3 23:12:00 2024, MaxMem=   536870912 cpu:               0.1 elap:               0.0
 (Enter /home/szhao/Apps/g16/l202.exe)
                          Input orientation:                          
 ---------------------------------------------------------------------
 Center     Atomic      Atomic             Coordinates (Angstroms)
 Number     Number       Type             X           Y           Z
 ---------------------------------------------------------------------
      1          6           0       -1.607625    0.000000    0.000000
      2          6           0        1.607625    0.000000    0.000000
      3          1           0       -1.720671    0.321352    1.063773
      4          1           0        1.721320    1.033920   -0.406981
 ---------------------------------------------------------------------
                    Distance matrix (angstroms):
                    1          2          3          4
     1  C    0.000000
     2  C    3.215250   0.000000
     3  H    1.116987   3.508908   0.000000
     4  H    3.509487   1.116938   3.810272   0.000000
 Symmetry turned off by external request.
 Stoichiometry    C2H2
 Framework group  C1[X(C2H2)]
 Deg. of freedom     6
 Full point group                 C1      NOp   1
 Rotational constants (GHZ):         221.6633077           7.3061503           7.2881163
 Leave Link  202 at Tue Dec  3 23:12:00 2024, MaxMem=   536870912 cpu:               0.0 elap:               0.0
 (Enter /home/szhao/Apps/g16/l301.exe)
 Standard basis: 6-311+G(d,p) (5D, 7F)
 Ernie: Thresh=  0.10000D-02 Tol=  0.10000D-05 Strict=F.
    56 basis functions,    88 primitive gaussians,    58 cartesian basis functions
     7 alpha electrons        7 beta electrons
       nuclear repulsion energy        13.5586303094 Hartrees.
 IExCor= 4336 DFT=T Ex+Corr=M062X ExCW=0 ScaHFX=  0.540000
 ScaDFX=  1.000000  1.000000  1.000000  1.000000 ScalE2=  1.000000  1.000000
 IRadAn=      7 IRanWt=     -1 IRanGd=            0 ICorTp=0 IEmpDi=  4
 NAtoms=    4 NActive=    4 NUniq=    4 SFac= 1.00D+00 NAtFMM=   60 NAOKFM=F Big=F
 Integral buffers will be    131072 words long.
 Raffenetti 2 integral format.
 Two-electron integral symmetry is turned off.
 Leave Link  301 at Tue Dec  3 23:12:00 2024, MaxMem=   536870912 cpu:               0.4 elap:               0.0
 (Enter /home/szhao/Apps/g16/l302.exe)
 NPDir=0 NMtPBC=     1 NCelOv=     1 NCel=       1 NClECP=     1 NCelD=      1
         NCelK=      1 NCelE2=     1 NClLst=     1 CellRange=     0.0.
 One-electron integrals computed using PRISM.
 NBasis=    56 RedAO= T EigKep=  1.07D-02  NBF=    56
 NBsUse=    56 1.00D-06 EigRej= -1.00D+00 NBFU=    56
 Precomputing XC quadrature grid using
 IXCGrd= 4 IRadAn=           7 IRanWt=          -1 IRanGd=           0 AccXCQ= 0.00D+00.
 Generated NRdTot=       0 NPtTot=           0 NUsed=           0 NTot=          32
 NSgBfM=    58    58    58    58    58 MxSgAt=     4 MxSgA2=     4.
 Leave Link  302 at Tue Dec  3 23:12:01 2024, MaxMem=   536870912 cpu:               1.0 elap:               0.1
 (Enter /home/szhao/Apps/g16/l303.exe)
 DipDrv:  MaxL=1.
 Leave Link  303 at Tue Dec  3 23:12:01 2024, MaxMem=   536870912 cpu:               0.2 elap:               0.0
 (Enter /home/szhao/Apps/g16/l401.exe)
 ExpMin= 4.38D-02 ExpMax= 4.56D+03 ExpMxC= 6.82D+02 IAcc=3 IRadAn=         7 AccDes= 0.00D+00
 Harris functional with IExCor= 1009 and IRadAn=       7 diagonalized for initial guess.
 HarFok:  IExCor= 1009 AccDes= 0.00D+00 IRadAn=         7 IDoV= 1 UseB2=F ITyADJ=14
 ICtDFT=  3500011 ScaDFX=  1.000000  1.000000  1.000000  1.000000
 FoFCou: FMM=F IPFlag=           0 FMFlag=      100000 FMFlg1=           0
         NFxFlg=           0 DoJE=T BraDBF=F KetDBF=T FulRan=T
         wScrn=  0.000000 ICntrl=       500 IOpCl=  0 I1Cent=   200000004 NGrid=           0
         NMat0=    1 NMatS0=      1 NMatT0=    0 NMatD0=    1 NMtDS0=    0 NMtDT0=    0
 Symmetry not used in FoFCou.
 Harris En= -76.8603347388739    
 JPrj=0 DoOrth=F DoCkMO=F.
 Initial guess <Sx>= 0.0000 <Sy>= 0.0000 <Sz>= 0.0000 <S**2>=-0.0000 S=-0.0000
 Leave Link  401 at Tue Dec  3 23:12:01 2024, MaxMem=   536870912 cpu:               1.8 elap:               0.2
 (Enter /home/szhao/Apps/g16/l502.exe)
 Keep R1 and R2 ints in memory in canonical form, NReq=9624198.
 FoFCou: FMM=F IPFlag=           0 FMFlag=           0 FMFlg1=           0
         NFxFlg=           0 DoJE=F BraDBF=F KetDBF=F FulRan=T
         wScrn=  0.000000 ICntrl=       600 IOpCl=  0 I1Cent=           0 NGrid=           0
         NMat0=    1 NMatS0=   1596 NMatT0=    0 NMatD0=    1 NMtDS0=    0 NMtDT0=    0
 Symmetry not used in FoFCou.
 Two-electron integral symmetry not used.
 UHF open shell SCF:
 Using DIIS extrapolation, IDIIS=  1040.
 NGot=   536870912 LenX=   534314338 LenY=   534310533
 Requested convergence on RMS density matrix=1.00D-08 within 128 cycles.
 Requested convergence on MAX density matrix=1.00D-06.
 Requested convergence on             energy=1.00D-06.
 No special actions if energy rises.

 Cycle   1  Pass 1  IDiag  1:
 E= -76.8888818660017    
 DIIS: error= 1.18D-02 at cycle   1 NSaved=   1.
 NSaved= 1 IEnMin= 1 EnMin= -76.8888818660017     IErMin= 1 ErrMin= 1.18D-02
 ErrMax= 1.18D-02  0.00D+00 EMaxC= 1.00D-01 BMatC= 4.76D-02 BMatP= 4.76D-02
 IDIUse=3 WtCom= 8.82D-01 WtEn= 1.18D-01
 Coeff-Com:  0.100D+01
 Coeff-En:   0.100D+01
 Coeff:      0.100D+01
 Gap=     0.158 Goal=   None    Shift=    0.000
 Gap=     0.158 Goal=   None    Shift=    0.000
 GapD=    0.158 DampG=1.000 DampE=0.500 DampFc=0.5000 IDamp=-1.
 Damping current iteration by 5.00D-01
 RMSDP=1.87D-03 MaxDP=1.41D-02              OVMax= 5.70D-02

 Cycle   2  Pass 1  IDiag  1:
 E= -76.8931190014705     Delta-E=       -0.004237135469 Rises=F Damp=T
 DIIS: error= 5.14D-03 at cycle   2 NSaved=   2.
 NSaved= 2 IEnMin= 2 EnMin= -76.8931190014705     IErMin= 2 ErrMin= 5.14D-03
 ErrMax= 5.14D-03  0.00D+00 EMaxC= 1.00D-01 BMatC= 1.15D-02 BMatP= 4.76D-02
 IDIUse=3 WtCom= 9.49D-01 WtEn= 5.14D-02
 Coeff-Com: -0.841D+00 0.184D+01
 Coeff-En:   0.000D+00 0.100D+01
 Coeff:     -0.798D+00 0.180D+01
 Gap=     0.144 Goal=   None    Shift=    0.000
 Gap=     0.144 Goal=   None    Shift=    0.000
 RMSDP=9.76D-04 MaxDP=1.64D-02 DE=-4.24D-03 OVMax= 1.28D-02

 Cycle   3  Pass 1  IDiag  1:
 E= -76.8975207348633     Delta-E=       -0.004401733393 Rises=F Damp=F
 DIIS: error= 1.30D-03 at cycle   3 NSaved=   3.
 NSaved= 3 IEnMin= 3 EnMin= -76.8975207348633     IErMin= 3 ErrMin= 1.30D-03
 ErrMax= 1.30D-03  0.00D+00 EMaxC= 1.00D-01 BMatC= 3.61D-04 BMatP= 1.15D-02
 IDIUse=3 WtCom= 9.87D-01 WtEn= 1.30D-02
 Coeff-Com: -0.268D+00 0.524D+00 0.744D+00
 Coeff-En:   0.000D+00 0.000D+00 0.100D+01
 Coeff:     -0.265D+00 0.517D+00 0.748D+00
 Gap=     0.144 Goal=   None    Shift=    0.000
 Gap=     0.144 Goal=   None    Shift=    0.000
 RMSDP=2.03D-04 MaxDP=3.62D-03 DE=-4.40D-03 OVMax= 7.13D-03

 Cycle   4  Pass 1  IDiag  1:
 E= -76.8976476853417     Delta-E=       -0.000126950478 Rises=F Damp=F
 DIIS: error= 1.78D-04 at cycle   4 NSaved=   4.
 NSaved= 4 IEnMin= 4 EnMin= -76.8976476853417     IErMin= 4 ErrMin= 1.78D-04
 ErrMax= 1.78D-04  0.00D+00 EMaxC= 1.00D-01 BMatC= 1.15D-05 BMatP= 3.61D-04
 IDIUse=3 WtCom= 9.98D-01 WtEn= 1.78D-03
 Coeff-Com:  0.354D-01-0.745D-01 0.259D-01 0.101D+01
 Coeff-En:   0.000D+00 0.000D+00 0.000D+00 0.100D+01
 Coeff:      0.353D-01-0.743D-01 0.258D-01 0.101D+01
 Gap=     0.144 Goal=   None    Shift=    0.000
 Gap=     0.144 Goal=   None    Shift=    0.000
 RMSDP=8.14D-05 MaxDP=1.18D-03 DE=-1.27D-04 OVMax= 5.46D-03

 Cycle   5  Pass 1  IDiag  1:
 E= -76.8976432311106     Delta-E=        0.000004454231 Rises=F Damp=F
 DIIS: error= 5.35D-04 at cycle   5 NSaved=   5.
 NSaved= 5 IEnMin= 4 EnMin= -76.8976476853417     IErMin= 4 ErrMin= 1.78D-04
 ErrMax= 5.35D-04  0.00D+00 EMaxC= 1.00D-01 BMatC= 3.96D-05 BMatP= 1.15D-05
 IDIUse=3 WtCom= 3.02D-01 WtEn= 6.98D-01
 Coeff-Com:  0.513D-01-0.105D+00-0.400D-01 0.813D+00 0.280D+00
 Coeff-En:   0.000D+00 0.000D+00 0.000D+00 0.627D+00 0.373D+00
 Coeff:      0.155D-01-0.315D-01-0.121D-01 0.683D+00 0.345D+00
 Gap=     0.144 Goal=   None    Shift=    0.000
 Gap=     0.144 Goal=   None    Shift=    0.000
 RMSDP=6.33D-05 MaxDP=9.15D-04 DE= 4.45D-06 OVMax= 4.75D-03

 Cycle   6  Pass 1  IDiag  1:
 E= -76.8976576993567     Delta-E=       -0.000014468246 Rises=F Damp=F
 DIIS: error= 2.30D-04 at cycle   6 NSaved=   6.
 NSaved= 6 IEnMin= 6 EnMin= -76.8976576993567     IErMin= 4 ErrMin= 1.78D-04
 ErrMax= 2.30D-04  0.00D+00 EMaxC= 1.00D-01 BMatC= 8.03D-06 BMatP= 1.15D-05
 IDIUse=3 WtCom= 9.98D-01 WtEn= 2.30D-03
 Coeff-Com: -0.451D-02 0.992D-02-0.314D-01-0.253D+00 0.333D+00 0.947D+00
 Coeff-En:   0.000D+00 0.000D+00 0.000D+00 0.000D+00 0.209D+00 0.791D+00
 Coeff:     -0.450D-02 0.990D-02-0.314D-01-0.253D+00 0.332D+00 0.947D+00
 Gap=     0.144 Goal=   None    Shift=    0.000
 Gap=     0.144 Goal=   None    Shift=    0.000
 RMSDP=4.09D-05 MaxDP=3.50D-04 DE=-1.45D-05 OVMax= 3.44D-03

 Cycle   7  Pass 1  IDiag  1:
 E= -76.8976650478432     Delta-E=       -0.000007348487 Rises=F Damp=F
 DIIS: error= 8.83D-05 at cycle   7 NSaved=   7.
 NSaved= 7 IEnMin= 7 EnMin= -76.8976650478432     IErMin= 7 ErrMin= 8.83D-05
 ErrMax= 8.83D-05  0.00D+00 EMaxC= 1.00D-01 BMatC= 3.96D-07 BMatP= 8.03D-06
 IDIUse=1 WtCom= 1.00D+00 WtEn= 0.00D+00
 Coeff-Com: -0.974D-02 0.194D-01 0.333D-01-0.134D-01-0.310D+00-0.688D+00
 Coeff-Com:  0.197D+01
 Coeff:     -0.974D-02 0.194D-01 0.333D-01-0.134D-01-0.310D+00-0.688D+00
 Coeff:      0.197D+01
 Gap=     0.144 Goal=   None    Shift=    0.000
 Gap=     0.144 Goal=   None    Shift=    0.000
 RMSDP=4.88D-05 MaxDP=3.95D-04 DE=-7.35D-06 OVMax= 4.40D-03

 Cycle   8  Pass 1  IDiag  1:
 E= -76.8976692815728     Delta-E=       -0.000004233730 Rises=F Damp=F
 DIIS: error= 6.06D-05 at cycle   8 NSaved=   8.
 NSaved= 8 IEnMin= 8 EnMin= -76.8976692815728     IErMin= 8 ErrMin= 6.06D-05
 ErrMax= 6.06D-05  0.00D+00 EMaxC= 1.00D-01 BMatC= 1.60D-07 BMatP= 3.96D-07
 IDIUse=1 WtCom= 1.00D+00 WtEn= 0.00D+00
 Coeff-Com:  0.484D-02-0.101D-01 0.927D-02 0.159D+00-0.102D+00-0.355D+00
 Coeff-Com: -0.780D+00 0.207D+01
 Coeff:      0.484D-02-0.101D-01 0.927D-02 0.159D+00-0.102D+00-0.355D+00
 Coeff:     -0.780D+00 0.207D+01
 Gap=     0.144 Goal=   None    Shift=    0.000
 Gap=     0.144 Goal=   None    Shift=    0.000
 RMSDP=6.08D-05 MaxDP=4.92D-04 DE=-4.23D-06 OVMax= 5.48D-03

 Cycle   9  Pass 1  IDiag  1:
 E= -76.8976719301974     Delta-E=       -0.000002648625 Rises=F Damp=F
 DIIS: error= 1.70D-05 at cycle   9 NSaved=   9.
 NSaved= 9 IEnMin= 9 EnMin= -76.8976719301974     IErMin= 9 ErrMin= 1.70D-05
 ErrMax= 1.70D-05  0.00D+00 EMaxC= 1.00D-01 BMatC= 2.47D-08 BMatP= 1.60D-07
 IDIUse=1 WtCom= 1.00D+00 WtEn= 0.00D+00
 Coeff-Com:  0.110D-02-0.204D-02-0.142D-01-0.528D-01 0.152D+00 0.382D+00
 Coeff-Com: -0.588D+00-0.383D+00 0.150D+01
 Coeff:      0.110D-02-0.204D-02-0.142D-01-0.528D-01 0.152D+00 0.382D+00
 Coeff:     -0.588D+00-0.383D+00 0.150D+01
 Gap=     0.144 Goal=   None    Shift=    0.000
 Gap=     0.144 Goal=   None    Shift=    0.000
 RMSDP=2.31D-05 MaxDP=1.87D-04 DE=-2.65D-06 OVMax= 2.07D-03

 Cycle  10  Pass 1  IDiag  1:
 E= -76.8976721870553     Delta-E=       -0.000000256858 Rises=F Damp=F
 DIIS: error= 2.04D-06 at cycle  10 NSaved=  10.
 NSaved=10 IEnMin=10 EnMin= -76.8976721870553     IErMin=10 ErrMin= 2.04D-06
 ErrMax= 2.04D-06  0.00D+00 EMaxC= 1.00D-01 BMatC= 8.30D-10 BMatP= 2.47D-08
 IDIUse=1 WtCom= 1.00D+00 WtEn= 0.00D+00
 Coeff-Com: -0.495D-03 0.100D-02 0.109D-03-0.109D-01-0.496D-03 0.692D-02
 Coeff-Com:  0.667D-01-0.519D-01-0.222D+00 0.121D+01
 Coeff:     -0.495D-03 0.100D-02 0.109D-03-0.109D-01-0.496D-03 0.692D-02
 Coeff:      0.667D-01-0.519D-01-0.222D+00 0.121D+01
 Gap=     0.144 Goal=   None    Shift=    0.000
 Gap=     0.144 Goal=   None    Shift=    0.000
 RMSDP=1.89D-06 MaxDP=1.41D-05 DE=-2.57D-07 OVMax= 1.53D-04

 Cycle  11  Pass 1  IDiag  1:
 E= -76.8976721899338     Delta-E=       -0.000000002879 Rises=F Damp=F
 DIIS: error= 6.00D-07 at cycle  11 NSaved=  11.
 NSaved=11 IEnMin=11 EnMin= -76.8976721899338     IErMin=11 ErrMin= 6.00D-07
 ErrMax= 6.00D-07  0.00D+00 EMaxC= 1.00D-01 BMatC= 7.76D-11 BMatP= 8.30D-10
 IDIUse=1 WtCom= 1.00D+00 WtEn= 0.00D+00
 Coeff-Com:  0.735D-04-0.158D-03 0.651D-03 0.551D-02-0.742D-02-0.210D-01
 Coeff-Com:  0.839D-03 0.682D-01-0.980D-01-0.124D+00 0.118D+01
 Coeff:      0.735D-04-0.158D-03 0.651D-03 0.551D-02-0.742D-02-0.210D-01
 Coeff:      0.839D-03 0.682D-01-0.980D-01-0.124D+00 0.118D+01
 Gap=     0.144 Goal=   None    Shift=    0.000
 Gap=     0.144 Goal=   None    Shift=    0.000
 RMSDP=3.23D-07 MaxDP=1.98D-06 DE=-2.88D-09 OVMax= 2.13D-05

 Cycle  12  Pass 1  IDiag  1:
 E= -76.8976721900600     Delta-E=       -0.000000000126 Rises=F Damp=F
 DIIS: error= 2.18D-07 at cycle  12 NSaved=  12.
 NSaved=12 IEnMin=12 EnMin= -76.8976721900600     IErMin=12 ErrMin= 2.18D-07
 ErrMax= 2.18D-07  0.00D+00 EMaxC= 1.00D-01 BMatC= 7.23D-12 BMatP= 7.76D-11
 IDIUse=1 WtCom= 1.00D+00 WtEn= 0.00D+00
 Coeff-Com: -0.224D-04 0.481D-04-0.317D-03-0.199D-02 0.359D-02 0.959D-02
 Coeff-Com: -0.113D-01-0.116D-01 0.340D-01 0.120D-01-0.533D+00 0.150D+01
 Coeff:     -0.224D-04 0.481D-04-0.317D-03-0.199D-02 0.359D-02 0.959D-02
 Coeff:     -0.113D-01-0.116D-01 0.340D-01 0.120D-01-0.533D+00 0.150D+01
 Gap=     0.144 Goal=   None    Shift=    0.000
 Gap=     0.144 Goal=   None    Shift=    0.000
 RMSDP=6.75D-08 MaxDP=4.93D-07 DE=-1.26D-10 OVMax= 3.42D-06

 Cycle  13  Pass 1  IDiag  1:
 E= -76.8976721900717     Delta-E=       -0.000000000012 Rises=F Damp=F
 DIIS: error= 4.76D-08 at cycle  13 NSaved=  13.
 NSaved=13 IEnMin=13 EnMin= -76.8976721900717     IErMin=13 ErrMin= 4.76D-08
 ErrMax= 4.76D-08  0.00D+00 EMaxC= 1.00D-01 BMatC= 3.39D-13 BMatP= 7.23D-12
 IDIUse=1 WtCom= 1.00D+00 WtEn= 0.00D+00
 Coeff-Com:  0.753D-05-0.154D-04 0.700D-04 0.451D-03-0.792D-03-0.213D-02
 Coeff-Com:  0.261D-02 0.268D-02-0.948D-02 0.816D-02 0.115D+00-0.553D+00
 Coeff-Com:  0.144D+01
 Coeff:      0.753D-05-0.154D-04 0.700D-04 0.451D-03-0.792D-03-0.213D-02
 Coeff:      0.261D-02 0.268D-02-0.948D-02 0.816D-02 0.115D+00-0.553D+00
 Coeff:      0.144D+01
 Gap=     0.144 Goal=   None    Shift=    0.000
 Gap=     0.144 Goal=   None    Shift=    0.000
 RMSDP=1.82D-08 MaxDP=1.32D-07 DE=-1.16D-11 OVMax= 8.80D-07

 Cycle  14  Pass 1  IDiag  1:
 E= -76.8976721900723     Delta-E=       -0.000000000001 Rises=F Damp=F
 DIIS: error= 8.00D-09 at cycle  14 NSaved=  14.
 NSaved=14 IEnMin=14 EnMin= -76.8976721900723     IErMin=14 ErrMin= 8.00D-09
 ErrMax= 8.00D-09  0.00D+00 EMaxC= 1.00D-01 BMatC= 1.16D-14 BMatP= 3.39D-13
 IDIUse=1 WtCom= 1.00D+00 WtEn= 0.00D+00
 Coeff-Com:  0.135D-05-0.283D-05 0.164D-04 0.951D-04-0.201D-03-0.525D-03
 Coeff-Com:  0.612D-03 0.681D-03-0.195D-02 0.142D-02 0.284D-01-0.110D+00
 Coeff-Com:  0.960D-01 0.986D+00
 Coeff:      0.135D-05-0.283D-05 0.164D-04 0.951D-04-0.201D-03-0.525D-03
 Coeff:      0.612D-03 0.681D-03-0.195D-02 0.142D-02 0.284D-01-0.110D+00
 Coeff:      0.960D-01 0.986D+00
 Gap=     0.144 Goal=   None    Shift=    0.000
 Gap=     0.144 Goal=   None    Shift=    0.000
 RMSDP=3.26D-09 MaxDP=2.82D-08 DE=-6.82D-13 OVMax= 1.40D-07

 SCF Done:  E(UM062X) =  -76.8976721901     A.U. after   14 cycles
            NFock= 14  Conv=0.33D-08     -V/T= 2.0057
 <Sx>= 0.0000 <Sy>= 0.0000 <Sz>= 0.0000 <S**2>=-0.0000 S=-0.0000
 <L.S>=  0.00000000000    
 KE= 7.646282832149D+01 PE=-2.053476345269D+02 EE= 3.842850370585D+01
 Annihilation of the first spin contaminant:
 S**2 before annihilation    -0.0000,   after     0.0000
 Leave Link  502 at Tue Dec  3 23:12:57 2024, MaxMem=   536870912 cpu:             397.8 elap:              56.3
 (Enter /home/szhao/Apps/g16/l601.exe)
 Copying SCF densities to generalized density rwf, IOpCl= 1 IROHF=0.

 **********************************************************************

            Population analysis using the SCF density.

 **********************************************************************

 Alpha  occ. eigenvalues --  -10.67392 -10.67390  -0.73003  -0.72017  -0.39017
 Alpha  occ. eigenvalues --   -0.38289  -0.24924
 Alpha virt. eigenvalues --   -0.10540  -0.09622  -0.09418   0.02957   0.04929
 Alpha virt. eigenvalues --    0.07514   0.07686   0.09748   0.09789   0.11132
 Alpha virt. eigenvalues --    0.14549   0.17940   0.19892   0.43381   0.45950
 Alpha virt. eigenvalues --    0.54209   0.57771   0.57787   0.61200   0.62845
 Alpha virt. eigenvalues --    0.62866   0.67609   0.79827   1.12779   1.12869
 Alpha virt. eigenvalues --    1.13977   1.15413   1.33786   1.33818   1.35387
 Alpha virt. eigenvalues --    1.38719   1.58455   1.59116   1.85224   1.85294
 Alpha virt. eigenvalues --    1.86204   1.88541   2.39783   2.39923   2.48351
 Alpha virt. eigenvalues --    2.52188   2.70713   2.70894   2.73964   2.75740
 Alpha virt. eigenvalues --    3.17493   3.19923  23.50692  23.51808
  Beta  occ. eigenvalues --  -10.67392 -10.67390  -0.73003  -0.72017  -0.39017
  Beta  occ. eigenvalues --   -0.38289  -0.24924
  Beta virt. eigenvalues --   -0.10540  -0.09622  -0.09418   0.02957   0.04929
  Beta virt. eigenvalues --    0.07514   0.07686   0.09748   0.09789   0.11132
  Beta virt. eigenvalues --    0.14549   0.17940   0.19892   0.43381   0.45950
  Beta virt. eigenvalues --    0.54209   0.57771   0.57787   0.61200   0.62845
  Beta virt. eigenvalues --    0.62866   0.67609   0.79827   1.12779   1.12869
  Beta virt. eigenvalues --    1.13977   1.15413   1.33786   1.33818   1.35387
  Beta virt. eigenvalues --    1.38719   1.58455   1.59116   1.85224   1.85294
  Beta virt. eigenvalues --    1.86204   1.88541   2.39783   2.39923   2.48351
  Beta virt. eigenvalues --    2.52188   2.70713   2.70894   2.73964   2.75740
  Beta virt. eigenvalues --    3.17493   3.19923  23.50692  23.51808
          Condensed to atoms (all electrons):
               1          2          3          4
     1  C    5.810890   0.121467   0.200967   0.000355
     2  C    0.121467   5.811031   0.000358   0.200959
     3  H    0.200967   0.000358   0.665191  -0.000261
     4  H    0.000355   0.200959  -0.000261   0.665195
          Atomic-Atomic Spin Densities.
               1          2          3          4
     1  C   -0.000000  -0.000000  -0.000000  -0.000000
     2  C   -0.000000   0.000000   0.000000   0.000000
     3  H   -0.000000   0.000000   0.000000  -0.000000
     4  H   -0.000000   0.000000  -0.000000  -0.000000
 Mulliken charges and spin densities:
               1          2
     1  C   -0.133680  -0.000000
     2  C   -0.133816   0.000000
     3  H    0.133745   0.000000
     4  H    0.133751  -0.000000
 Sum of Mulliken charges =  -0.00000   0.00000
 Mulliken charges and spin densities with hydrogens summed into heavy atoms:
               1          2
     1  C    0.000064  -0.000000
     2  C   -0.000064   0.000000
 Electronic spatial extent (au):  <R**2>=            171.6498
 Charge=             -0.0000 electrons
 Dipole moment (field-independent basis, Debye):
    X=              0.0004    Y=              1.9113    Z=              0.9262  Tot=              2.1239
 Quadrupole moment (field-independent basis, Debye-Ang):
   XX=            -14.8239   YY=            -13.3508   ZZ=            -13.4219
   XY=              1.7877   XZ=             -3.6887   YZ=              0.0455
 Traceless Quadrupole moment (field-independent basis, Debye-Ang):
   XX=             -0.9583   YY=              0.5147   ZZ=              0.4436
   XY=              1.7877   XZ=             -3.6887   YZ=              0.0455
 Octapole moment (field-independent basis, Debye-Ang**2):
  XXX=              0.0044  YYY=             -0.8660  ZZZ=             -0.1721  XYY=             -1.6982
  XXY=              6.9450  XXZ=              3.3622  XZZ=              1.6973  YZZ=             -0.2229
  YYZ=             -0.3552  XYZ=              1.3403
 Hexadecapole moment (field-independent basis, Debye-Ang**3):
 XXXX=           -274.1859 YYYY=            -22.0177 ZZZZ=            -22.5838 XXXY=              3.5830
 XXXZ=             -7.3885 YYYX=             -0.1266 YYYZ=             -0.1607 ZZZX=              1.0239
 ZZZY=              0.5198 XXYY=            -41.4558 XXZZ=            -41.7891 YYZZ=             -7.5418
 XXYZ=              0.2110 YYXZ=              0.2429 ZZXY=             -0.4877
 N-N= 1.355863030944D+01 E-N=-2.053476345461D+02  KE= 7.646282832149D+01
                          Isotropic Fermi Contact Couplings
        Atom                 a.u.       MegaHertz       Gauss      10(-4) cm-1
     1  C(13)             -0.00000      -0.00000      -0.00000      -0.00000
     2  C(13)              0.00000       0.00000       0.00000       0.00000
     3  H(1)               0.00000       0.00000       0.00000       0.00000
     4  H(1)              -0.00000      -0.00000      -0.00000      -0.00000
 --------------------------------------------------------
       Center         ----  Spin Dipole Couplings  ----
                      3XX-RR        3YY-RR        3ZZ-RR
 --------------------------------------------------------
     1   Atom        0.000000      0.000000      0.000000
     2   Atom        0.000000      0.000000      0.000000
     3   Atom        0.000000      0.000000      0.000000
     4   Atom        0.000000      0.000000      0.000000
 --------------------------------------------------------
                        XY            XZ            YZ
 --------------------------------------------------------
     1   Atom        0.000000      0.000000      0.000000
     2   Atom        0.000000      0.000000      0.000000
     3   Atom        0.000000      0.000000      0.000000
     4   Atom        0.000000      0.000000      0.000000
 --------------------------------------------------------


 ---------------------------------------------------------------------------------
              Anisotropic Spin Dipole Couplings in Principal Axis System
 ---------------------------------------------------------------------------------

       Atom             a.u.   MegaHertz   Gauss  10(-4) cm-1        Axes

              Baa     0.0000     0.000     0.000     0.000  1.0000  0.0000  0.0000
     1 C(13)  Bbb     0.0000     0.000     0.000     0.000 -0.0000  1.0000  0.0000
              Bcc     0.0000     0.000     0.000     0.000  0.0000  0.0000  1.0000
 
              Baa     0.0000     0.000     0.000     0.000  1.0000  0.0000  0.0000
     2 C(13)  Bbb     0.0000     0.000     0.000     0.000 -0.0000  1.0000  0.0000
              Bcc     0.0000     0.000     0.000     0.000  0.0000  0.0000  1.0000
 
              Baa     0.0000     0.000     0.000     0.000  1.0000  0.0000  0.0000
     3 H(1)   Bbb     0.0000     0.000     0.000     0.000 -0.0000  1.0000  0.0000
              Bcc     0.0000     0.000     0.000     0.000  0.0000  0.0000  1.0000
 
              Baa     0.0000     0.000     0.000     0.000  1.0000  0.0000  0.0000
     4 H(1)   Bbb     0.0000     0.000     0.000     0.000 -0.0000  1.0000  0.0000
              Bcc     0.0000     0.000     0.000     0.000  0.0000  0.0000  1.0000
 

 ---------------------------------------------------------------------------------

 No NMR shielding tensors so no spin-rotation constants.
 Leave Link  601 at Tue Dec  3 23:12:57 2024, MaxMem=   536870912 cpu:               0.9 elap:               0.1
 (Enter /home/szhao/Apps/g16/l701.exe)
 ... and contract with generalized density number  0.
 Compute integral first derivatives.
 Leave Link  701 at Tue Dec  3 23:13:09 2024, MaxMem=   536870912 cpu:              79.3 elap:              11.3
 (Enter /home/szhao/Apps/g16/l702.exe)
 L702 exits ... SP integral derivatives will be done elsewhere.
 Leave Link  702 at Tue Dec  3 23:13:09 2024, MaxMem=   536870912 cpu:               0.2 elap:               0.0
 (Enter /home/szhao/Apps/g16/l703.exe)
 Integral derivatives from FoFJK, PRISM(SPDF).
 Compute integral first derivatives, UseDBF=F ICtDFT=           0.
 Calling FoFJK, ICntrl=      2127 FMM=F ISym2X=0 I1Cent= 0 IOpClX= 1 NMat=1 NMatS=1 NMatT=0.
 FoFJK:  IHMeth= 1 ICntrl=    2127 DoSepK=F KAlg= 0 I1Cent=           0 FoldK=F
 IRaf=         0 NMat=       1 IRICut=       1 DoRegI=T DoRafI=F ISym2E= 0 IDoP0=0 IntGTp=1.
 FoFCou: FMM=F IPFlag=           0 FMFlag=      100000 FMFlg1=         800
         NFxFlg=           0 DoJE=F BraDBF=F KetDBF=F FulRan=T
         wScrn=  0.000000 ICntrl=      2127 IOpCl=  1 I1Cent=           0 NGrid=           0
         NMat0=    1 NMatS0=      1 NMatT0=    0 NMatD0=    1 NMtDS0=    0 NMtDT0=    0
 Symmetry not used in FoFCou.
 Leave Link  703 at Tue Dec  3 23:13:09 2024, MaxMem=   536870912 cpu:               5.1 elap:               0.6
 (Enter /home/szhao/Apps/g16/l716.exe)
 Dipole        = 1.60343115D-04 7.51956391D-01 3.64394321D-01
 -------------------------------------------------------------------
 Center     Atomic                   Forces (Hartrees/Bohr)
 Number     Number              X              Y              Z
 -------------------------------------------------------------------
      1        6          -0.000000000   -0.000000000   -0.000000000
      2        6          -0.000000000   -0.000000000   -0.000000000
      3        1           0.004000406    0.000050861    0.001676855
      4        1          -0.004007516    0.001378156   -0.001012446
 -------------------------------------------------------------------
 Cartesian Forces:  Max     0.004007516 RMS     0.001774876
 Leave Link  716 at Tue Dec  3 23:13:09 2024, MaxMem=   536870912 cpu:               0.3 elap:               0.0
 (Enter /home/szhao/Apps/g16/l103.exe)

 GradGradGradGradGradGradGradGradGradGradGradGradGradGradGradGradGradGrad
 Berny optimization.
 FormGI is forming the generalized inverse of G from B-inverse, IUseBI=4.
 Internal  Forces:  Max     0.008769954 RMS     0.004442102
 Search for a local minimum.
 Step number   1 out of a maximum of   21
 All quantities printed in internal units (Hartrees-Bohrs-Radians)
 RMS Force = .56079D-02 SwitMx=.10000D-02 MixMth= 1
 Mixed Optimization -- RFO/linear search
 Second derivative matrix not updated -- first step.
 The second derivative matrix:
                          X1        Y1        Z1        X2        Y2
           X1           0.50000
           Y1           0.00000   0.50000
           Z1           0.00000   0.00000   0.50000
           X2           0.00000   0.00000   0.00000   0.50000
           Y2           0.00000   0.00000   0.00000   0.00000   0.50000
           Z2           0.00000   0.00000   0.00000   0.00000   0.00000
           R1           0.00000   0.00000   0.00000   0.00000   0.00000
           R2           0.00000   0.00000   0.00000   0.00000   0.00000
           A1           0.00000   0.00000   0.00000   0.00000   0.00000
           A2           0.00000   0.00000   0.00000   0.00000   0.00000
           D1           0.00000   0.00000   0.00000   0.00000   0.00000
                          Z2        R1        R2        A1        A2
           Z2           0.50000
           R1           0.00000   0.31871
           R2           0.00000   0.00000   0.31876
           A1           0.00000   0.00000   0.00000   0.16000
           A2           0.00000   0.00000   0.00000   0.00000   0.16000
           D1           0.00000   0.00000   0.00000   0.00000   0.00000
                          D1
           D1           0.00230
 ITU=  0
     Eigenvalues ---    0.00230   0.16000   0.16000   0.31871   0.31876
     Eigenvalues --- 1000.000001000.000001000.000001000.000001000.00000
     Eigenvalues --- 1000.00000
 RFO step:  Lambda=-1.20129135D-03 EMin= 2.30000000D-03
 Linear search not attempted -- first point.
 Iteration  1 RMS(Cart)=  0.10197628 RMS(Int)=  0.02022877
 Iteration  2 RMS(Cart)=  0.03035573 RMS(Int)=  0.00054476
 Iteration  3 RMS(Cart)=  0.00058015 RMS(Int)=  0.00000006
 Iteration  4 RMS(Cart)=  0.00000008 RMS(Int)=  0.00000000
 ITry= 1 IFail=0 DXMaxC= 2.90D-01 DCOld= 1.00D+10 DXMaxT= 3.00D-01 DXLimC= 3.00D+00 Rises=F
 Variable       Old X    -DE/DX   Delta X   Delta X   Delta X     New X
                                 (Linear)    (Quad)   (Total)
    X1       -3.03797   0.00400   0.00000   0.00000   0.00000  -3.03797
    Y1        0.00000  -0.00089   0.00000   0.00000   0.00000   0.00000
    Z1        0.00000   0.00360   0.00000   0.00000   0.00000   0.00000
    X2        3.03797  -0.00401   0.00000   0.00000   0.00000   3.03797
    Y2        0.00000   0.00231   0.00000   0.00000   0.00000   0.00000
    Z2        0.00000  -0.00294   0.00000   0.00000   0.00000   0.00000
    R1        2.11080   0.00121   0.00000   0.00377   0.00377   2.11457
    R2        2.11071   0.00124   0.00000   0.00387   0.00387   2.11457
    A1        1.67218  -0.00875   0.00000  -0.05426  -0.05426   1.61792
    A2        1.67276  -0.00877   0.00000  -0.05440  -0.05440   1.61836
    D1       -1.65243  -0.00092   0.00000  -0.26194  -0.26194  -1.91437
         Item               Value     Threshold  Converged?
 Maximum Force            0.008770     0.000450     NO 
 RMS     Force            0.005608     0.000300     NO 
 Maximum Displacement     0.289625     0.001800     NO 
 RMS     Displacement     0.127733     0.001200     NO 
 Predicted change in Energy=-6.454202D-04
 Lowest energy point so far.  Saving SCF results.
 GradGradGradGradGradGradGradGradGradGradGradGradGradGradGradGradGradGrad

 Leave Link  103 at Tue Dec  3 23:13:09 2024, MaxMem=   536870912 cpu:               0.1 elap:               0.0
 (Enter /home/szhao/Apps/g16/l202.exe)
                          Input orientation:                          
 ---------------------------------------------------------------------
 Center     Atomic      Atomic             Coordinates (Angstroms)
 Number     Number       Type             X           Y           Z
 ---------------------------------------------------------------------
      1          6           0       -1.607625    0.000000    0.000000
      2          6           0        1.607625    0.000000    0.000000
      3          1           0       -1.660332    0.168089    1.105030
      4          1           0        1.660829    0.983806   -0.530490
 ---------------------------------------------------------------------
                    Distance matrix (angstroms):
                    1          2          3          4
     1  C    0.000000
     2  C    3.215250   0.000000
     3  H    1.118983   3.453822   0.000000
     4  H    3.454285   1.118983   3.790835   0.000000
 Symmetry turned off by external request.
 Stoichiometry    C2H2
 Framework group  C1[X(C2H2)]
 Deg. of freedom     6
 Full point group                 C1      NOp   1
 Rotational constants (GHZ):         218.6048149           7.3781043           7.2959497
 Leave Link  202 at Tue Dec  3 23:13:09 2024, MaxMem=   536870912 cpu:               0.0 elap:               0.0
 (Enter /home/szhao/Apps/g16/l301.exe)
 Standard basis: 6-311+G(d,p) (5D, 7F)
 Ernie: Thresh=  0.10000D-02 Tol=  0.10000D-05 Strict=F.
    56 basis functions,    88 primitive gaussians,    58 cartesian basis functions
     7 alpha electrons        7 beta electrons
       nuclear repulsion energy        13.5779656161 Hartrees.
 IExCor= 4336 DFT=T Ex+Corr=M062X ExCW=0 ScaHFX=  0.540000
 ScaDFX=  1.000000  1.000000  1.000000  1.000000 ScalE2=  1.000000  1.000000
 IRadAn=      7 IRanWt=     -1 IRanGd=            0 ICorTp=0 IEmpDi=  4
 NAtoms=    4 NActive=    4 NUniq=    4 SFac= 1.00D+00 NAtFMM=   60 NAOKFM=F Big=F
 Integral buffers will be    131072 words long.
 Raffenetti 2 integral format.
 Two-electron integral symmetry is turned off.
 Leave Link  301 at Tue Dec  3 23:13:09 2024, MaxMem=   536870912 cpu:               0.3 elap:               0.0
 (Enter /home/szhao/Apps/g16/l302.exe)
 NPDir=0 NMtPBC=     1 NCelOv=     1 NCel=       1 NClECP=     1 NCelD=      1
         NCelK=      1 NCelE2=     1 NClLst=     1 CellRange=     0.0.
 One-electron integrals computed using PRISM.
 NBasis=    56 RedAO= T EigKep=  1.05D-02  NBF=    56
 NBsUse=    56 1.00D-06 EigRej= -1.00D+00 NBFU=    56
 Precomputing XC quadrature grid using
 IXCGrd= 4 IRadAn=           7 IRanWt=          -1 IRanGd=           0 AccXCQ= 0.00D+00.
 Generated NRdTot=       0 NPtTot=           0 NUsed=           0 NTot=          32
 NSgBfM=    58    58    58    58    58 MxSgAt=     4 MxSgA2=     4.
 Leave Link  302 at Tue Dec  3 23:13:10 2024, MaxMem=   536870912 cpu:               0.9 elap:               0.1
 (Enter /home/szhao/Apps/g16/l303.exe)
 DipDrv:  MaxL=1.
 Leave Link  303 at Tue Dec  3 23:13:10 2024, MaxMem=   536870912 cpu:               0.3 elap:               0.0
 (Enter /home/szhao/Apps/g16/l401.exe)
 Initial guess from the checkpoint file:  "opt.chk"
 B after Tr=    -0.000020   -0.026425   -0.013191
         Rot=    0.999968   -0.005726   -0.005065   -0.002492 Ang=  -0.92 deg.
 Guess basis will be translated and rotated to current coordinates.
 JPrj=2 DoOrth=T DoCkMO=T.
 Initial guess <Sx>= 0.0000 <Sy>= 0.0000 <Sz>= 0.0000 <S**2>=-0.0000 S=-0.0000
 Generating alternative initial guess.
 ExpMin= 4.38D-02 ExpMax= 4.56D+03 ExpMxC= 6.82D+02 IAcc=3 IRadAn=         5 AccDes= 0.00D+00
 Harris functional with IExCor= 1009 and IRadAn=       5 diagonalized for initial guess.
 HarFok:  IExCor= 1009 AccDes= 0.00D+00 IRadAn=         5 IDoV= 1 UseB2=F ITyADJ=14
 ICtDFT=  3500011 ScaDFX=  1.000000  1.000000  1.000000  1.000000
 FoFCou: FMM=F IPFlag=           0 FMFlag=      100000 FMFlg1=           0
         NFxFlg=           0 DoJE=T BraDBF=F KetDBF=T FulRan=T
         wScrn=  0.000000 ICntrl=       500 IOpCl=  0 I1Cent=   200000004 NGrid=           0
         NMat0=    1 NMatS0=      1 NMatT0=    0 NMatD0=    1 NMtDS0=    0 NMtDT0=    0
 Symmetry not used in FoFCou.
 Harris En= -76.8613449637089    
 Leave Link  401 at Tue Dec  3 23:13:10 2024, MaxMem=   536870912 cpu:               1.6 elap:               0.2
 (Enter /home/szhao/Apps/g16/l502.exe)
 Keep R1 and R2 ints in memory in canonical form, NReq=9624198.
 FoFCou: FMM=F IPFlag=           0 FMFlag=           0 FMFlg1=           0
         NFxFlg=           0 DoJE=F BraDBF=F KetDBF=F FulRan=T
         wScrn=  0.000000 ICntrl=       600 IOpCl=  0 I1Cent=           0 NGrid=           0
         NMat0=    1 NMatS0=   1596 NMatT0=    0 NMatD0=    1 NMtDS0=    0 NMtDT0=    0
 Symmetry not used in FoFCou.
 Two-electron integral symmetry not used.
 UHF open shell SCF:
 Using DIIS extrapolation, IDIIS=  1040.
 NGot=   536870912 LenX=   534314338 LenY=   534310533
 Requested convergence on RMS density matrix=1.00D-08 within 128 cycles.
 Requested convergence on MAX density matrix=1.00D-06.
 Requested convergence on             energy=1.00D-06.
 No special actions if energy rises.

 Cycle   1  Pass 1  IDiag  1:
 E= -76.8932293564032    
 DIIS: error= 4.35D-03 at cycle   1 NSaved=   1.
 NSaved= 1 IEnMin= 1 EnMin= -76.8932293564032     IErMin= 1 ErrMin= 4.35D-03
 ErrMax= 4.35D-03  0.00D+00 EMaxC= 1.00D-01 BMatC= 4.15D-03 BMatP= 4.15D-03
 IDIUse=3 WtCom= 9.56D-01 WtEn= 4.35D-02
 Coeff-Com:  0.100D+01
 Coeff-En:   0.100D+01
 Coeff:      0.100D+01
 Gap=     0.428 Goal=   None    Shift=    0.000
 Gap=     0.428 Goal=   None    Shift=    0.000
 GapD=    0.428 DampG=2.000 DampE=1.000 DampFc=2.0000 IDamp=-1.
 RMSDP=7.14D-04 MaxDP=6.29D-03              OVMax= 3.66D-02

 Cycle   2  Pass 1  IDiag  1:
 E= -76.8972660182174     Delta-E=       -0.004036661814 Rises=F Damp=F
 DIIS: error= 1.89D-03 at cycle   2 NSaved=   2.
 NSaved= 2 IEnMin= 2 EnMin= -76.8972660182174     IErMin= 2 ErrMin= 1.89D-03
 ErrMax= 1.89D-03  0.00D+00 EMaxC= 1.00D-01 BMatC= 5.96D-04 BMatP= 4.15D-03
 IDIUse=3 WtCom= 9.81D-01 WtEn= 1.89D-02
 Coeff-Com: -0.351D+00 0.135D+01
 Coeff-En:   0.000D+00 0.100D+01
 Coeff:     -0.344D+00 0.134D+01
 Gap=     0.144 Goal=   None    Shift=    0.000
 Gap=     0.144 Goal=   None    Shift=    0.000
 RMSDP=5.26D-04 MaxDP=4.39D-03 DE=-4.04D-03 OVMax= 2.85D-02

 Cycle   3  Pass 1  IDiag  1:
 E= -76.8984953801050     Delta-E=       -0.001229361888 Rises=F Damp=F
 DIIS: error= 9.01D-04 at cycle   3 NSaved=   3.
 NSaved= 3 IEnMin= 3 EnMin= -76.8984953801050     IErMin= 3 ErrMin= 9.01D-04
 ErrMax= 9.01D-04  0.00D+00 EMaxC= 1.00D-01 BMatC= 1.15D-04 BMatP= 5.96D-04
 IDIUse=3 WtCom= 9.91D-01 WtEn= 9.01D-03
 Coeff-Com:  0.370D-03-0.402D+00 0.140D+01
 Coeff-En:   0.000D+00 0.000D+00 0.100D+01
 Coeff:      0.367D-03-0.398D+00 0.140D+01
 Gap=     0.144 Goal=   None    Shift=    0.000
 Gap=     0.144 Goal=   None    Shift=    0.000
 RMSDP=2.63D-04 MaxDP=2.06D-03 DE=-1.23D-03 OVMax= 1.40D-02

 Cycle   4  Pass 1  IDiag  1:
 E= -76.8987120960737     Delta-E=       -0.000216715969 Rises=F Damp=F
 DIIS: error= 2.85D-04 at cycle   4 NSaved=   4.
 NSaved= 4 IEnMin= 4 EnMin= -76.8987120960737     IErMin= 4 ErrMin= 2.85D-04
 ErrMax= 2.85D-04  0.00D+00 EMaxC= 1.00D-01 BMatC= 6.46D-06 BMatP= 1.15D-04
 IDIUse=3 WtCom= 9.97D-01 WtEn= 2.85D-03
 Coeff-Com:  0.310D-01-0.187D+00 0.168D+00 0.989D+00
 Coeff-En:   0.000D+00 0.000D+00 0.000D+00 0.100D+01
 Coeff:      0.309D-01-0.187D+00 0.167D+00 0.989D+00
 Gap=     0.144 Goal=   None    Shift=    0.000
 Gap=     0.144 Goal=   None    Shift=    0.000
 RMSDP=8.26D-05 MaxDP=6.69D-04 DE=-2.17D-04 OVMax= 3.78D-03

 Cycle   5  Pass 1  IDiag  1:
 E= -76.8987294382815     Delta-E=       -0.000017342208 Rises=F Damp=F
 DIIS: error= 1.24D-04 at cycle   5 NSaved=   5.
 NSaved= 5 IEnMin= 5 EnMin= -76.8987294382815     IErMin= 5 ErrMin= 1.24D-04
 ErrMax= 1.24D-04  0.00D+00 EMaxC= 1.00D-01 BMatC= 1.43D-06 BMatP= 6.46D-06
 IDIUse=3 WtCom= 9.99D-01 WtEn= 1.24D-03
 Coeff-Com: -0.179D-02 0.339D-01-0.116D+00 0.102D+00 0.982D+00
 Coeff-En:   0.000D+00 0.000D+00 0.000D+00 0.000D+00 0.100D+01
 Coeff:     -0.178D-02 0.339D-01-0.116D+00 0.102D+00 0.982D+00
 Gap=     0.145 Goal=   None    Shift=    0.000
 Gap=     0.145 Goal=   None    Shift=    0.000
 RMSDP=3.40D-05 MaxDP=2.55D-04 DE=-1.73D-05 OVMax= 2.88D-03

 Cycle   6  Pass 1  IDiag  1:
 E= -76.8987336743911     Delta-E=       -0.000004236110 Rises=F Damp=F
 DIIS: error= 9.94D-05 at cycle   6 NSaved=   6.
 NSaved= 6 IEnMin= 6 EnMin= -76.8987336743911     IErMin= 6 ErrMin= 9.94D-05
 ErrMax= 9.94D-05  0.00D+00 EMaxC= 1.00D-01 BMatC= 1.32D-06 BMatP= 1.43D-06
 IDIUse=1 WtCom= 1.00D+00 WtEn= 0.00D+00
 Coeff-Com: -0.509D-02 0.484D-01-0.113D+00-0.338D-01 0.691D+00 0.412D+00
 Coeff:     -0.509D-02 0.484D-01-0.113D+00-0.338D-01 0.691D+00 0.412D+00
 Gap=     0.145 Goal=   None    Shift=    0.000
 Gap=     0.145 Goal=   None    Shift=    0.000
 RMSDP=1.70D-05 MaxDP=1.58D-04 DE=-4.24D-06 OVMax= 1.45D-03

 Cycle   7  Pass 1  IDiag  1:
 E= -76.8987355351780     Delta-E=       -0.000001860787 Rises=F Damp=F
 DIIS: error= 8.98D-05 at cycle   7 NSaved=   7.
 NSaved= 7 IEnMin= 7 EnMin= -76.8987355351780     IErMin= 7 ErrMin= 8.98D-05
 ErrMax= 8.98D-05  0.00D+00 EMaxC= 1.00D-01 BMatC= 7.15D-07 BMatP= 1.32D-06
 IDIUse=1 WtCom= 1.00D+00 WtEn= 0.00D+00
 Coeff-Com: -0.508D-02 0.273D-01-0.226D-01-0.164D+00-0.280D+00 0.474D+00
 Coeff-Com:  0.971D+00
 Coeff:     -0.508D-02 0.273D-01-0.226D-01-0.164D+00-0.280D+00 0.474D+00
 Coeff:      0.971D+00
 Gap=     0.145 Goal=   None    Shift=    0.000
 Gap=     0.145 Goal=   None    Shift=    0.000
 RMSDP=3.87D-05 MaxDP=3.19D-04 DE=-1.86D-06 OVMax= 3.49D-03

 Cycle   8  Pass 1  IDiag  1:
 E= -76.8987393999726     Delta-E=       -0.000003864795 Rises=F Damp=F
 DIIS: error= 6.52D-05 at cycle   8 NSaved=   8.
 NSaved= 8 IEnMin= 8 EnMin= -76.8987393999726     IErMin= 8 ErrMin= 6.52D-05
 ErrMax= 6.52D-05  0.00D+00 EMaxC= 1.00D-01 BMatC= 2.60D-07 BMatP= 7.15D-07
 IDIUse=1 WtCom= 1.00D+00 WtEn= 0.00D+00
 Coeff-Com:  0.818D-02-0.726D-01 0.169D+00 0.107D+00-0.886D+00-0.644D+00
 Coeff-Com: -0.156D+00 0.247D+01
 Coeff:      0.818D-02-0.726D-01 0.169D+00 0.107D+00-0.886D+00-0.644D+00
 Coeff:     -0.156D+00 0.247D+01
 Gap=     0.145 Goal=   None    Shift=    0.000
 Gap=     0.145 Goal=   None    Shift=    0.000
 RMSDP=8.78D-05 MaxDP=7.41D-04 DE=-3.86D-06 OVMax= 7.97D-03

 Cycle   9  Pass 1  IDiag  1:
 E= -76.8987438127593     Delta-E=       -0.000004412787 Rises=F Damp=F
 DIIS: error= 1.25D-05 at cycle   9 NSaved=   9.
 NSaved= 9 IEnMin= 9 EnMin= -76.8987438127593     IErMin= 9 ErrMin= 1.25D-05
 ErrMax= 1.25D-05  0.00D+00 EMaxC= 1.00D-01 BMatC= 1.51D-08 BMatP= 2.60D-07
 IDIUse=1 WtCom= 1.00D+00 WtEn= 0.00D+00
 Coeff-Com: -0.128D-02 0.116D-01-0.300D-01-0.183D-01 0.178D+00 0.117D+00
 Coeff-Com: -0.176D-01-0.618D+00 0.138D+01
 Coeff:     -0.128D-02 0.116D-01-0.300D-01-0.183D-01 0.178D+00 0.117D+00
 Coeff:     -0.176D-01-0.618D+00 0.138D+01
 Gap=     0.145 Goal=   None    Shift=    0.000
 Gap=     0.145 Goal=   None    Shift=    0.000
 RMSDP=1.89D-05 MaxDP=1.59D-04 DE=-4.41D-06 OVMax= 1.71D-03

 Cycle  10  Pass 1  IDiag  1:
 E= -76.8987439951597     Delta-E=       -0.000000182400 Rises=F Damp=F
 DIIS: error= 2.64D-06 at cycle  10 NSaved=  10.
 NSaved=10 IEnMin=10 EnMin= -76.8987439951597     IErMin=10 ErrMin= 2.64D-06
 ErrMax= 2.64D-06  0.00D+00 EMaxC= 1.00D-01 BMatC= 8.75D-10 BMatP= 1.51D-08
 IDIUse=1 WtCom= 1.00D+00 WtEn= 0.00D+00
 Coeff-Com: -0.530D-03 0.463D-02-0.104D-01-0.722D-02 0.627D-01 0.416D-01
 Coeff-Com:  0.731D-02-0.161D+00-0.875D-01 0.115D+01
 Coeff:     -0.530D-03 0.463D-02-0.104D-01-0.722D-02 0.627D-01 0.416D-01
 Coeff:      0.731D-02-0.161D+00-0.875D-01 0.115D+01
 Gap=     0.145 Goal=   None    Shift=    0.000
 Gap=     0.145 Goal=   None    Shift=    0.000
 RMSDP=2.62D-06 MaxDP=2.16D-05 DE=-1.82D-07 OVMax= 2.29D-04

 Cycle  11  Pass 1  IDiag  1:
 E= -76.8987439992177     Delta-E=       -0.000000004058 Rises=F Damp=F
 DIIS: error= 6.51D-07 at cycle  11 NSaved=  11.
 NSaved=11 IEnMin=11 EnMin= -76.8987439992177     IErMin=11 ErrMin= 6.51D-07
 ErrMax= 6.51D-07  0.00D+00 EMaxC= 1.00D-01 BMatC= 7.97D-11 BMatP= 8.75D-10
 IDIUse=1 WtCom= 1.00D+00 WtEn= 0.00D+00
 Coeff-Com:  0.846D-04-0.752D-03 0.193D-02 0.148D-02-0.119D-01-0.121D-01
 Coeff-Com: -0.282D-02 0.591D-01-0.105D+00-0.139D+00 0.121D+01
 Coeff:      0.846D-04-0.752D-03 0.193D-02 0.148D-02-0.119D-01-0.121D-01
 Coeff:     -0.282D-02 0.591D-01-0.105D+00-0.139D+00 0.121D+01
 Gap=     0.145 Goal=   None    Shift=    0.000
 Gap=     0.145 Goal=   None    Shift=    0.000
 RMSDP=2.66D-07 MaxDP=1.96D-06 DE=-4.06D-09 OVMax= 1.46D-05

 Cycle  12  Pass 1  IDiag  1:
 E= -76.8987439993199     Delta-E=       -0.000000000102 Rises=F Damp=F
 DIIS: error= 6.54D-08 at cycle  12 NSaved=  12.
 NSaved=12 IEnMin=12 EnMin= -76.8987439993199     IErMin=12 ErrMin= 6.54D-08
 ErrMax= 6.54D-08  0.00D+00 EMaxC= 1.00D-01 BMatC= 1.65D-12 BMatP= 7.97D-11
 IDIUse=1 WtCom= 1.00D+00 WtEn= 0.00D+00
 Coeff-Com:  0.100D-04-0.862D-04 0.228D-03 0.282D-03-0.201D-02-0.148D-02
 Coeff-Com: -0.396D-03 0.548D-02 0.202D-02-0.241D-01 0.301D-01 0.990D+00
 Coeff:      0.100D-04-0.862D-04 0.228D-03 0.282D-03-0.201D-02-0.148D-02
 Coeff:     -0.396D-03 0.548D-02 0.202D-02-0.241D-01 0.301D-01 0.990D+00
 Gap=     0.145 Goal=   None    Shift=    0.000
 Gap=     0.145 Goal=   None    Shift=    0.000
 RMSDP=2.01D-08 MaxDP=1.59D-07 DE=-1.02D-10 OVMax= 7.31D-07

 Cycle  13  Pass 1  IDiag  1:
 E= -76.8987439993210     Delta-E=       -0.000000000001 Rises=F Damp=F
 DIIS: error= 2.40D-08 at cycle  13 NSaved=  13.
 NSaved=13 IEnMin=13 EnMin= -76.8987439993210     IErMin=13 ErrMin= 2.40D-08
 ErrMax= 2.40D-08  0.00D+00 EMaxC= 1.00D-01 BMatC= 1.20D-13 BMatP= 1.65D-12
 IDIUse=1 WtCom= 1.00D+00 WtEn= 0.00D+00
 Coeff-Com: -0.231D-05 0.221D-04-0.631D-04-0.146D-05 0.232D-03 0.357D-03
 Coeff-Com:  0.170D-03-0.166D-02 0.289D-02 0.189D-02-0.486D-01 0.657D-01
 Coeff-Com:  0.979D+00
 Coeff:     -0.231D-05 0.221D-04-0.631D-04-0.146D-05 0.232D-03 0.357D-03
 Coeff:      0.170D-03-0.166D-02 0.289D-02 0.189D-02-0.486D-01 0.657D-01
 Coeff:      0.979D+00
 Gap=     0.145 Goal=   None    Shift=    0.000
 Gap=     0.145 Goal=   None    Shift=    0.000
 RMSDP=8.75D-09 MaxDP=6.44D-08 DE=-1.14D-12 OVMax= 5.51D-07

 SCF Done:  E(UM062X) =  -76.8987439993     A.U. after   13 cycles
            NFock= 13  Conv=0.87D-08     -V/T= 2.0058
 <Sx>= 0.0000 <Sy>= 0.0000 <Sz>= 0.0000 <S**2>=-0.0000 S=-0.0000
 <L.S>=  0.00000000000    
 KE= 7.645683197582D+01 PE=-2.053802676831D+02 EE= 3.844672609186D+01
 Annihilation of the first spin contaminant:
 S**2 before annihilation    -0.0000,   after    -0.0000
 Leave Link  502 at Tue Dec  3 23:13:21 2024, MaxMem=   536870912 cpu:              82.5 elap:              11.3
 (Enter /home/szhao/Apps/g16/l701.exe)
 ... and contract with generalized density number  0.
 Compute integral first derivatives.
 Leave Link  701 at Tue Dec  3 23:13:21 2024, MaxMem=   536870912 cpu:               0.7 elap:               0.1
 (Enter /home/szhao/Apps/g16/l702.exe)
 L702 exits ... SP integral derivatives will be done elsewhere.
 Leave Link  702 at Tue Dec  3 23:13:21 2024, MaxMem=   536870912 cpu:               0.3 elap:               0.0
 (Enter /home/szhao/Apps/g16/l703.exe)
 Integral derivatives from FoFJK, PRISM(SPDF).
 Compute integral first derivatives, UseDBF=F ICtDFT=           0.
 Calling FoFJK, ICntrl=      2127 FMM=F ISym2X=0 I1Cent= 0 IOpClX= 1 NMat=1 NMatS=1 NMatT=0.
 FoFJK:  IHMeth= 1 ICntrl=    2127 DoSepK=F KAlg= 0 I1Cent=           0 FoldK=F
 IRaf=         0 NMat=       1 IRICut=       1 DoRegI=T DoRafI=F ISym2E= 0 IDoP0=0 IntGTp=1.
 FoFCou: FMM=F IPFlag=           0 FMFlag=      100000 FMFlg1=         800
         NFxFlg=           0 DoJE=F BraDBF=F KetDBF=F FulRan=T
         wScrn=  0.000000 ICntrl=      2127 IOpCl=  1 I1Cent=           0 NGrid=           0
         NMat0=    1 NMatS0=      1 NMatT0=    0 NMatD0=    1 NMtDS0=    0 NMtDT0=    0
 Symmetry not used in FoFCou.
 Leave Link  703 at Tue Dec  3 23:13:28 2024, MaxMem=   536870912 cpu:              44.9 elap:               6.3
 (Enter /home/szhao/Apps/g16/l716.exe)
 Dipole        = 1.19800457D-04 6.42003245D-01 3.20242321D-01
 -------------------------------------------------------------------
 Center     Atomic                   Forces (Hartrees/Bohr)
 Number     Number              X              Y              Z
 -------------------------------------------------------------------
      1        6          -0.000000000   -0.000000000   -0.000000000
      2        6          -0.000000000   -0.000000000   -0.000000000
      3        1           0.003324126   -0.000325311   -0.000022435
      4        1          -0.003329844   -0.000209135   -0.000251024
 -------------------------------------------------------------------
 Cartesian Forces:  Max     0.003329844 RMS     0.001364758
 Leave Link  716 at Tue Dec  3 23:13:28 2024, MaxMem=   536870912 cpu:               0.2 elap:               0.0
 (Enter /home/szhao/Apps/g16/l103.exe)

 GradGradGradGradGradGradGradGradGradGradGradGradGradGradGradGradGradGrad
 Berny optimization.
 Using GEDIIS/GDIIS optimizer.
 FormGI is forming the generalized inverse of G from B-inverse, IUseBI=4.
 Internal  Forces:  Max     0.007026704 RMS     0.003432966
 Search for a local minimum.
 Step number   2 out of a maximum of   21
 All quantities printed in internal units (Hartrees-Bohrs-Radians)
 RMS Force = .44526D-02 SwitMx=.10000D-02 MixMth= 1
 Mixed Optimization -- RFO/linear search
 Update second derivatives using D2CorX and points    1    2
 DE= -1.07D-03 DEPred=-6.45D-04 R= 1.66D+00
 TightC=F SS=  1.41D+00  RLast= 2.73D-01 DXNew= 5.0454D-01 8.1910D-01
 Trust test= 1.66D+00 RLast= 2.73D-01 DXMaxT set to 5.05D-01
 The second derivative matrix:
                          X1        Y1        Z1        X2        Y2
           X1           0.50174
           Y1           0.00074   0.50031
           Z1           0.00495   0.00211   0.51412
           X2          -0.00174  -0.00074  -0.00496   0.50174
           Y2           0.00430   0.00183   0.01227  -0.00431   0.51066
           Z2          -0.00255  -0.00108  -0.00726   0.00255  -0.00631
           R1           0.00368   0.00157   0.01050  -0.00369   0.00912
           R2           0.00375   0.00159   0.01069  -0.00375   0.00928
           A1          -0.00445  -0.00189  -0.01268   0.00446  -0.01102
           A2          -0.00447  -0.00190  -0.01276   0.00448  -0.01109
           D1          -0.00062  -0.00027  -0.00178   0.00062  -0.00154
                          Z2        R1        R2        A1        A2
           Z2           0.50373
           R1          -0.00540   0.32522
           R2          -0.00549   0.00661   0.32549
           A1           0.00652  -0.00004   0.00002   0.10360
           A2           0.00656  -0.00008  -0.00001  -0.05651   0.10338
           D1           0.00091  -0.00067  -0.00068  -0.00311  -0.00311
                          D1
           D1           0.00220
 ITU=  1  0
 Use linear search instead of GDIIS.
     Eigenvalues ---    0.00177   0.04740   0.16000   0.31874   0.33197
     Eigenvalues --- 1000.000001000.000001000.000001000.000001000.00000
     Eigenvalues --- 1000.00000
 RFO step:  Lambda=-7.63531486D-04 EMin= 1.76688988D-03
 Quartic linear search produced a step of  2.00000.
 Iteration  1 RMS(Cart)=  0.16556205 RMS(Int)=  0.01564701
 Iteration  2 RMS(Cart)=  0.01723154 RMS(Int)=  0.00007819
 Iteration  3 RMS(Cart)=  0.00011956 RMS(Int)=  0.00000001
 Iteration  4 RMS(Cart)=  0.00000001 RMS(Int)=  0.00000000
 ITry= 1 IFail=0 DXMaxC= 3.29D-01 DCOld= 1.00D+10 DXMaxT= 5.05D-01 DXLimC= 3.00D+00 Rises=F
 Variable       Old X    -DE/DX   Delta X   Delta X   Delta X     New X
                                 (Linear)    (Quad)   (Total)
    X1       -3.03797   0.00332   0.00000   0.00000   0.00000  -3.03797
    Y1        0.00000  -0.00117   0.00000   0.00000   0.00000   0.00000
    Z1        0.00000   0.00167   0.00000   0.00000   0.00000   0.00000
    X2        3.03797  -0.00333   0.00000   0.00000   0.00000   3.03797
    Y2        0.00000   0.00064   0.00000   0.00000   0.00000   0.00000
    Z2        0.00000  -0.00195   0.00000   0.00000   0.00000   0.00000
    R1        2.11457  -0.00023   0.00754  -0.00874  -0.00120   2.11338
    R2        2.11457  -0.00022   0.00773  -0.00885  -0.00112   2.11345
    A1        1.61792  -0.00701  -0.10852  -0.04710  -0.15562   1.46230
    A2        1.61836  -0.00703  -0.10881  -0.04710  -0.15591   1.46246
    D1       -1.91437  -0.00067  -0.52389   0.32084  -0.20305  -2.11742
         Item               Value     Threshold  Converged?
 Maximum Force            0.007027     0.000450     NO 
 RMS     Force            0.004453     0.000300     NO 
 Maximum Displacement     0.329065     0.001800     NO 
 RMS     Displacement     0.169973     0.001200     NO 
 Predicted change in Energy=-1.336084D-03
 Lowest energy point so far.  Saving SCF results.
 GradGradGradGradGradGradGradGradGradGradGradGradGradGradGradGradGradGrad

 Leave Link  103 at Tue Dec  3 23:13:28 2024, MaxMem=   536870912 cpu:               0.0 elap:               0.0
 (Enter /home/szhao/Apps/g16/l202.exe)
                          Input orientation:                          
 ---------------------------------------------------------------------
 Center     Atomic      Atomic             Coordinates (Angstroms)
 Number     Number       Type             X           Y           Z
 ---------------------------------------------------------------------
      1          6           0       -1.607625    0.000000    0.000000
      2          6           0        1.607625    0.000000    0.000000
      3          1           0       -1.486527    0.017559    1.111636
      4          1           0        1.486695    0.940575   -0.592866
 ---------------------------------------------------------------------
                    Distance matrix (angstroms):
                    1          2          3          4
     1  C    0.000000
     2  C    3.215250   0.000000
     3  H    1.118350   3.287829   0.000000
     4  H    3.288007   1.118389   3.549272   0.000000
 Symmetry turned off by external request.
 Stoichiometry    C2H2
 Framework group  C1[X(C2H2)]
 Deg. of freedom     6
 Full point group                 C1      NOp   1
 Rotational constants (GHZ):         218.3166809           7.5245749           7.3912889
 Leave Link  202 at Tue Dec  3 23:13:28 2024, MaxMem=   536870912 cpu:               0.0 elap:               0.0
 (Enter /home/szhao/Apps/g16/l301.exe)
 Standard basis: 6-311+G(d,p) (5D, 7F)
 Ernie: Thresh=  0.10000D-02 Tol=  0.10000D-05 Strict=F.
    56 basis functions,    88 primitive gaussians,    58 cartesian basis functions
     7 alpha electrons        7 beta electrons
       nuclear repulsion energy        13.6834746163 Hartrees.
 IExCor= 4336 DFT=T Ex+Corr=M062X ExCW=0 ScaHFX=  0.540000
 ScaDFX=  1.000000  1.000000  1.000000  1.000000 ScalE2=  1.000000  1.000000
 IRadAn=      7 IRanWt=     -1 IRanGd=            0 ICorTp=0 IEmpDi=  4
 NAtoms=    4 NActive=    4 NUniq=    4 SFac= 1.00D+00 NAtFMM=   60 NAOKFM=F Big=F
 Integral buffers will be    131072 words long.
 Raffenetti 2 integral format.
 Two-electron integral symmetry is turned off.
 Leave Link  301 at Tue Dec  3 23:13:28 2024, MaxMem=   536870912 cpu:               0.3 elap:               0.0
 (Enter /home/szhao/Apps/g16/l302.exe)
 NPDir=0 NMtPBC=     1 NCelOv=     1 NCel=       1 NClECP=     1 NCelD=      1
         NCelK=      1 NCelE2=     1 NClLst=     1 CellRange=     0.0.
 One-electron integrals computed using PRISM.
 NBasis=    56 RedAO= T EigKep=  1.03D-02  NBF=    56
 NBsUse=    56 1.00D-06 EigRej= -1.00D+00 NBFU=    56
 Precomputing XC quadrature grid using
 IXCGrd= 4 IRadAn=           7 IRanWt=          -1 IRanGd=           0 AccXCQ= 0.00D+00.
 Generated NRdTot=       0 NPtTot=           0 NUsed=           0 NTot=          32
 NSgBfM=    58    58    58    58    58 MxSgAt=     4 MxSgA2=     4.
 Leave Link  302 at Tue Dec  3 23:13:28 2024, MaxMem=   536870912 cpu:               1.0 elap:               0.1
 (Enter /home/szhao/Apps/g16/l303.exe)
 DipDrv:  MaxL=1.
 Leave Link  303 at Tue Dec  3 23:13:28 2024, MaxMem=   536870912 cpu:               0.3 elap:               0.0
 (Enter /home/szhao/Apps/g16/l401.exe)
 Initial guess from the checkpoint file:  "opt.chk"
 B after Tr=    -0.000043   -0.023459   -0.012711
         Rot=    0.999837   -0.016815   -0.005900   -0.003071 Ang=  -2.07 deg.
 Guess basis will be translated and rotated to current coordinates.
 JPrj=2 DoOrth=T DoCkMO=T.
 Initial guess <Sx>= 0.0000 <Sy>= 0.0000 <Sz>= 0.0000 <S**2>= 0.0000 S= 0.0000
 Generating alternative initial guess.
 ExpMin= 4.38D-02 ExpMax= 4.56D+03 ExpMxC= 6.82D+02 IAcc=3 IRadAn=         5 AccDes= 0.00D+00
 Harris functional with IExCor= 1009 and IRadAn=       5 diagonalized for initial guess.
 HarFok:  IExCor= 1009 AccDes= 0.00D+00 IRadAn=         5 IDoV= 1 UseB2=F ITyADJ=14
 ICtDFT=  3500011 ScaDFX=  1.000000  1.000000  1.000000  1.000000
 FoFCou: FMM=F IPFlag=           0 FMFlag=      100000 FMFlg1=           0
         NFxFlg=           0 DoJE=T BraDBF=F KetDBF=T FulRan=T
         wScrn=  0.000000 ICntrl=       500 IOpCl=  0 I1Cent=   200000004 NGrid=           0
         NMat0=    1 NMatS0=      1 NMatT0=    0 NMatD0=    1 NMtDS0=    0 NMtDT0=    0
 Symmetry not used in FoFCou.
 Harris En= -76.8621334759687    
 Leave Link  401 at Tue Dec  3 23:13:28 2024, MaxMem=   536870912 cpu:               1.6 elap:               0.2
 (Enter /home/szhao/Apps/g16/l502.exe)
 Keep R1 and R2 ints in memory in canonical form, NReq=9624198.
 FoFCou: FMM=F IPFlag=           0 FMFlag=           0 FMFlg1=           0
         NFxFlg=           0 DoJE=F BraDBF=F KetDBF=F FulRan=T
         wScrn=  0.000000 ICntrl=       600 IOpCl=  0 I1Cent=           0 NGrid=           0
         NMat0=    1 NMatS0=   1596 NMatT0=    0 NMatD0=    1 NMtDS0=    0 NMtDT0=    0
 Symmetry not used in FoFCou.
 Two-electron integral symmetry not used.
 UHF open shell SCF:
 Using DIIS extrapolation, IDIIS=  1040.
 NGot=   536870912 LenX=   534314338 LenY=   534310533
 Requested convergence on RMS density matrix=1.00D-08 within 128 cycles.
 Requested convergence on MAX density matrix=1.00D-06.
 Requested convergence on             energy=1.00D-06.
 No special actions if energy rises.

 Cycle   1  Pass 1  IDiag  1:
 E= -76.8917994699537    
 DIIS: error= 5.84D-03 at cycle   1 NSaved=   1.
 NSaved= 1 IEnMin= 1 EnMin= -76.8917994699537     IErMin= 1 ErrMin= 5.84D-03
 ErrMax= 5.84D-03  0.00D+00 EMaxC= 1.00D-01 BMatC= 9.71D-03 BMatP= 9.71D-03
 IDIUse=3 WtCom= 9.42D-01 WtEn= 5.84D-02
 Coeff-Com:  0.100D+01
 Coeff-En:   0.100D+01
 Coeff:      0.100D+01
 Gap=     0.427 Goal=   None    Shift=    0.000
 Gap=     0.427 Goal=   None    Shift=    0.000
 GapD=    0.427 DampG=2.000 DampE=1.000 DampFc=2.0000 IDamp=-1.
 RMSDP=1.12D-03 MaxDP=9.33D-03              OVMax= 4.46D-02

 Cycle   2  Pass 1  IDiag  1:
 E= -76.8984716391513     Delta-E=       -0.006672169198 Rises=F Damp=F
 DIIS: error= 2.40D-03 at cycle   2 NSaved=   2.
 NSaved= 2 IEnMin= 2 EnMin= -76.8984716391513     IErMin= 2 ErrMin= 2.40D-03
 ErrMax= 2.40D-03  0.00D+00 EMaxC= 1.00D-01 BMatC= 7.61D-04 BMatP= 9.71D-03
 IDIUse=3 WtCom= 9.76D-01 WtEn= 2.40D-02
 Coeff-Com: -0.218D+00 0.122D+01
 Coeff-En:   0.000D+00 0.100D+01
 Coeff:     -0.213D+00 0.121D+01
 Gap=     0.145 Goal=   None    Shift=    0.000
 Gap=     0.145 Goal=   None    Shift=    0.000
 RMSDP=5.37D-04 MaxDP=3.79D-03 DE=-6.67D-03 OVMax= 2.79D-02

 Cycle   3  Pass 1  IDiag  1:
 E= -76.8997065463284     Delta-E=       -0.001234907177 Rises=F Damp=F
 DIIS: error= 7.73D-04 at cycle   3 NSaved=   3.
 NSaved= 3 IEnMin= 3 EnMin= -76.8997065463284     IErMin= 3 ErrMin= 7.73D-04
 ErrMax= 7.73D-04  0.00D+00 EMaxC= 1.00D-01 BMatC= 1.19D-04 BMatP= 7.61D-04
 IDIUse=3 WtCom= 9.92D-01 WtEn= 7.73D-03
 Coeff-Com:  0.157D-01-0.366D+00 0.135D+01
 Coeff-En:   0.000D+00 0.000D+00 0.100D+01
 Coeff:      0.156D-01-0.363D+00 0.135D+01
 Gap=     0.146 Goal=   None    Shift=    0.000
 Gap=     0.146 Goal=   None    Shift=    0.000
 RMSDP=2.57D-04 MaxDP=1.79D-03 DE=-1.23D-03 OVMax= 1.40D-02

 Cycle   4  Pass 1  IDiag  1:
 E= -76.8999402772893     Delta-E=       -0.000233730961 Rises=F Damp=F
 DIIS: error= 3.43D-04 at cycle   4 NSaved=   4.
 NSaved= 4 IEnMin= 4 EnMin= -76.8999402772893     IErMin= 4 ErrMin= 3.43D-04
 ErrMax= 3.43D-04  0.00D+00 EMaxC= 1.00D-01 BMatC= 1.45D-05 BMatP= 1.19D-04
 IDIUse=3 WtCom= 9.97D-01 WtEn= 3.43D-03
 Coeff-Com:  0.267D-01-0.192D+00 0.925D-01 0.107D+01
 Coeff-En:   0.000D+00 0.000D+00 0.000D+00 0.100D+01
 Coeff:      0.266D-01-0.191D+00 0.922D-01 0.107D+01
 Gap=     0.146 Goal=   None    Shift=    0.000
 Gap=     0.146 Goal=   None    Shift=    0.000
 RMSDP=1.12D-04 MaxDP=7.97D-04 DE=-2.34D-04 OVMax= 5.17D-03

 Cycle   5  Pass 1  IDiag  1:
 E= -76.8999750467646     Delta-E=       -0.000034769475 Rises=F Damp=F
 DIIS: error= 1.56D-04 at cycle   5 NSaved=   5.
 NSaved= 5 IEnMin= 5 EnMin= -76.8999750467646     IErMin= 5 ErrMin= 1.56D-04
 ErrMax= 1.56D-04  0.00D+00 EMaxC= 1.00D-01 BMatC= 2.91D-06 BMatP= 1.45D-05
 IDIUse=3 WtCom= 9.98D-01 WtEn= 1.56D-03
 Coeff-Com: -0.241D-02 0.498D-01-0.190D+00 0.128D+00 0.101D+01
 Coeff-En:   0.000D+00 0.000D+00 0.000D+00 0.000D+00 0.100D+01
 Coeff:     -0.241D-02 0.498D-01-0.190D+00 0.128D+00 0.101D+01
 Gap=     0.146 Goal=   None    Shift=    0.000
 Gap=     0.146 Goal=   None    Shift=    0.000
 RMSDP=5.00D-05 MaxDP=3.82D-04 DE=-3.48D-05 OVMax= 3.89D-03

 Cycle   6  Pass 1  IDiag  1:
 E= -76.8999827139451     Delta-E=       -0.000007667181 Rises=F Damp=F
 DIIS: error= 1.11D-04 at cycle   6 NSaved=   6.
 NSaved= 6 IEnMin= 6 EnMin= -76.8999827139451     IErMin= 6 ErrMin= 1.11D-04
 ErrMax= 1.11D-04  0.00D+00 EMaxC= 1.00D-01 BMatC= 2.53D-06 BMatP= 2.91D-06
 IDIUse=3 WtCom= 9.99D-01 WtEn= 1.11D-03
 Coeff-Com: -0.448D-02 0.569D-01-0.155D+00-0.982D-03 0.707D+00 0.397D+00
 Coeff-En:   0.000D+00 0.000D+00 0.000D+00 0.000D+00 0.000D+00 0.100D+01
 Coeff:     -0.447D-02 0.569D-01-0.155D+00-0.981D-03 0.706D+00 0.397D+00
 Gap=     0.146 Goal=   None    Shift=    0.000
 Gap=     0.146 Goal=   None    Shift=    0.000
 RMSDP=2.13D-05 MaxDP=2.14D-04 DE=-7.67D-06 OVMax= 1.77D-03

 Cycle   7  Pass 1  IDiag  1:
 E= -76.8999854681799     Delta-E=       -0.000002754235 Rises=F Damp=F
 DIIS: error= 1.05D-04 at cycle   7 NSaved=   7.
 NSaved= 7 IEnMin= 7 EnMin= -76.8999854681799     IErMin= 7 ErrMin= 1.05D-04
 ErrMax= 1.05D-04  0.00D+00 EMaxC= 1.00D-01 BMatC= 1.20D-06 BMatP= 2.53D-06
 IDIUse=3 WtCom= 9.99D-01 WtEn= 1.05D-03
 Coeff-Com: -0.350D-02 0.253D-01-0.174D-01-0.117D+00-0.151D+00 0.417D+00
 Coeff-Com:  0.847D+00
 Coeff-En:   0.000D+00 0.000D+00 0.000D+00 0.000D+00 0.000D+00 0.000D+00
 Coeff-En:   0.100D+01
 Coeff:     -0.350D-02 0.253D-01-0.173D-01-0.117D+00-0.151D+00 0.417D+00
 Coeff:      0.847D+00
 Gap=     0.146 Goal=   None    Shift=    0.000
 Gap=     0.146 Goal=   None    Shift=    0.000
 RMSDP=3.84D-05 MaxDP=3.38D-04 DE=-2.75D-06 OVMax= 3.45D-03

 Cycle   8  Pass 1  IDiag  1:
 E= -76.8999902481171     Delta-E=       -0.000004779937 Rises=F Damp=F
 DIIS: error= 9.21D-05 at cycle   8 NSaved=   8.
 NSaved= 8 IEnMin= 8 EnMin= -76.8999902481171     IErMin= 8 ErrMin= 9.21D-05
 ErrMax= 9.21D-05  0.00D+00 EMaxC= 1.00D-01 BMatC= 3.99D-07 BMatP= 1.20D-06
 IDIUse=1 WtCom= 1.00D+00 WtEn= 0.00D+00
 Coeff-Com:  0.412D-02-0.486D-01 0.118D+00 0.545D-01-0.491D+00-0.450D+00
 Coeff-Com: -0.228D+00 0.204D+01
 Coeff:      0.412D-02-0.486D-01 0.118D+00 0.545D-01-0.491D+00-0.450D+00
 Coeff:     -0.228D+00 0.204D+01
 Gap=     0.146 Goal=   None    Shift=    0.000
 Gap=     0.146 Goal=   None    Shift=    0.000
 RMSDP=6.97D-05 MaxDP=6.10D-04 DE=-4.78D-06 OVMax= 6.33D-03

 Cycle   9  Pass 1  IDiag  1:
 E= -76.8999957766720     Delta-E=       -0.000005528555 Rises=F Damp=F
 DIIS: error= 4.84D-05 at cycle   9 NSaved=   9.
 NSaved= 9 IEnMin= 9 EnMin= -76.8999957766720     IErMin= 9 ErrMin= 4.84D-05
 ErrMax= 4.84D-05  0.00D+00 EMaxC= 1.00D-01 BMatC= 1.09D-07 BMatP= 3.99D-07
 IDIUse=1 WtCom= 1.00D+00 WtEn= 0.00D+00
 Coeff-Com: -0.107D-02 0.150D-01-0.423D-01-0.287D-01 0.233D+00 0.173D+00
 Coeff-Com: -0.392D-01-0.137D+01 0.206D+01
 Coeff:     -0.107D-02 0.150D-01-0.423D-01-0.287D-01 0.233D+00 0.173D+00
 Coeff:     -0.392D-01-0.137D+01 0.206D+01
 Gap=     0.146 Goal=   None    Shift=    0.000
 Gap=     0.146 Goal=   None    Shift=    0.000
 RMSDP=5.58D-05 MaxDP=4.89D-04 DE=-5.53D-06 OVMax= 5.08D-03

 Cycle  10  Pass 1  IDiag  1:
 E= -76.8999975733240     Delta-E=       -0.000001796652 Rises=F Damp=F
 DIIS: error= 1.16D-05 at cycle  10 NSaved=  10.
 NSaved=10 IEnMin=10 EnMin= -76.8999975733240     IErMin=10 ErrMin= 1.16D-05
 ErrMax= 1.16D-05  0.00D+00 EMaxC= 1.00D-01 BMatC= 1.13D-08 BMatP= 1.09D-07
 IDIUse=1 WtCom= 1.00D+00 WtEn= 0.00D+00
 Coeff-Com: -0.896D-03 0.948D-02-0.183D-01-0.182D-01 0.921D-01 0.126D+00
 Coeff-Com:  0.101D+00-0.489D+00-0.537D-01 0.125D+01
 Coeff:     -0.896D-03 0.948D-02-0.183D-01-0.182D-01 0.921D-01 0.126D+00
 Coeff:      0.101D+00-0.489D+00-0.537D-01 0.125D+01
 Gap=     0.146 Goal=   None    Shift=    0.000
 Gap=     0.146 Goal=   None    Shift=    0.000
 RMSDP=1.32D-05 MaxDP=1.14D-04 DE=-1.80D-06 OVMax= 1.18D-03

 Cycle  11  Pass 1  IDiag  1:
 E= -76.8999976572665     Delta-E=       -0.000000083943 Rises=F Damp=F
 DIIS: error= 9.01D-07 at cycle  11 NSaved=  11.
 NSaved=11 IEnMin=11 EnMin= -76.8999976572665     IErMin=11 ErrMin= 9.01D-07
 ErrMax= 9.01D-07  0.00D+00 EMaxC= 1.00D-01 BMatC= 2.63D-10 BMatP= 1.13D-08
 IDIUse=1 WtCom= 1.00D+00 WtEn= 0.00D+00
 Coeff-Com:  0.374D-04-0.583D-03 0.144D-02-0.246D-03-0.106D-01-0.808D-02
 Coeff-Com:  0.318D-02 0.756D-01-0.104D+00-0.622D-01 0.111D+01
 Coeff:      0.374D-04-0.583D-03 0.144D-02-0.246D-03-0.106D-01-0.808D-02
 Coeff:      0.318D-02 0.756D-01-0.104D+00-0.622D-01 0.111D+01
 Gap=     0.146 Goal=   None    Shift=    0.000
 Gap=     0.146 Goal=   None    Shift=    0.000
 RMSDP=9.39D-07 MaxDP=7.36D-06 DE=-8.39D-08 OVMax= 6.98D-05

 Cycle  12  Pass 1  IDiag  1:
 E= -76.8999976578596     Delta-E=       -0.000000000593 Rises=F Damp=F
 DIIS: error= 7.12D-07 at cycle  12 NSaved=  12.
 NSaved=12 IEnMin=12 EnMin= -76.8999976578596     IErMin=12 ErrMin= 7.12D-07
 ErrMax= 7.12D-07  0.00D+00 EMaxC= 1.00D-01 BMatC= 4.89D-11 BMatP= 2.63D-10
 IDIUse=1 WtCom= 1.00D+00 WtEn= 0.00D+00
 Coeff-Com:  0.300D-04-0.371D-03 0.898D-03 0.532D-03-0.514D-02-0.522D-02
 Coeff-Com: -0.184D-02 0.300D-01-0.225D-01-0.456D-01 0.304D+00 0.745D+00
 Coeff:      0.300D-04-0.371D-03 0.898D-03 0.532D-03-0.514D-02-0.522D-02
 Coeff:     -0.184D-02 0.300D-01-0.225D-01-0.456D-01 0.304D+00 0.745D+00
 Gap=     0.146 Goal=   None    Shift=    0.000
 Gap=     0.146 Goal=   None    Shift=    0.000
 RMSDP=1.87D-07 MaxDP=3.07D-06 DE=-5.93D-10 OVMax= 1.48D-05

 Cycle  13  Pass 1  IDiag  1:
 E= -76.8999976580900     Delta-E=       -0.000000000230 Rises=F Damp=F
 DIIS: error= 1.13D-06 at cycle  13 NSaved=  13.
 NSaved=13 IEnMin=13 EnMin= -76.8999976580900     IErMin=12 ErrMin= 7.12D-07
 ErrMax= 1.13D-06  0.00D+00 EMaxC= 1.00D-01 BMatC= 9.48D-11 BMatP= 4.89D-11
 IDIUse=1 WtCom= 1.00D+00 WtEn= 0.00D+00
 Coeff-Com:  0.668D-04-0.774D-03 0.184D-02 0.147D-02-0.937D-02-0.109D-01
 Coeff-Com: -0.644D-02 0.508D-01-0.188D-01-0.980D-01 0.357D+00 0.193D+01
 Coeff-Com: -0.120D+01
 Coeff:      0.668D-04-0.774D-03 0.184D-02 0.147D-02-0.937D-02-0.109D-01
 Coeff:     -0.644D-02 0.508D-01-0.188D-01-0.980D-01 0.357D+00 0.193D+01
 Coeff:     -0.120D+01
 Gap=     0.146 Goal=   None    Shift=    0.000
 Gap=     0.146 Goal=   None    Shift=    0.000
 RMSDP=3.77D-07 MaxDP=6.46D-06 DE=-2.30D-10 OVMax= 3.11D-05

 Cycle  14  Pass 1  IDiag  1:
 E= -76.8999976577381     Delta-E=        0.000000000352 Rises=F Damp=F
 DIIS: error= 2.50D-07 at cycle  14 NSaved=  14.
 NSaved=14 IEnMin=13 EnMin= -76.8999976580900     IErMin=14 ErrMin= 2.50D-07
 ErrMax= 2.50D-07  0.00D+00 EMaxC= 1.00D-01 BMatC= 5.68D-12 BMatP= 4.89D-11
 IDIUse=1 WtCom= 1.00D+00 WtEn= 0.00D+00
 Coeff-Com: -0.669D-05 0.950D-04-0.271D-03 0.334D-05 0.100D-02 0.139D-02
 Coeff-Com:  0.565D-03-0.897D-02 0.880D-02 0.953D-02-0.105D+00-0.156D+00
 Coeff-Com: -0.182D+00 0.143D+01
 Coeff:     -0.669D-05 0.950D-04-0.271D-03 0.334D-05 0.100D-02 0.139D-02
 Coeff:      0.565D-03-0.897D-02 0.880D-02 0.953D-02-0.105D+00-0.156D+00
 Coeff:     -0.182D+00 0.143D+01
 Gap=     0.146 Goal=   None    Shift=    0.000
 Gap=     0.146 Goal=   None    Shift=    0.000
 RMSDP=1.15D-07 MaxDP=1.94D-06 DE= 3.52D-10 OVMax= 9.26D-06

 Cycle  15  Pass 1  IDiag  1:
 E= -76.8999976577215     Delta-E=        0.000000000017 Rises=F Damp=F
 DIIS: error= 9.93D-09 at cycle  15 NSaved=  15.
 NSaved=15 IEnMin=13 EnMin= -76.8999976580900     IErMin=15 ErrMin= 9.93D-09
 ErrMax= 9.93D-09  0.00D+00 EMaxC= 1.00D-01 BMatC= 4.14D-14 BMatP= 5.68D-12
 IDIUse=1 WtCom= 1.00D+00 WtEn= 0.00D+00
 Coeff-Com:  0.608D-06-0.733D-05 0.835D-05 0.111D-04-0.163D-04-0.127D-03
 Coeff-Com: -0.956D-04 0.800D-03-0.910D-03-0.315D-03 0.917D-02-0.523D-01
 Coeff-Com:  0.586D-01-0.150D+00 0.114D+01
 Coeff:      0.608D-06-0.733D-05 0.835D-05 0.111D-04-0.163D-04-0.127D-03
 Coeff:     -0.956D-04 0.800D-03-0.910D-03-0.315D-03 0.917D-02-0.523D-01
 Coeff:      0.586D-01-0.150D+00 0.114D+01
 Gap=     0.146 Goal=   None    Shift=    0.000
 Gap=     0.146 Goal=   None    Shift=    0.000
 RMSDP=8.09D-09 MaxDP=6.31D-08 DE= 1.66D-11 OVMax= 5.27D-07

 SCF Done:  E(UM062X) =  -76.8999976577     A.U. after   15 cycles
            NFock= 15  Conv=0.81D-08     -V/T= 2.0058
 <Sx>= 0.0000 <Sy>= 0.0000 <Sz>= 0.0000 <S**2>= 0.0000 S= 0.0000
 <L.S>=  0.00000000000    
 KE= 7.645972388378D+01 PE=-2.055805460512D+02 EE= 3.853734989339D+01
 Annihilation of the first spin contaminant:
 S**2 before annihilation     0.0000,   after     0.0000
 Leave Link  502 at Tue Dec  3 23:14:11 2024, MaxMem=   536870912 cpu:             302.7 elap:              42.7
 (Enter /home/szhao/Apps/g16/l701.exe)
 ... and contract with generalized density number  0.
 Compute integral first derivatives.
 Leave Link  701 at Tue Dec  3 23:14:11 2024, MaxMem=   536870912 cpu:               0.7 elap:               0.1
 (Enter /home/szhao/Apps/g16/l702.exe)
 L702 exits ... SP integral derivatives will be done elsewhere.
 Leave Link  702 at Tue Dec  3 23:14:11 2024, MaxMem=   536870912 cpu:               0.3 elap:               0.0
 (Enter /home/szhao/Apps/g16/l703.exe)
 Integral derivatives from FoFJK, PRISM(SPDF).
 Compute integral first derivatives, UseDBF=F ICtDFT=           0.
 Calling FoFJK, ICntrl=      2127 FMM=F ISym2X=0 I1Cent= 0 IOpClX= 1 NMat=1 NMatS=1 NMatT=0.
 FoFJK:  IHMeth= 1 ICntrl=    2127 DoSepK=F KAlg= 0 I1Cent=           0 FoldK=F
 IRaf=         0 NMat=       1 IRICut=       1 DoRegI=T DoRafI=F ISym2E= 0 IDoP0=0 IntGTp=1.
 FoFCou: FMM=F IPFlag=           0 FMFlag=      100000 FMFlg1=         800
         NFxFlg=           0 DoJE=F BraDBF=F KetDBF=F FulRan=T
         wScrn=  0.000000 ICntrl=      2127 IOpCl=  1 I1Cent=           0 NGrid=           0
         NMat0=    1 NMatS0=      1 NMatT0=    0 NMatD0=    1 NMtDS0=    0 NMtDT0=    0
 Symmetry not used in FoFCou.
 Leave Link  703 at Tue Dec  3 23:14:12 2024, MaxMem=   536870912 cpu:               5.3 elap:               0.7
 (Enter /home/szhao/Apps/g16/l716.exe)
 Dipole        = 5.71340622D-05 5.47355525D-01 2.96412520D-01
 -------------------------------------------------------------------
 Center     Atomic                   Forces (Hartrees/Bohr)
 Number     Number              X              Y              Z
 -------------------------------------------------------------------
      1        6          -0.000000000   -0.000000000   -0.000000000
      2        6          -0.000000000   -0.000000000   -0.000000000
      3        1          -0.000123685   -0.000429158   -0.000217819
      4        1           0.000120370   -0.000436640   -0.000227995
 -------------------------------------------------------------------
 Cartesian Forces:  Max     0.000436640 RMS     0.000204948
 Leave Link  716 at Tue Dec  3 23:14:12 2024, MaxMem=   536870912 cpu:               0.3 elap:               0.0
 (Enter /home/szhao/Apps/g16/l103.exe)

 GradGradGradGradGradGradGradGradGradGradGradGradGradGradGradGradGradGrad
 Berny optimization.
 Using GEDIIS/GDIIS optimizer.
 FormGI is forming the generalized inverse of G from B-inverse, IUseBI=4.
 Internal  Forces:  Max     0.000894368 RMS     0.000371638
 Search for a local minimum.
 Step number   3 out of a maximum of   21
 All quantities printed in internal units (Hartrees-Bohrs-Radians)
 RMS Force = .44836D-03 SwitMx=.10000D-02 MixMth= 2
 Mixed Optimization -- En-DIIS/RFO-DIIS
 Update second derivatives using D2CorX and points    1    2    3
 DE= -1.25D-03 DEPred=-1.34D-03 R= 9.38D-01
 TightC=F SS=  1.41D+00  RLast= 3.00D-01 DXNew= 8.4853D-01 8.9877D-01
 Trust test= 9.38D-01 RLast= 3.00D-01 DXMaxT set to 8.49D-01
 The second derivative matrix:
                          X1        Y1        Z1        X2        Y2
           X1           0.50621
           Y1          -0.00103   0.50032
           Z1           0.00483  -0.00029   0.50555
           X2          -0.00622   0.00103  -0.00483   0.50622
           Y2           0.00323  -0.00005   0.00421  -0.00323   0.50328
           Z2          -0.00375   0.00041  -0.00366   0.00376  -0.00266
           R1           0.00460   0.00104   0.00990  -0.00461   0.00836
           R2           0.00472   0.00104   0.01009  -0.00473   0.00851
           A1          -0.01051   0.00273  -0.00472   0.01052  -0.00221
           A2          -0.01053   0.00272  -0.00477   0.01054  -0.00225
           D1          -0.00089  -0.00036  -0.00247   0.00089  -0.00214
                          Z2        R1        R2        A1        A2
           Z2           0.50258
           R1          -0.00541   0.32535
           R2          -0.00552   0.00676   0.32564
           A1           0.00492  -0.00079  -0.00079   0.10471
           A2           0.00495  -0.00082  -0.00082  -0.05544   0.10442
           D1           0.00128  -0.00077  -0.00078  -0.00211  -0.00211
                          D1
           D1           0.00215
 ITU=  1  1  0
 Use linear search instead of GDIIS.
     Eigenvalues ---    0.00196   0.04931   0.16000   0.31874   0.33227
     Eigenvalues --- 1000.000001000.000001000.000001000.000001000.00000
     Eigenvalues --- 1000.00000
 RFO step:  Lambda=-3.17963985D-04 EMin= 1.96257099D-03
 Quartic linear search produced a step of  0.04945.
 Iteration  1 RMS(Cart)=  0.09674834 RMS(Int)=  0.05358968
 Iteration  2 RMS(Cart)=  0.08513667 RMS(Int)=  0.00480095
[...]
 ErrMax= 9.05D-09  0.00D+00 EMaxC= 1.00D-01 BMatC= 4.10D-15 BMatP= 2.85D-14
 IDIUse=1 WtCom= 1.00D+00 WtEn= 0.00D+00
 Coeff-Com:  0.598D-04-0.535D-03 0.134D-02 0.124D-02-0.114D-01-0.149D-01
 Coeff-Com:  0.105D-01 0.612D-01-0.151D-03-0.858D-01 0.128D+00 0.910D+00
 Coeff:      0.598D-04-0.535D-03 0.134D-02 0.124D-02-0.114D-01-0.149D-01
 Coeff:      0.105D-01 0.612D-01-0.151D-03-0.858D-01 0.128D+00 0.910D+00
 Gap=     0.147 Goal=   None    Shift=    0.000
 Gap=     0.147 Goal=   None    Shift=    0.000
 RMSDP=1.73D-09 MaxDP=1.40D-08 DE=-2.27D-13 OVMax= 1.38D-07

 SCF Done:  E(UM062X) =  -76.9003465000     A.U. after   12 cycles
            NFock= 12  Conv=0.17D-08     -V/T= 2.0057
 <Sx>= 0.0000 <Sy>= 0.0000 <Sz>= 0.0000 <S**2>= 0.0000 S= 0.0000
 <L.S>=  0.00000000000    
 KE= 7.646333106615D+01 PE=-2.056079204673D+02 EE= 3.855334616373D+01
 Annihilation of the first spin contaminant:
 S**2 before annihilation     0.0000,   after    -0.0000
 Leave Link  502 at Tue Dec  3 23:16:51 2024, MaxMem=   536870912 cpu:             195.7 elap:              27.5
 (Enter /home/szhao/Apps/g16/l701.exe)
 ... and contract with generalized density number  0.
 Compute integral first derivatives.
 Leave Link  701 at Tue Dec  3 23:16:51 2024, MaxMem=   536870912 cpu:               0.8 elap:               0.1
 (Enter /home/szhao/Apps/g16/l702.exe)
 L702 exits ... SP integral derivatives will be done elsewhere.
 Leave Link  702 at Tue Dec  3 23:16:51 2024, MaxMem=   536870912 cpu:               0.3 elap:               0.0
 (Enter /home/szhao/Apps/g16/l703.exe)
 Integral derivatives from FoFJK, PRISM(SPDF).
 Compute integral first derivatives, UseDBF=F ICtDFT=           0.
 Calling FoFJK, ICntrl=      2127 FMM=F ISym2X=0 I1Cent= 0 IOpClX= 1 NMat=1 NMatS=1 NMatT=0.
 FoFJK:  IHMeth= 1 ICntrl=    2127 DoSepK=F KAlg= 0 I1Cent=           0 FoldK=F
 IRaf=         0 NMat=       1 IRICut=       1 DoRegI=T DoRafI=F ISym2E= 0 IDoP0=0 IntGTp=1.
 FoFCou: FMM=F IPFlag=           0 FMFlag=      100000 FMFlg1=         800
         NFxFlg=           0 DoJE=F BraDBF=F KetDBF=F FulRan=T
         wScrn=  0.000000 ICntrl=      2127 IOpCl=  1 I1Cent=           0 NGrid=           0
         NMat0=    1 NMatS0=      1 NMatT0=    0 NMatD0=    1 NMtDS0=    0 NMtDT0=    0
 Symmetry not used in FoFCou.
 Leave Link  703 at Tue Dec  3 23:16:51 2024, MaxMem=   536870912 cpu:               4.8 elap:               0.6
 (Enter /home/szhao/Apps/g16/l716.exe)
 Dipole        = 6.43447283D-06 1.71149807D-04 1.24493725D-04
 -------------------------------------------------------------------
 Center     Atomic                   Forces (Hartrees/Bohr)
 Number     Number              X              Y              Z
 -------------------------------------------------------------------
      1        6          -0.000000000   -0.000000000   -0.000000000
      2        6          -0.000000000   -0.000000000   -0.000000000
      3        1          -0.000000371    0.000001396    0.000001837
      4        1           0.000000054   -0.000001489   -0.000001932
 -------------------------------------------------------------------
 Cartesian Forces:  Max     0.000001932 RMS     0.000000975
 Leave Link  716 at Tue Dec  3 23:16:51 2024, MaxMem=   536870912 cpu:               0.3 elap:               0.0
 (Enter /home/szhao/Apps/g16/l103.exe)

 GradGradGradGradGradGradGradGradGradGradGradGradGradGradGradGradGradGrad
 Berny optimization.
 Using GEDIIS/GDIIS optimizer.
 FormGI is forming the generalized inverse of G from B-inverse, IUseBI=4.
 Internal  Forces:  Max     0.000000946 RMS     0.000000471
 Search for a local minimum.
 Step number   9 out of a maximum of   21
 All quantities printed in internal units (Hartrees-Bohrs-Radians)
 RMS Force = .60650D-06 SwitMx=.10000D-02 MixMth= 2
 Mixed Optimization -- En-DIIS/RFO-DIIS
 Swapping is turned off.
 Update second derivatives using D2CorX and points    5    6    7    8    9
 DE= -4.13D-09 DEPred=-4.08D-09 R= 1.01D+00
 Trust test= 1.01D+00 RLast= 4.09D-03 DXMaxT set to 1.12D+00
 The second derivative matrix:
                          X1        Y1        Z1        X2        Y2
           X1           0.50528
           Y1          -0.00160   0.50180
           Z1           0.00290  -0.00178   0.50303
           X2          -0.00523   0.00174  -0.00303   0.50521
           Y2           0.00151  -0.00111   0.00206  -0.00161   0.50151
           Z2          -0.00287   0.00257  -0.00328   0.00307  -0.00218
           R1           0.00580   0.00039   0.01280  -0.00602   0.01122
           R2           0.00600   0.00031   0.01324  -0.00625   0.01166
           A1          -0.01117   0.00334  -0.00532   0.01101  -0.00238
           A2          -0.01128   0.00337  -0.00542   0.01117  -0.00251
           D1          -0.00004   0.00075  -0.00060   0.00013  -0.00045
                          Z2        R1        R2        A1        A2
           Z2           0.50411
           R1          -0.00765   0.32458
           R2          -0.00803   0.00593   0.32477
           A1           0.00549  -0.00207  -0.00213   0.10444
           A2           0.00559  -0.00167  -0.00166  -0.05533   0.10477
           D1           0.00102   0.00008   0.00009   0.00008  -0.00013
                          D1
           D1           0.00042
 ITU=  0  0  1  1  1  1  1  1  0
     Eigenvalues ---    0.00042   0.04922   0.15993   0.31874   0.33066
     Eigenvalues --- 1000.000001000.000001000.000001000.000001000.00000
     Eigenvalues --- 1000.00000
 En-DIIS/RFO-DIIS/Sim-DIIS IScMMF=       -3 using points:     9    8    7    6    5    4    3
 RFO step:  Lambda=-1.14858739D-11.
 NNeg= 0 NGDIIS= 7 SimSw=  2.50D-01 Rises=F DC= -4.13D-09 SmlDif=  1.00D-05
 NRisDI= 0 DoIntr=F SqrtH=F CThrHd= 10.0 CDAdj=  3.0
 RMS Error=  0.9930204665D-04 NUsed= 7 OKEnD=F EnDIS=F
 InvSVX:  RCond= 1.78D-18 Info=           9 Equed=N FErr=  0.00D+00 BErr=  0.00D+00
 DIIS inversion failure, remove point   7.
 InvSVX:  RCond= 3.44D-13 Info=           0 Equed=N FErr=  1.17D-07 BErr=  1.05D-16
 DIIS inversion failure, remove point   6.
 InvSVX:  RCond= 1.31D-11 Info=           0 Equed=N FErr=  5.74D-09 BErr=  8.70D-17
 DIIS inversion failure, remove point   5.
 InvSVX:  RCond= 2.88D-11 Info=           0 Equed=N FErr=  1.22D-10 BErr=  5.16D-17
 DIIS inversion failure, remove point   4.
 InvSVX:  RCond= 1.19D-09 Info=           0 Equed=N FErr=  1.30D-12 BErr=  4.75D-17
 DIIS inversion failure, remove point   3.
 InvSVX:  RCond= 4.19D-06 Info=           0 Equed=N FErr=  1.16D-15 BErr=  5.14D-17
 RFO-DIIS uses    2 points instead of    7
 DidBck=F Rises=F RFO-DIIS coefs:    1.08036   -0.08036    0.00000    0.00000    0.00000
                  RFO-DIIS coefs:    0.00000    0.00000
 Iteration  1 RMS(Cart)=  0.00014741 RMS(Int)=  0.00000001
 Iteration  2 RMS(Cart)=  0.00000001 RMS(Int)=  0.00000000
 ITry= 1 IFail=0 DXMaxC= 2.83D-04 DCOld= 1.00D+10 DXMaxT= 1.12D+00 DXLimC= 3.00D+00 Rises=F
 Variable       Old X    -DE/DX   Delta X   Delta X   Delta X     New X
                                 (Linear)    (Quad)   (Total)
    X1       -3.03797  -0.00000   0.00000   0.00000   0.00000  -3.03797
    Y1        0.00000  -0.00000   0.00000   0.00000   0.00000   0.00000
    Z1        0.00000   0.00000   0.00000   0.00000   0.00000   0.00000
    X2        3.03797   0.00000  -0.00000   0.00000   0.00000   3.03797
    Y2        0.00000   0.00000   0.00000   0.00000   0.00000   0.00000
    Z2        0.00000  -0.00000   0.00000   0.00000   0.00000   0.00000
    R1        2.11111   0.00000   0.00000   0.00000   0.00000   2.11111
    R2        2.11111   0.00000   0.00000   0.00000   0.00000   2.11111
    A1        1.45177   0.00000   0.00000   0.00001   0.00001   1.45179
    A2        1.45179   0.00000   0.00000   0.00001   0.00001   1.45180
    D1       -3.14126  -0.00000  -0.00033   0.00000  -0.00033   3.14159
         Item               Value     Threshold  Converged?
 Maximum Force            0.000001     0.000450     YES
 RMS     Force            0.000001     0.000300     YES
 Maximum Displacement     0.000283     0.001800     YES
 RMS     Displacement     0.000147     0.001200     YES
 Predicted change in Energy=-3.253853D-11
 Optimization completed.
    -- Stationary point found.
                           ----------------------------
                           !   Optimized Parameters   !
                           ! (Angstroms and Degrees)  !
 --------------------------                            --------------------------
 ! Name  Definition              Value          Derivative Info.                !
 --------------------------------------------------------------------------------
 ! X1    R(1,-1)                -1.6076         -DE/DX =    0.0                 !
 ! Y1    R(1,-2)                 0.0            -DE/DX =    0.0                 !
 ! Z1    R(1,-3)                 0.0            -DE/DX =    0.0                 !
 ! X2    R(2,-1)                 1.6076         -DE/DX =    0.0                 !
 ! Y2    R(2,-2)                 0.0            -DE/DX =    0.0                 !
 ! Z2    R(2,-3)                 0.0            -DE/DX =    0.0                 !
 ! R1    R(1,3)                  1.1172         -DE/DX =    0.0                 !
 ! R2    R(2,4)                  1.1172         -DE/DX =    0.0                 !
 ! A1    A(2,1,3)               83.1805         -DE/DX =    0.0                 !
 ! A2    A(1,2,4)               83.1817         -DE/DX =    0.0                 !
 ! D1    D(3,1,2,4)            180.0188         -DE/DX =    0.0                 !
 --------------------------------------------------------------------------------
 Lowest energy point so far.  Saving SCF results.
 Largest change from initial coordinates is atom    3       0.669 Angstoms.
 GradGradGradGradGradGradGradGradGradGradGradGradGradGradGradGradGradGrad

 Leave Link  103 at Tue Dec  3 23:16:51 2024, MaxMem=   536870912 cpu:               0.0 elap:               0.0
 (Enter /home/szhao/Apps/g16/l202.exe)
                          Input orientation:                          
 ---------------------------------------------------------------------
 Center     Atomic      Atomic             Coordinates (Angstroms)
 Number     Number       Type             X           Y           Z
 ---------------------------------------------------------------------
      1          6           0       -1.607625    0.000000    0.000000
      2          6           0        1.607625    0.000000    0.000000
      3          1           0       -1.474973   -0.650937    0.898171
      4          1           0        1.474995    0.651234   -0.897960
 ---------------------------------------------------------------------
                    Distance matrix (angstroms):
                    1          2          3          4
     1  C    0.000000
     2  C    3.215250   0.000000
     3  H    1.117152   3.276102   0.000000
     4  H    3.276123   1.117152   3.691077   0.000000
 Symmetry turned off by external request.
 Stoichiometry    C2H2
 Framework group  C1[X(C2H2)]
 Deg. of freedom     6
 Full point group                 C1      NOp   1
 Rotational constants (GHZ):         218.7352738           7.5903402           7.3357810
 Leave Link  202 at Tue Dec  3 23:16:51 2024, MaxMem=   536870912 cpu:               0.0 elap:               0.0
 (Enter /home/szhao/Apps/g16/l601.exe)
 Copying SCF densities to generalized density rwf, IOpCl= 1 IROHF=0.

 **********************************************************************

            Population analysis using the SCF density.

 **********************************************************************

 Alpha  occ. eigenvalues --  -10.67435 -10.67433  -0.73011  -0.71834  -0.39045
 Alpha  occ. eigenvalues --   -0.38534  -0.25207
 Alpha virt. eigenvalues --   -0.10537  -0.10528  -0.08904   0.03393   0.04843
 Alpha virt. eigenvalues --    0.07277   0.07437   0.09471   0.09940   0.10856
 Alpha virt. eigenvalues --    0.14351   0.17854   0.20033   0.43967   0.45219
 Alpha virt. eigenvalues --    0.55045   0.55361   0.59456   0.61461   0.61517
 Alpha virt. eigenvalues --    0.65276   0.66710   0.79664   1.12913   1.12966
 Alpha virt. eigenvalues --    1.14113   1.14991   1.33338   1.33852   1.35226
 Alpha virt. eigenvalues --    1.38105   1.57788   1.61201   1.84991   1.85795
 Alpha virt. eigenvalues --    1.86133   1.89252   2.38449   2.41889   2.49120
 Alpha virt. eigenvalues --    2.53687   2.69200   2.71827   2.73552   2.75959
 Alpha virt. eigenvalues --    3.17923   3.19153  23.50526  23.51695
  Beta  occ. eigenvalues --  -10.67435 -10.67433  -0.73011  -0.71834  -0.39045
  Beta  occ. eigenvalues --   -0.38534  -0.25207
  Beta virt. eigenvalues --   -0.10537  -0.10528  -0.08904   0.03393   0.04843
  Beta virt. eigenvalues --    0.07277   0.07437   0.09471   0.09940   0.10856
  Beta virt. eigenvalues --    0.14351   0.17854   0.20033   0.43967   0.45219
  Beta virt. eigenvalues --    0.55045   0.55361   0.59456   0.61461   0.61517
  Beta virt. eigenvalues --    0.65276   0.66710   0.79664   1.12913   1.12966
  Beta virt. eigenvalues --    1.14113   1.14991   1.33338   1.33852   1.35226
  Beta virt. eigenvalues --    1.38105   1.57788   1.61201   1.84991   1.85795
  Beta virt. eigenvalues --    1.86133   1.89252   2.38449   2.41889   2.49120
  Beta virt. eigenvalues --    2.53687   2.69200   2.71827   2.73552   2.75959
  Beta virt. eigenvalues --    3.17923   3.19153  23.50526  23.51695
          Condensed to atoms (all electrons):
               1          2          3          4
     1  C    5.818688   0.119912   0.210277  -0.001935
     2  C    0.119912   5.818691  -0.001935   0.210277
     3  H    0.210277  -0.001935   0.644558   0.000156
     4  H   -0.001935   0.210277   0.000156   0.644559
          Atomic-Atomic Spin Densities.
               1          2          3          4
     1  C    0.000000  -0.000000  -0.000000  -0.000000
     2  C   -0.000000  -0.000000   0.000000  -0.000000
     3  H   -0.000000   0.000000   0.000000   0.000000
     4  H   -0.000000  -0.000000   0.000000   0.000000
 Mulliken charges and spin densities:
               1          2
     1  C   -0.146942   0.000000
     2  C   -0.146945  -0.000000
     3  H    0.146944   0.000000
     4  H    0.146943   0.000000
 Sum of Mulliken charges =   0.00000   0.00000
 Mulliken charges and spin densities with hydrogens summed into heavy atoms:
               1          2
     1  C    0.000002   0.000000
     2  C   -0.000002  -0.000000
 Electronic spatial extent (au):  <R**2>=            167.3487
 Charge=             -0.0000 electrons
 Dipole moment (field-independent basis, Debye):
    X=              0.0000    Y=              0.0004    Z=              0.0003  Tot=              0.0005
 Quadrupole moment (field-independent basis, Debye-Ang):
   XX=            -16.9386   YY=            -12.8177   ZZ=            -13.6498
   XY=              3.1702   XZ=             -4.3726   YZ=              1.2716
 Traceless Quadrupole moment (field-independent basis, Debye-Ang):
   XX=             -2.4699   YY=              1.6510   ZZ=              0.8189
   XY=              3.1702   XZ=             -4.3726   YZ=              1.2716
 Octapole moment (field-independent basis, Debye-Ang**2):
  XXX=              0.0001  YYY=             -0.0000  ZZZ=              0.0001  XYY=             -0.0007
  XXY=              0.0014  XXZ=              0.0009  XZZ=              0.0007  YZZ=             -0.0001
  YYZ=             -0.0002  XYZ=              0.0002
 Hexadecapole moment (field-independent basis, Debye-Ang**3):
 XXXX=           -282.3796 YYYY=            -19.4304 ZZZZ=            -24.6610 XXXY=              6.4608
 XXXZ=             -8.9100 YYYX=             -0.6448 YYYZ=              4.2218 ZZZX=              0.4411
 ZZZY=              3.7718 XXYY=            -39.5853 XXZZ=            -43.0033 YYZZ=             -6.9392
 XXYZ=              5.2234 YYXZ=             -0.0347 ZZXY=              0.3504
 N-N= 1.369089673736D+01 E-N=-2.056079204730D+02  KE= 7.646333106615D+01
                          Isotropic Fermi Contact Couplings
        Atom                 a.u.       MegaHertz       Gauss      10(-4) cm-1
     1  C(13)              0.00000       0.00000       0.00000       0.00000
     2  C(13)              0.00000       0.00000       0.00000       0.00000
     3  H(1)               0.00000       0.00000       0.00000       0.00000
     4  H(1)               0.00000       0.00000       0.00000       0.00000
 --------------------------------------------------------
       Center         ----  Spin Dipole Couplings  ----
                      3XX-RR        3YY-RR        3ZZ-RR
 --------------------------------------------------------
     1   Atom        0.000000      0.000002     -0.000002
     2   Atom       -0.000000      0.000002     -0.000002
     3   Atom        0.000000      0.000000     -0.000000
     4   Atom       -0.000000      0.000000     -0.000000
 --------------------------------------------------------
                        XY            XZ            YZ
 --------------------------------------------------------
     1   Atom       -0.000007     -0.000005     -0.000001
     2   Atom       -0.000006     -0.000004     -0.000001
     3   Atom       -0.000000     -0.000000     -0.000000
     4   Atom       -0.000000     -0.000000     -0.000000
 --------------------------------------------------------


 ---------------------------------------------------------------------------------
              Anisotropic Spin Dipole Couplings in Principal Axis System
 ---------------------------------------------------------------------------------

       Atom             a.u.   MegaHertz   Gauss  10(-4) cm-1        Axes

              Baa    -0.0000    -0.001    -0.000    -0.000  0.6774  0.4536  0.5791
     1 C(13)  Bbb    -0.0000    -0.000    -0.000    -0.000 -0.2867 -0.5622  0.7757
              Bcc     0.0000     0.001     0.000     0.000 -0.6774  0.6915  0.2508
 
              Baa    -0.0000    -0.001    -0.000    -0.000  0.6725  0.4441  0.5920
     2 C(13)  Bbb    -0.0000    -0.000    -0.000    -0.000 -0.3090 -0.5583  0.7699
              Bcc     0.0000     0.001     0.000     0.000 -0.6725  0.7007  0.2383
 
              Baa    -0.0000    -0.000    -0.000    -0.000  0.7050  0.5403  0.4595
     3 H(1)   Bbb    -0.0000    -0.000    -0.000    -0.000 -0.0778 -0.5850  0.8073
              Bcc     0.0000     0.000     0.000     0.000  0.7050 -0.6049 -0.3704
 
              Baa    -0.0000    -0.000    -0.000    -0.000  0.7047  0.5379  0.4627
     4 H(1)   Bbb    -0.0000    -0.000    -0.000    -0.000 -0.0832 -0.5851  0.8067
              Bcc     0.0000     0.000     0.000     0.000  0.7046 -0.6070 -0.3676
 

 ---------------------------------------------------------------------------------

 No NMR shielding tensors so no spin-rotation constants.
 Leave Link  601 at Tue Dec  3 23:16:52 2024, MaxMem=   536870912 cpu:               1.3 elap:               0.2
 (Enter /home/szhao/Apps/g16/l9999.exe)
 1\1\GINC-NODE01\FOpt\UM062X\6-311+G(d,p)\C2H2\SZHAO\03-Dec-2024\0\\#p 
 opt UM062X/6-311+G** nosymm int=superfine\\Title Card Required\\0,1\C,
 -1.607625,0.,0.\C,1.607625,0.,0.\H,-1.4749731529,-0.650937437,0.898171
 4671\H,1.4749951777,0.6512336738,-0.8979598522\\Version=ES64L-G16RevA.
 03\HF=-76.9003465\S2=0.\S2-1=0.\S2A=0.\RMSD=1.726e-09\RMSF=9.753e-07\D
 ipole=0.0000064,0.0001711,0.0001245\Quadrupole=-1.8362936,1.2274556,0.
 608838,2.3569964,-3.2509431,0.9453815\PG=C01 [X(C2H2)]\\@


 IF YOU PERCEIVE THAT THERE ARE FOUR POSSIBLE WAYS IN
 WHICH A PROCEDURE CAN GO WRONG AND CIRCUMVENT THESE, 
 THEN A FIFTH WAY WILL DEVELOP.

                              -- MURPHY'S TWELFTH LAW
 Job cpu time:       0 days  0 hours 34 minutes 13.5 seconds.
 Elapsed time:       0 days  0 hours  4 minutes 50.5 seconds.
 File lengths (MBytes):  RWF=      6 Int=      0 D2E=      0 Chk=      1 Scr=      1
 Normal termination of Gaussian 16 at Tue Dec  3 23:16:52 2024.
