Title Card Required                                                     
FOpt      UM062X                                                      6-311+G(d,p)        
Number of atoms                            I                6
Info1-9                                    I   N=           9
          15          15           0           0           0         110
           2          18        -502
Full Title                                 C   N=           2
Title Card Required     
Route                                      C   N=           6
#p opt UM062X/6-311+G** nosymm int=superfine SCF=NoVarAcc SC
F=tight     
Charge                                     I                1
Multiplicity                               I                2
Number of electrons                        I               15
Number of alpha electrons                  I                8
Number of beta electrons                   I                7
Number of basis functions                  I               68
Number of independent functions            I               68
Number of point charges in /Mol/           I                0
Number of translation vectors              I                0
Atomic numbers                             I   N=           6
           6           6           1           1           1           1
Nuclear charges                            R   N=           6
  6.00000000E+00  6.00000000E+00  1.00000000E+00  1.00000000E+00  1.00000000E+00
  1.00000000E+00
Current cartesian coordinates              R   N=          18
 -1.72078971E+01  0.00000000E+00  0.00000000E+00  1.72078971E+01  0.00000000E+00
  0.00000000E+00 -1.82715406E+01 -1.77923511E+00 -1.67617500E-11 -1.82714161E+01
  1.77930819E+00 -2.05594941E-10  1.82715406E+01  1.77923512E+00 -4.02125285E-09
  1.82714161E+01 -1.77930820E+00 -4.21016279E-09
Number of symbols in /Mol/                 I                0
Force Field                                I                0
Atom Types                                 C   N=           6
                                                            
            
Int Atom Types                             I   N=           6
           0           0           0           0           0           0
MM charges                                 R   N=           6
  0.00000000E+00  0.00000000E+00  0.00000000E+00  0.00000000E+00  0.00000000E+00
  0.00000000E+00
Integer atomic weights                     I   N=           6
          12          12           1           1           1           1
Real atomic weights                        R   N=           6
  1.20000000E+01  1.20000000E+01  1.00782504E+00  1.00782504E+00  1.00782504E+00
  1.00782504E+00
Atom fragment info                         I   N=           6
           0           0           0           0           0           0
Atom residue num                           I   N=           6
           0           0           0           0           0           0
Nuclear spins                              I   N=           6
           0           0           1           1           1           1
Nuclear ZEff                               R   N=           6
 -3.60000000E+00 -3.60000000E+00 -1.00000000E+00 -1.00000000E+00 -1.00000000E+00
 -1.00000000E+00
Nuclear ZNuc                               R   N=           6
  6.00000000E+00  6.00000000E+00  1.00000000E+00  1.00000000E+00  1.00000000E+00
  1.00000000E+00
Nuclear QMom                               R   N=           6
  0.00000000E+00  0.00000000E+00  0.00000000E+00  0.00000000E+00  0.00000000E+00
  0.00000000E+00
Nuclear GFac                               R   N=           6
  0.00000000E+00  0.00000000E+00  2.79284600E+00  2.79284600E+00  2.79284600E+00
  2.79284600E+00
MicOpt                                     I   N=           6
          -2          -2          -1          -1          -1          -1
Number of residues                         I                0
Number of secondary structures             I                0
Redundant internal dimensions              I   N=           4
          20          10           6           4
Redundant internal coordinate indices      I   N=          80
           1          -1           0           0           1          -2
           0           0           1          -3           0           0
           2          -1           0           0           2          -2
           0           0           2          -3           0           0
           1           3           0           0           1           4
           0           0           2           5           0           0
           2           6           0           0           2           1
           3           0           2           1           4           0
           3           1           4           0           1           2
           5           0           1           2           6           0
           5           2           6           0           3           1
           2           5           3           1           2           6
           4           1           2           5           4           1
           2           6
Redundant internal coordinates             R   N=          20
 -1.72078971E+01  0.00000000E+00  0.00000000E+00  1.72078971E+01  0.00000000E+00
  0.00000000E+00  2.07292427E+00  2.07292312E+00  2.07292427E+00  2.07292312E+00
  2.10960354E+00  2.10953390E+00  2.06404787E+00  2.10960353E+00  2.10953389E+00
  2.06404788E+00  3.14159265E+00  0.00000000E+00 -0.00000000E+00  3.14159265E+00
ZRed-IntVec                                I   N=          20
          -1          -1          -1          -1          -1          -1
           0           0           0           0           0           0
           0           0           0           0           0           0
           0           0
ZRed-FPVec                                 R   N=          20
  0.00000000E+00  0.00000000E+00  0.00000000E+00  0.00000000E+00  0.00000000E+00
  0.00000000E+00  0.00000000E+00  0.00000000E+00  0.00000000E+00  0.00000000E+00
  0.00000000E+00  0.00000000E+00  0.00000000E+00  0.00000000E+00  0.00000000E+00
  0.00000000E+00  0.00000000E+00  0.00000000E+00  0.00000000E+00  0.00000000E+00
ZRed-Constraint1                           R   N=          20
 -1.72078971E+01  0.00000000E+00  0.00000000E+00  1.72078971E+01  0.00000000E+00
  0.00000000E+00  2.05067934E+00  2.05048469E+00  2.05067934E+00  2.05048469E+00
  1.98162443E+00  1.98155420E+00  2.32000667E+00  1.98162443E+00  1.98155420E+00
  2.32000667E+00  3.14159265E+00  0.00000000E+00  0.00000000E+00  3.14159265E+00
ZRed-Constraint2                           R   N=          20
 -1.72078971E+01  0.00000000E+00  0.00000000E+00  1.72078971E+01  0.00000000E+00
  0.00000000E+00  0.00000000E+00  0.00000000E+00  0.00000000E+00  0.00000000E+00
  0.00000000E+00  0.00000000E+00  0.00000000E+00  0.00000000E+00  0.00000000E+00
  0.00000000E+00  0.00000000E+00  0.00000000E+00  0.00000000E+00  0.00000000E+00
Number of contracted shells                I               28
Number of primitive shells                 I               50
Pure/Cartesian d shells                    I                0
Pure/Cartesian f shells                    I                0
Highest angular momentum                   I                2
Largest degree of contraction              I                6
Shell types                                I   N=          28
           0          -1          -1          -1          -1          -2
           0          -1          -1          -1          -1          -2
           0           0           0           1           0           0
           0           1           0           0           0           1
           0           0           0           1
Number of primitives per shell             I   N=          28
           6           3           1           1           1           1
           6           3           1           1           1           1
           3           1           1           1           3           1
           1           1           3           1           1           1
           3           1           1           1
Shell to atom map                          I   N=          28
           1           1           1           1           1           1
           2           2           2           2           2           2
           3           3           3           3           4           4
           4           4           5           5           5           5
           6           6           6           6
Primitive exponents                        R   N=          50
  4.56324000E+03  6.82024000E+02  1.54973000E+02  4.44553000E+01  1.30290000E+01
  1.82773000E+00  2.09642000E+01  4.80331000E+00  1.45933000E+00  4.83456000E-01
  1.45585000E-01  4.38000000E-02  6.26000000E-01  4.56324000E+03  6.82024000E+02
  1.54973000E+02  4.44553000E+01  1.30290000E+01  1.82773000E+00  2.09642000E+01
  4.80331000E+00  1.45933000E+00  4.83456000E-01  1.45585000E-01  4.38000000E-02
  6.26000000E-01  3.38650000E+01  5.09479000E+00  1.15879000E+00  3.25840000E-01
  1.02741000E-01  7.50000000E-01  3.38650000E+01  5.09479000E+00  1.15879000E+00
  3.25840000E-01  1.02741000E-01  7.50000000E-01  3.38650000E+01  5.09479000E+00
  1.15879000E+00  3.25840000E-01  1.02741000E-01  7.50000000E-01  3.38650000E+01
  5.09479000E+00  1.15879000E+00  3.25840000E-01  1.02741000E-01  7.50000000E-01
Contraction coefficients                   R   N=          50
  1.96665025E-03  1.52306019E-02  7.61269097E-02  2.60801033E-01  6.16462078E-01
  2.21006028E-01  1.14660081E-01  9.19999648E-01 -3.03068213E-03  1.00000000E+00
  1.00000000E+00  1.00000000E+00  1.00000000E+00  1.96665025E-03  1.52306019E-02
  7.61269097E-02  2.60801033E-01  6.16462078E-01  2.21006028E-01  1.14660081E-01
  9.19999648E-01 -3.03068213E-03  1.00000000E+00  1.00000000E+00  1.00000000E+00
  1.00000000E+00  2.54938145E-02  1.90373109E-01  8.52161486E-01  1.00000000E+00
  1.00000000E+00  1.00000000E+00  2.54938145E-02  1.90373109E-01  8.52161486E-01
  1.00000000E+00  1.00000000E+00  1.00000000E+00  2.54938145E-02  1.90373109E-01
  8.52161486E-01  1.00000000E+00  1.00000000E+00  1.00000000E+00  2.54938145E-02
  1.90373109E-01  8.52161486E-01  1.00000000E+00  1.00000000E+00  1.00000000E+00
P(S=P) Contraction coefficients            R   N=          50
  0.00000000E+00  0.00000000E+00  0.00000000E+00  0.00000000E+00  0.00000000E+00
  0.00000000E+00  4.02486927E-02  2.37593957E-01  8.15853851E-01  1.00000000E+00
  1.00000000E+00  1.00000000E+00  0.00000000E+00  0.00000000E+00  0.00000000E+00
  0.00000000E+00  0.00000000E+00  0.00000000E+00  0.00000000E+00  4.02486927E-02
  2.37593957E-01  8.15853851E-01  1.00000000E+00  1.00000000E+00  1.00000000E+00
  0.00000000E+00  0.00000000E+00  0.00000000E+00  0.00000000E+00  0.00000000E+00
  0.00000000E+00  0.00000000E+00  0.00000000E+00  0.00000000E+00  0.00000000E+00
  0.00000000E+00  0.00000000E+00  0.00000000E+00  0.00000000E+00  0.00000000E+00
  0.00000000E+00  0.00000000E+00  0.00000000E+00  0.00000000E+00  0.00000000E+00
  0.00000000E+00  0.00000000E+00  0.00000000E+00  0.00000000E+00  0.00000000E+00
Coordinates of each shell                  R   N=          84
 -1.72078971E+01  0.00000000E+00  0.00000000E+00 -1.72078971E+01  0.00000000E+00
  0.00000000E+00 -1.72078971E+01  0.00000000E+00  0.00000000E+00 -1.72078971E+01
  0.00000000E+00  0.00000000E+00 -1.72078971E+01  0.00000000E+00  0.00000000E+00
 -1.72078971E+01  0.00000000E+00  0.00000000E+00  1.72078971E+01  0.00000000E+00
  0.00000000E+00  1.72078971E+01  0.00000000E+00  0.00000000E+00  1.72078971E+01
  0.00000000E+00  0.00000000E+00  1.72078971E+01  0.00000000E+00  0.00000000E+00
  1.72078971E+01  0.00000000E+00  0.00000000E+00  1.72078971E+01  0.00000000E+00
  0.00000000E+00 -1.82715406E+01 -1.77923511E+00 -1.67617500E-11 -1.82715406E+01
 -1.77923511E+00 -1.67617500E-11 -1.82715406E+01 -1.77923511E+00 -1.67617500E-11
 -1.82715406E+01 -1.77923511E+00 -1.67617500E-11 -1.82714161E+01  1.77930819E+00
 -2.05594941E-10 -1.82714161E+01  1.77930819E+00 -2.05594941E-10 -1.82714161E+01
  1.77930819E+00 -2.05594941E-10 -1.82714161E+01  1.77930819E+00 -2.05594941E-10
  1.82715406E+01  1.77923512E+00 -4.02125285E-09  1.82715406E+01  1.77923512E+00
 -4.02125285E-09  1.82715406E+01  1.77923512E+00 -4.02125285E-09  1.82715406E+01
  1.77923512E+00 -4.02125285E-09  1.82714161E+01 -1.77930820E+00 -4.21016279E-09
  1.82714161E+01 -1.77930820E+00 -4.21016279E-09  1.82714161E+01 -1.77930820E+00
 -4.21016279E-09  1.82714161E+01 -1.77930820E+00 -4.21016279E-09
Num ILSW                                   I              100
ILSW                                       I   N=         100
           1           0           0           1           2           0
           0           0           0           0        4336          -1
           7           0           0           0           2           0
           0           0           0           0           1           0
           1           1           0           0           0           0
           0           0      100000           0          -1           0
           0           0           0           0           0           0
           0           0           0           1           0           0
           0 -2000000000           1           0           0           0
           0           0           4          52           0           0
           0           0          55           0           0           0
           0           0           0           6           0           1
           0           0           0           0           0           0
           0           0           0           0           0           0
           0           0           0           0           0           0
           0           0           0           0           0           0
           0           0           0           0
Num RLSW                                   I               52
RLSW                                       R   N=          52
  1.00000000E+00  1.00000000E+00  1.00000000E+00  1.00000000E+00  5.40000000E-01
  0.00000000E+00  0.00000000E+00  1.00000000E+00  0.00000000E+00  0.00000000E+00
  0.00000000E+00  0.00000000E+00  1.00000000E+00  0.00000000E+00  0.00000000E+00
  0.00000000E+00  0.00000000E+00  1.00000000E+00  0.00000000E+00  0.00000000E+00
  0.00000000E+00  0.00000000E+00  1.00000000E+00  0.00000000E+00  0.00000000E+00
  0.00000000E+00  0.00000000E+00  1.00000000E+00  0.00000000E+00  0.00000000E+00
  0.00000000E+00  0.00000000E+00  1.00000000E+00  0.00000000E+00  0.00000000E+00
  0.00000000E+00  0.00000000E+00  0.00000000E+00  1.00000000E+00  1.00000000E+00
  0.00000000E+00  1.00000000E+00  0.00000000E+00  0.00000000E+00  0.00000000E+00
  0.00000000E+00  0.00000000E+00  0.00000000E+00  0.00000000E+00  0.00000000E+00
  0.00000000E+00  0.00000000E+00
MxBond                                     I                3
NBond                                      I   N=           6
           3           3           1           1           1           1
IBond                                      I   N=          18
           2           3           4           1           5           6
           1           0           0           1           0           0
           2           0           0           2           0           0
RBond                                      R   N=          18
  1.00000000E-01  1.00000000E+00  1.00000000E+00  1.00000000E-01  1.00000000E+00
  1.00000000E+00  1.00000000E+00  0.00000000E+00  0.00000000E+00  1.00000000E+00
  0.00000000E+00  0.00000000E+00  1.00000000E+00  0.00000000E+00  0.00000000E+00
  1.00000000E+00  0.00000000E+00  0.00000000E+00
Virial Ratio                               R      2.003447840256853E+00
SCF Energy                                 R     -7.789640566701382E+01
Total Energy                               R     -7.789640566701382E+01
S**2                                       R      7.585604478255314E-01
S**2 after annihilation                    R      7.500093159327278E-01
RMS Force                                  R      1.165664558913019E-05
RMS Density                                R      4.881118819691612E-09
Job Status                                 I                1
Nuclear derivative order                   I                1
External E-field                           R   N=          35
  0.00000000E+00  0.00000000E+00  0.00000000E+00  0.00000000E+00  0.00000000E+00
  0.00000000E+00  0.00000000E+00  0.00000000E+00  0.00000000E+00  0.00000000E+00
  0.00000000E+00  0.00000000E+00  0.00000000E+00  0.00000000E+00  0.00000000E+00
  0.00000000E+00  0.00000000E+00  0.00000000E+00  0.00000000E+00  0.00000000E+00
  0.00000000E+00  0.00000000E+00  0.00000000E+00  0.00000000E+00  0.00000000E+00
  0.00000000E+00  0.00000000E+00  0.00000000E+00  0.00000000E+00  0.00000000E+00
  0.00000000E+00  0.00000000E+00  0.00000000E+00  0.00000000E+00  0.00000000E+00
IOpCl                                      I                1
IROHF                                      I                0
Alpha Orbital Energies                     R   N=          68
 -1.08429521E+01 -1.08429521E+01 -9.59151568E-01 -9.59151565E-01 -7.05528556E-01
 -7.05528552E-01 -5.32737708E-01 -5.32737706E-01 -2.75792680E-01 -2.75792677E-01
 -8.47448440E-02 -8.47448425E-02 -4.11034922E-02 -4.11034906E-02 -2.32274706E-02
 -2.32274692E-02 -2.08135301E-02 -2.08135285E-02  3.92820245E-02  3.92820288E-02
  4.65027618E-02  4.65027632E-02  3.10480456E-01  3.10480457E-01  3.12426138E-01
  3.12426141E-01  4.24697782E-01  4.24697785E-01  4.37950250E-01  4.37950254E-01
  4.65235002E-01  4.65235005E-01  5.48495574E-01  5.48495579E-01  8.87370635E-01
  8.87370640E-01  9.82527826E-01  9.82527827E-01  1.02884657E+00  1.02884657E+00
  1.26870448E+00  1.26870449E+00  1.34378500E+00  1.34378501E+00  1.51669059E+00
  1.51669059E+00  1.61584842E+00  1.61584843E+00  1.75532307E+00  1.75532307E+00
  1.87011619E+00  1.87011620E+00  2.21717704E+00  2.21717704E+00  2.29567510E+00
  2.29567510E+00  2.31374388E+00  2.31374388E+00  2.44890823E+00  2.44890823E+00
  2.53729015E+00  2.53729015E+00  2.73818507E+00  2.73818508E+00  3.49731762E+00
  3.49731763E+00  2.35481129E+01  2.35481129E+01
Beta Orbital Energies                      R   N=          68
 -1.08356833E+01 -1.08356832E+01 -9.37874464E-01 -9.37858570E-01 -6.95522319E-01
 -6.95522279E-01 -3.84470117E-01 -3.68290318E-01 -2.59919914E-01 -2.59917296E-01
 -8.77622361E-02 -8.77526469E-02 -4.61461099E-02 -4.61458899E-02 -2.80988906E-02
 -2.80987182E-02 -2.38381103E-02 -2.38356955E-02  3.98588216E-02  3.98589301E-02
  5.12522178E-02  5.12624487E-02  3.08045576E-01  3.08049376E-01  3.09369948E-01
  3.09370610E-01  4.25225283E-01  4.25225487E-01  4.56862640E-01  4.56863543E-01
  4.77079585E-01  4.77079591E-01  5.59958321E-01  5.59960355E-01  8.99649610E-01
  8.99649614E-01  1.00585376E+00  1.00586887E+00  1.04755318E+00  1.04755874E+00
  1.27833680E+00  1.27833682E+00  1.35529895E+00  1.35529911E+00  1.52941117E+00
  1.52941162E+00  1.62084747E+00  1.62084757E+00  1.76300712E+00  1.76300713E+00
  1.88020758E+00  1.88020769E+00  2.22844798E+00  2.22844805E+00  2.31045808E+00
  2.31045825E+00  2.34201293E+00  2.34201296E+00  2.46142433E+00  2.46142437E+00
  2.55139047E+00  2.55139061E+00  2.77242475E+00  2.77242498E+00  3.52363018E+00
  3.52363018E+00  2.35532303E+01  2.35532303E+01
Alpha MO coefficients                      R   N=        4624
 -6.02706476E-08 -4.95827145E-08  9.31004349E-11 -2.01436809E-15 -6.81878748E-16
 -1.19923297E-09  2.04965660E-10 -1.56445287E-14  1.45634564E-15  3.86827968E-10
 -1.69495212E-11  1.14171996E-15  1.16028960E-15  8.49764913E-11 -6.52821251E-11
  5.91156885E-15 -2.10264728E-15  1.19570132E-10  2.94152758E-16 -3.33476343E-16
  9.69582626E-11 -2.97083386E-15  5.64147597E-01  4.64106086E-01  8.71210753E-04
 -3.05667166E-08 -3.16703518E-12  1.12245070E-02  1.91929231E-03 -7.46016759E-08
 -7.15032968E-12 -3.61913838E-03 -1.60501974E-04  5.39236253E-09  1.71046897E-13
 -7.94224070E-04 -6.08175314E-04  2.25099507E-08  2.50808723E-12 -1.11915250E-03
 -3.50294515E-12  1.77781477E-13 -9.07560757E-04  5.93159012E-08 -3.35639137E-11
  3.18093977E-10 -2.53513073E-10  1.10343598E-10  1.74190000E-10 -6.61800191E-16
 -3.35645224E-11  3.18111063E-10 -2.53529512E-10  1.10335046E-10 -1.74203648E-10
 -3.06381234E-16  3.13936614E-04 -2.97652942E-03  2.37095185E-03  1.03294396E-03
  1.63049222E-03 -3.76928531E-12  3.13934723E-04 -2.97654284E-03  2.37095957E-03
  1.03283414E-03 -1.63057031E-03 -3.92494542E-12  5.64147597E-01  4.64106086E-01
 -8.71210770E-04  3.05667093E-08 -7.85455580E-14  1.12245071E-02 -1.91929236E-03
  7.46018876E-08 -2.13656071E-13 -3.61913839E-03  1.60501974E-04 -5.39236774E-09
  2.61178989E-14 -7.94224090E-04  6.08175328E-04 -2.25099814E-08  6.04641266E-14
 -1.11915250E-03  9.79650589E-14 -1.90732755E-13 -9.07560732E-04  5.93158053E-08
  6.02706474E-08  4.95827307E-08  9.30506984E-11 -2.94511503E-15 -3.95554564E-16
  1.19910555E-09  2.05129238E-10 -9.01580881E-15  5.21843554E-16 -3.86473993E-10
 -1.73457408E-11  1.14582230E-15 -6.22113714E-16 -8.47235600E-11 -6.46661975E-11
  2.36158956E-15  8.70616027E-16 -1.19558985E-10  2.37129861E-16  3.69112492E-16
 -9.69599475E-11  6.09833098E-15  3.13936614E-04 -2.97652945E-03  2.37095188E-03
 -1.03294397E-03 -1.63049223E-03 -6.14521389E-14  3.13934722E-04 -2.97654287E-03
  2.37095960E-03 -1.03283415E-03  1.63057032E-03 -1.75218411E-13  3.35138124E-11
 -3.17890323E-10  2.53078300E-10  1.10363899E-10  1.74193716E-10 -6.14065479E-16
  3.35133206E-11 -3.17892399E-10  2.53080048E-10  1.10352584E-10 -1.74202433E-10
  1.93221813E-16  1.57346492E-09  2.55123028E-09  7.01732364E-10 -2.60920796E-14
 -3.30801786E-16 -7.20139841E-09  1.01325376E-09 -3.96030881E-14 -3.51703353E-16
 -4.59802543E-09  4.36378200E-10 -1.36930827E-14  8.53054512E-16 -3.94062415E-11
  5.61299978E-11  2.07336734E-16 -1.02883171E-16  1.06458193E-10  1.92581563E-16
  4.37789075E-16  6.53739099E-11 -3.86762919E-15 -1.11856420E-01 -1.81364891E-01
  4.98850524E-02 -1.84842778E-06 -2.59596268E-10  5.11940010E-01  7.20343212E-02
 -2.64062614E-06 -3.96403291E-10  3.26877353E-01  3.10128203E-02 -1.12737748E-06
 -1.54627958E-10  2.80232362E-03  4.00494785E-03 -1.40712946E-07 -1.26005064E-11
 -7.56793763E-03 -5.65895915E-12  8.59600362E-13 -4.64745437E-03  3.04831789E-07
 -1.54747020E-09 -1.85220907E-09  9.26958394E-11 -1.09626670E-10 -2.64476635E-10
 -2.50636931E-16 -1.54747329E-09 -1.85220704E-09  9.26857512E-11 -1.09607704E-10
  2.64483006E-10 -6.65510529E-17  1.10008121E-01  1.31674439E-01 -6.59538249E-03
 -7.79290445E-03 -1.88013285E-02  3.38909107E-11  1.10008318E-01  1.31674627E-01
 -6.59538398E-03 -7.79160817E-03  1.88018871E-02  3.58257687E-11 -1.11856420E-01
 -1.81364891E-01 -4.98850534E-02  1.84843053E-06 -6.30384548E-12  5.11940009E-01
 -7.20343224E-02  2.64062926E-06 -9.46071200E-12  3.26877352E-01 -3.10128208E-02
  1.12737844E-06 -3.12015367E-12  2.80232377E-03 -4.00494789E-03  1.40712984E-07
 -6.11299365E-13 -7.56793763E-03 -6.46945889E-14 -9.54693449E-13 -4.64745410E-03
  3.04831355E-07 -1.57346330E-09 -2.55122523E-09  7.01716039E-10 -2.58472709E-14
 -3.28868860E-16  7.20133901E-09  1.01333497E-09 -3.55977665E-14 -4.99635428E-16
  4.59822565E-09  4.36125041E-10 -1.52900323E-14  3.41809265E-16  3.94332104E-11
  5.65448130E-11 -1.09459875E-15  1.38228269E-16 -1.06455610E-10  2.28542137E-16
  3.86710955E-17 -6.53759174E-11  4.90364834E-15  1.10008121E-01  1.31674439E-01
 -6.59538238E-03  7.79290459E-03  1.88013284E-02 -4.03049745E-13  1.10008318E-01
  1.31674627E-01 -6.59538387E-03  7.79160831E-03 -1.88018871E-02  1.78632411E-12
  1.54745849E-09  1.85227381E-09 -9.28616334E-11 -1.09615998E-10 -2.64473122E-10
  1.77396970E-16  1.54746152E-09  1.85227947E-09 -9.28610274E-11 -1.09598314E-10
  2.64482038E-10 -4.96761909E-18  1.00275029E-15  1.70343136E-15  1.48637767E-13
  4.28783610E-09 -2.10591562E-15 -5.49115118E-15  2.20821358E-13  6.37069577E-09
 -3.47937296E-15 -4.70625868E-15  1.08088608E-13  3.11466884E-09 -3.02893632E-15
 -4.12727115E-17 -3.14844406E-15 -8.39494947E-11 -9.35943581E-16 -4.17735431E-16
 -1.11978611E-16  1.71733623E-16 -4.76077694E-14 -6.83475618E-10 -4.99447200E-08
 -8.43859223E-08  7.72846530E-06  2.23288349E-01  1.16581093E-11  2.56667171E-07
  1.15090836E-05  3.31752574E-01  1.64461011E-11  3.56932639E-07  5.65991993E-06
  1.62195767E-01  8.38746369E-12  2.37853305E-08 -1.44179681E-07 -4.36885744E-03
 -5.72353639E-13  4.12307812E-09  1.65477824E-12 -1.54757113E-10  2.48307103E-06
  3.55916977E-02 -2.86355381E-09 -4.11971712E-09 -1.08267140E-09 -2.22940802E-10
 -2.05790874E-10  4.77574256E-17  2.86355352E-09  4.11971395E-09  1.08267091E-09
  2.22926604E-10 -2.05805232E-10 -2.36378042E-16  1.49118959E-01  2.14534614E-01
  5.63768013E-02 -1.16096682E-02 -1.07165812E-02  4.73269970E-11 -1.49118926E-01
 -2.14534525E-01 -5.63768546E-02  1.16089181E-02 -1.07173718E-02 -4.82939786E-11
  4.99458384E-08  8.43878051E-08  7.72846409E-06  2.23288349E-01 -1.20351835E-11
 -2.56672839E-07  1.15090824E-05  3.31752574E-01 -1.75672799E-11 -3.56940584E-07
  5.65991992E-06  1.62195767E-01 -9.16809640E-12 -2.37858067E-08 -1.44179563E-07
 -4.36885755E-03  6.25901559E-13 -4.12320368E-09  1.85036376E-12 -3.63884742E-12
 -2.48307111E-06 -3.55916982E-02  9.67222652E-16  1.77090655E-15 -1.48551832E-13
 -4.28783712E-09  4.03362791E-16 -5.26356245E-15 -2.21322524E-13 -6.37068417E-09
  1.35173573E-15 -1.02586940E-14 -1.09361922E-13 -3.11466769E-09 -1.22882691E-15
 -5.76455592E-16  2.95028174E-15  8.38416657E-11  1.23552264E-15  4.18167808E-16
  1.80021195E-16 -8.49051472E-18 -4.72080924E-14 -6.83468603E-10 -1.49118959E-01
 -2.14534614E-01 -5.63768024E-02 -1.16096683E-02 -1.07165809E-02 -2.93532120E-13
  1.49118926E-01  2.14534525E-01  5.63768558E-02  1.16089181E-02 -1.07173715E-02
  1.77015314E-12 -2.86354990E-09 -4.11975607E-09 -1.08255063E-09  2.22943047E-10
  2.05793030E-10 -1.78148984E-16  2.86354862E-09  4.11975852E-09  1.08255293E-09
 -2.22929233E-10  2.05809594E-10  1.12026199E-16  6.84843298E-07  1.15481001E-06
 -4.04142457E-06  1.40549949E-10  1.60198183E-16 -3.68850302E-06 -6.08266214E-06
  2.11158125E-10 -2.19173818E-16 -4.36097492E-06 -4.92989328E-06  1.70562010E-10
  1.22975695E-15 -1.43685182E-07 -2.21626037E-07  7.50085882E-12 -1.37093837E-15
 -2.81607535E-07 -1.54451091E-16 -3.58840520E-16  1.31834863E-07 -9.22889216E-12
  4.53273058E-02  7.64327019E-02  2.67487327E-01 -9.30250831E-06 -4.83491296E-10
 -2.44128635E-01  4.02589383E-01 -1.39757672E-05 -6.84571109E-10 -2.88637496E-01
  3.26292147E-01 -1.12889379E-05 -5.56245043E-10 -9.51020969E-03  1.46679727E-02
 -4.96380650E-07 -5.20878732E-11 -1.86385924E-02 -1.74108723E-10  9.60657042E-13
  8.72567288E-03 -6.10814806E-07  1.00840604E-06  1.62895977E-06  6.03057210E-07
 -1.79871812E-07  1.91924115E-07  2.95461481E-16  1.00840545E-06  1.62895858E-06
  6.03057216E-07 -1.79885319E-07 -1.91911612E-07  4.26828709E-17  6.67427733E-02
  1.07814852E-01  3.99145466E-02  1.19050567E-02 -1.27027655E-02 -1.31934222E-11
  6.67427340E-02  1.07814774E-01  3.99145471E-02  1.19059507E-02  1.27019381E-02
 -1.19774586E-11 -4.53273063E-02 -7.64327027E-02  2.67487326E-01 -9.30250779E-06
  1.09631936E-11  2.44128637E-01  4.02589381E-01 -1.39757659E-05  1.58985842E-11
  2.88637500E-01  3.26292146E-01 -1.12889367E-05  1.11717943E-11  9.51021043E-03
  1.46679730E-02 -4.96380574E-07  1.65748050E-12  1.86385926E-02 -3.92229181E-12
  1.00723344E-12 -8.72567328E-03  6.10814906E-07  6.84843313E-07  1.15480991E-06
  4.04142531E-06 -1.40550462E-10 -7.49674227E-15 -3.68850112E-06  6.08266012E-06
 -2.11156878E-10 -1.06930037E-14 -4.36098432E-06  4.92990256E-06 -1.70563258E-10
 -7.61773149E-15 -1.43691422E-07  2.21606261E-07 -7.49876980E-12 -1.65264816E-15
 -2.81607727E-07 -2.56848202E-15 -3.48216610E-17  1.31834845E-07 -9.22839119E-12
 -6.67427736E-02 -1.07814852E-01 -3.99145472E-02  1.19050566E-02 -1.27027656E-02
  9.89028263E-13 -6.67427343E-02 -1.07814774E-01 -3.99145477E-02  1.19059506E-02
  1.27019381E-02 -2.76217869E-13  1.00840658E-06  1.62895632E-06  6.03068306E-07
  1.79871534E-07 -1.91924153E-07 -3.57538902E-16  1.00840599E-06  1.62895513E-06
  6.03068313E-07  1.79885040E-07  1.91911651E-07 -8.91306596E-17 -4.22867227E-17
 -7.90730344E-17 -6.36319602E-17  4.43621364E-16  3.87829712E-06  5.77474629E-16
 -4.48443270E-16 -1.04204036E-15  6.22702819E-06 -1.92626568E-15  4.45933557E-16
  4.24042287E-15  6.66818970E-06 -1.27512581E-15  4.87293548E-16  3.99115144E-15
  1.53013668E-06  8.35551576E-19 -2.11001989E-07  7.52181935E-12 -1.22407554E-16
  6.01212631E-16 -8.40522764E-11 -1.30491430E-10  5.98096867E-10 -1.31222426E-11
  2.60910728E-01  3.31335063E-10  1.00410877E-09 -2.62051781E-11  4.18920542E-01
  6.55026925E-10  1.08724641E-09 -2.82176474E-11  4.48599613E-01  1.87079550E-10
  2.00473083E-10 -1.01276960E-11  1.02939070E-01 -1.64524550E-10  1.41950659E-02
 -5.06017927E-07  3.43033850E-11 -2.80365143E-12  2.60958596E-16 -7.18383614E-16
  9.12763760E-15 -4.09497397E-16 -1.20981745E-16  3.47588970E-07 -3.25356403E-17
  9.53964763E-16 -5.89576498E-15  2.04086111E-16 -4.56588991E-16  3.47589183E-07
 -8.80872990E-11 -1.53210129E-10 -9.71422080E-11  6.67081330E-11  2.60582586E-11
  2.33838915E-02 -8.90951548E-11 -1.61582833E-10 -1.10755568E-10  6.87464356E-11
 -3.17601676E-11  2.33839059E-02 -2.46530821E-12 -4.10507939E-12 -1.47044707E-11
  1.40741686E-11  2.60910727E-01  1.09975189E-11 -2.52917224E-11  2.57323841E-11
  4.18920541E-01  2.26039170E-11 -2.82350494E-11  3.85251117E-11  4.48599613E-01
  2.59092868E-12 -4.35074054E-12  1.70882502E-11  1.02939072E-01 -3.82926957E-12
 -1.41950661E-02  5.06018113E-07  9.13369939E-13 -3.28192000E-12  1.33392626E-15
  1.55131858E-15 -8.95257578E-15  1.41152399E-15 -3.87829755E-06 -3.47536565E-15
 -1.51454611E-14  2.85785059E-15 -6.22702791E-06 -1.15686156E-14 -1.61078507E-14