Title Card Required                                                     
Force     UM062X                                                      6-311+G(d,p)        
Number of atoms                            I                6
Info1-9                                    I   N=           9
          15          15           0           0           0         100
           5          18        -502
Full Title                                 C   N=           2
Title Card Required     
Route                                      C   N=           4
#p UM062X/6-311+G** force int=superfine         
Charge                                     I                0
Multiplicity                               I                1
Number of electrons                        I               16
Number of alpha electrons                  I                8
Number of beta electrons                   I                8
Number of basis functions                  I               68
Number of independent functions            I               68
Number of point charges in /Mol/           I                0
Number of translation vectors              I                0
Atomic numbers                             I   N=           6
           6           6           1           1           1           1
Nuclear charges                            R   N=           6
  6.00000000E+00  6.00000000E+00  1.00000000E+00  1.00000000E+00  1.00000000E+00
  1.00000000E+00
Current cartesian coordinates              R   N=          18
  1.58903800E-20  1.64096636E+00  0.00000000E+00 -2.00986904E-16 -1.64096636E+00
  0.00000000E+00  1.80521190E+00  2.58964289E+00  0.00000000E+00 -1.80504183E+00
  2.58968824E+00  0.00000000E+00 -1.80521190E+00 -2.58964289E+00  0.00000000E+00
  1.80504183E+00 -2.58968824E+00  0.00000000E+00
Number of symbols in /Mol/                 I                0
Force Field                                I                0
Atom Types                                 C   N=           6
                                                            
            
Int Atom Types                             I   N=           6
           0           0           0           0           0           0
MM charges                                 R   N=           6
  0.00000000E+00  0.00000000E+00  0.00000000E+00  0.00000000E+00  0.00000000E+00
  0.00000000E+00
Integer atomic weights                     I   N=           6
          12          12           1           1           1           1
Real atomic weights                        R   N=           6
  1.20000000E+01  1.20000000E+01  1.00782504E+00  1.00782504E+00  1.00782504E+00
  1.00782504E+00
Atom fragment info                         I   N=           6
           0           0           0           0           0           0
Atom residue num                           I   N=           6
           0           0           0           0           0           0
Nuclear spins                              I   N=           6
           0           0           1           1           1           1
Nuclear ZEff                               R   N=           6
 -3.60000000E+00 -3.60000000E+00 -1.00000000E+00 -1.00000000E+00 -1.00000000E+00
 -1.00000000E+00
Nuclear ZNuc                               R   N=           6
  6.00000000E+00  6.00000000E+00  1.00000000E+00  1.00000000E+00  1.00000000E+00
  1.00000000E+00
Nuclear QMom                               R   N=           6
  0.00000000E+00  0.00000000E+00  0.00000000E+00  0.00000000E+00  0.00000000E+00
  0.00000000E+00
Nuclear GFac                               R   N=           6
  0.00000000E+00  0.00000000E+00  2.79284600E+00  2.79284600E+00  2.79284600E+00
  2.79284600E+00
MicOpt                                     I   N=           6
          -1          -1          -1          -1          -1          -1
Number of residues                         I                0
Number of secondary structures             I                0
SymInf integers                            I   N=          26
           2           4           1           1           1          -1
          -1           1           1           1          -1          -1
          -1          -1           0           0           0           0
           0           0           0           0           0           0
           0           0
RotTr to input orientation                 R   N=          12
  2.42099758E-17 -1.00000000E+00 -1.90488294E-21 -1.00000000E+00 -2.42132037E-17
 -1.22464680E-16  1.22464680E-16  1.90488294E-21 -1.00000000E+00  0.00000000E+00
  0.00000000E+00  0.00000000E+00
Number of contracted shells                I               28
Number of primitive shells                 I               50
Pure/Cartesian d shells                    I                0
Pure/Cartesian f shells                    I                0
Highest angular momentum                   I                2
Largest degree of contraction              I                6
Shell types                                I   N=          28
           0          -1          -1          -1          -1          -2
           0          -1          -1          -1          -1          -2
           0           0           0           1           0           0
           0           1           0           0           0           1
           0           0           0           1
Number of primitives per shell             I   N=          28
           6           3           1           1           1           1
           6           3           1           1           1           1
           3           1           1           1           3           1
           1           1           3           1           1           1
           3           1           1           1
Shell to atom map                          I   N=          28
           1           1           1           1           1           1
           2           2           2           2           2           2
           3           3           3           3           4           4
           4           4           5           5           5           5
           6           6           6           6
Primitive exponents                        R   N=          50
  4.56324000E+03  6.82024000E+02  1.54973000E+02  4.44553000E+01  1.30290000E+01
  1.82773000E+00  2.09642000E+01  4.80331000E+00  1.45933000E+00  4.83456000E-01
  1.45585000E-01  4.38000000E-02  6.26000000E-01  4.56324000E+03  6.82024000E+02
  1.54973000E+02  4.44553000E+01  1.30290000E+01  1.82773000E+00  2.09642000E+01
  4.80331000E+00  1.45933000E+00  4.83456000E-01  1.45585000E-01  4.38000000E-02
  6.26000000E-01  3.38650000E+01  5.09479000E+00  1.15879000E+00  3.25840000E-01
  1.02741000E-01  7.50000000E-01  3.38650000E+01  5.09479000E+00  1.15879000E+00
  3.25840000E-01  1.02741000E-01  7.50000000E-01  3.38650000E+01  5.09479000E+00
  1.15879000E+00  3.25840000E-01  1.02741000E-01  7.50000000E-01  3.38650000E+01
  5.09479000E+00  1.15879000E+00  3.25840000E-01  1.02741000E-01  7.50000000E-01
Contraction coefficients                   R   N=          50
  1.96665025E-03  1.52306019E-02  7.61269097E-02  2.60801033E-01  6.16462078E-01
  2.21006028E-01  1.14660081E-01  9.19999648E-01 -3.03068213E-03  1.00000000E+00
  1.00000000E+00  1.00000000E+00  1.00000000E+00  1.96665025E-03  1.52306019E-02
  7.61269097E-02  2.60801033E-01  6.16462078E-01  2.21006028E-01  1.14660081E-01
  9.19999648E-01 -3.03068213E-03  1.00000000E+00  1.00000000E+00  1.00000000E+00
  1.00000000E+00  2.54938145E-02  1.90373109E-01  8.52161486E-01  1.00000000E+00
  1.00000000E+00  1.00000000E+00  2.54938145E-02  1.90373109E-01  8.52161486E-01
  1.00000000E+00  1.00000000E+00  1.00000000E+00  2.54938145E-02  1.90373109E-01
  8.52161486E-01  1.00000000E+00  1.00000000E+00  1.00000000E+00  2.54938145E-02
  1.90373109E-01  8.52161486E-01  1.00000000E+00  1.00000000E+00  1.00000000E+00
P(S=P) Contraction coefficients            R   N=          50
  0.00000000E+00  0.00000000E+00  0.00000000E+00  0.00000000E+00  0.00000000E+00
  0.00000000E+00  4.02486927E-02  2.37593957E-01  8.15853851E-01  1.00000000E+00
  1.00000000E+00  1.00000000E+00  0.00000000E+00  0.00000000E+00  0.00000000E+00
  0.00000000E+00  0.00000000E+00  0.00000000E+00  0.00000000E+00  4.02486927E-02
  2.37593957E-01  8.15853851E-01  1.00000000E+00  1.00000000E+00  1.00000000E+00
  0.00000000E+00  0.00000000E+00  0.00000000E+00  0.00000000E+00  0.00000000E+00
  0.00000000E+00  0.00000000E+00  0.00000000E+00  0.00000000E+00  0.00000000E+00
  0.00000000E+00  0.00000000E+00  0.00000000E+00  0.00000000E+00  0.00000000E+00
  0.00000000E+00  0.00000000E+00  0.00000000E+00  0.00000000E+00  0.00000000E+00
  0.00000000E+00  0.00000000E+00  0.00000000E+00  0.00000000E+00  0.00000000E+00
Coordinates of each shell                  R   N=          84
  1.05935867E-20  1.64096636E+00  0.00000000E+00  1.05935867E-20  1.64096636E+00
  0.00000000E+00  1.05935867E-20  1.64096636E+00  0.00000000E+00  1.05935867E-20
  1.64096636E+00  0.00000000E+00  1.05935867E-20  1.64096636E+00  0.00000000E+00
  1.05935867E-20  1.64096636E+00  0.00000000E+00 -2.00981607E-16 -1.64096636E+00
 -3.98486441E-57 -2.00981607E-16 -1.64096636E+00 -3.98486441E-57 -2.00981607E-16
 -1.64096636E+00 -3.98486441E-57 -2.00981607E-16 -1.64096636E+00 -3.98486441E-57
 -2.00981607E-16 -1.64096636E+00 -3.98486441E-57 -2.00981607E-16 -1.64096636E+00
 -3.98486441E-57  1.80521190E+00  2.58964289E+00 -3.39522623E-37  1.80521190E+00
  2.58964289E+00 -3.39522623E-37  1.80521190E+00  2.58964289E+00 -3.39522623E-37
  1.80521190E+00  2.58964289E+00 -3.39522623E-37 -1.80504183E+00  2.58968824E+00
  3.39490635E-37 -1.80504183E+00  2.58968824E+00  3.39490635E-37 -1.80504183E+00
  2.58968824E+00  3.39490635E-37 -1.80504183E+00  2.58968824E+00  3.39490635E-37
 -1.80521190E+00 -2.58964289E+00 -1.01856787E-36 -1.80521190E+00 -2.58964289E+00
 -1.01856787E-36 -1.80521190E+00 -2.58964289E+00 -1.01856787E-36 -1.80521190E+00
 -2.58964289E+00 -1.01856787E-36  1.80504183E+00 -2.58968824E+00  1.01847191E-36
  1.80504183E+00 -2.58968824E+00  1.01847191E-36  1.80504183E+00 -2.58968824E+00
  1.01847191E-36  1.80504183E+00 -2.58968824E+00  1.01847191E-36
Num ILSW                                   I              100
ILSW                                       I   N=         100
           1           0           0           0           2           0
           0           0           0           0        4336          -1
           7           0           0           0           2           0
           0           0           0           0           1           0
           1           0           0           0           0           0
           0           0      100000           0          -1           0
           0           0           0           0           0           0
           0           0           0           1           0           0
           0 -2000000000           1           0           0           0
           0           0           4          52           0           0
           0           0          55           0           0           0
           0           0           0           6           0           1
           0           0           0           0           0           0
           0           0           0           0           0           0
           0           0           0           0           0           0
           0           0           0           0           0           0
           0           0           0           0
Num RLSW                                   I               52
RLSW                                       R   N=          52
  1.00000000E+00  1.00000000E+00  1.00000000E+00  1.00000000E+00  5.40000000E-01
  0.00000000E+00  0.00000000E+00  1.00000000E+00  0.00000000E+00  0.00000000E+00
  0.00000000E+00  0.00000000E+00  1.00000000E+00  0.00000000E+00  0.00000000E+00
  0.00000000E+00  0.00000000E+00  1.00000000E+00  0.00000000E+00  0.00000000E+00
  0.00000000E+00  0.00000000E+00  1.00000000E+00  0.00000000E+00  0.00000000E+00
  0.00000000E+00  0.00000000E+00  1.00000000E+00  0.00000000E+00  0.00000000E+00
  0.00000000E+00  0.00000000E+00  1.00000000E+00  0.00000000E+00  0.00000000E+00
  0.00000000E+00  0.00000000E+00  0.00000000E+00  1.00000000E+00  1.00000000E+00
  0.00000000E+00  1.00000000E+00  0.00000000E+00  0.00000000E+00  0.00000000E+00
  0.00000000E+00  0.00000000E+00  0.00000000E+00  0.00000000E+00  0.00000000E+00
  0.00000000E+00  0.00000000E+00
MxBond                                     I                3
NBond                                      I   N=           6
           3           3           1           1           1           1
IBond                                      I   N=          18
           2           3           4           1           5           6
           1           0           0           1           0           0
           2           0           0           2           0           0
RBond                                      R   N=          18
  1.00000000E+00  1.00000000E+00  1.00000000E+00  1.00000000E+00  1.00000000E+00
  1.00000000E+00  1.00000000E+00  0.00000000E+00  0.00000000E+00  1.00000000E+00
  0.00000000E+00  0.00000000E+00  1.00000000E+00  0.00000000E+00  0.00000000E+00
  1.00000000E+00  0.00000000E+00  0.00000000E+00
Virial Ratio                               R      2.011775084760711E+00
SCF Energy                                 R     -7.846472966802661E+01
Total Energy                               R     -7.846472966802661E+01
S**2                                       R      9.769962616701378E-15
S**2 after annihilation                    R     -9.769962616701400E-15
RMS Force                                  R      5.919725748012174E-02
RMS Density                                R      4.676713450550920E-09
Job Status                                 I                1
Nuclear derivative order                   I                1
External E-field                           R   N=          35
  0.00000000E+00  0.00000000E+00  0.00000000E+00  0.00000000E+00  0.00000000E+00
  0.00000000E+00  0.00000000E+00  0.00000000E+00  0.00000000E+00  0.00000000E+00
  0.00000000E+00  0.00000000E+00  0.00000000E+00  0.00000000E+00  0.00000000E+00
  0.00000000E+00  0.00000000E+00  0.00000000E+00  0.00000000E+00  0.00000000E+00
  0.00000000E+00  0.00000000E+00  0.00000000E+00  0.00000000E+00  0.00000000E+00
  0.00000000E+00  0.00000000E+00  0.00000000E+00  0.00000000E+00  0.00000000E+00
  0.00000000E+00  0.00000000E+00  0.00000000E+00  0.00000000E+00  0.00000000E+00
IOpCl                                      I                1
IROHF                                      I                0
Alpha Orbital Energies                     R   N=          68
 -1.05906170E+01 -1.05903723E+01 -7.95202867E-01 -6.97428700E-01 -5.30061340E-01
 -4.74365175E-01 -4.20564204E-01 -2.82215933E-01 -3.49761127E-02  3.36972245E-02
  3.39715277E-02  5.37831115E-02  7.60998228E-02  8.66709476E-02  9.75948219E-02
  1.17348508E-01  1.56556812E-01  1.67044509E-01  1.76706747E-01  2.09631318E-01
  2.28483640E-01  2.90617259E-01  4.08844873E-01  4.42912859E-01  4.73750345E-01
  5.97570017E-01  6.03124545E-01  6.20814223E-01  6.64621447E-01  6.94429839E-01
  7.09474521E-01  7.39020758E-01  7.76252372E-01  8.37430119E-01  1.07553608E+00
  1.10184673E+00  1.11946781E+00  1.37864125E+00  1.42607619E+00  1.44532468E+00
  1.49669245E+00  1.54806156E+00  1.56022627E+00  1.58932655E+00  1.74389028E+00
  1.89512597E+00  1.91764544E+00  1.93770767E+00  1.95063500E+00  2.02512520E+00
  2.08824057E+00  2.10864421E+00  2.38224058E+00  2.52768864E+00  2.54395154E+00
  2.58164646E+00  2.62693719E+00  2.63895962E+00  2.75463540E+00  2.75705339E+00
  2.80407052E+00  2.84161571E+00  2.88301300E+00  3.73506184E+00  3.79368012E+00
  3.86830636E+00  2.37960553E+01  2.38796540E+01
Beta Orbital Energies                      R   N=          68
 -1.05906170E+01 -1.05903723E+01 -7.95202867E-01 -6.97428700E-01 -5.30061340E-01
 -4.74365175E-01 -4.20564204E-01 -2.82215933E-01 -3.49761127E-02  3.36972245E-02
  3.39715277E-02  5.37831115E-02  7.60998228E-02  8.66709476E-02  9.75948219E-02
  1.17348508E-01  1.56556812E-01  1.67044509E-01  1.76706747E-01  2.09631318E-01
  2.28483640E-01  2.90617259E-01  4.08844873E-01  4.42912859E-01  4.73750345E-01
  5.97570017E-01  6.03124545E-01  6.20814223E-01  6.64621447E-01  6.94429839E-01
  7.09474521E-01  7.39020758E-01  7.76252372E-01  8.37430119E-01  1.07553608E+00
  1.10184673E+00  1.11946781E+00  1.37864125E+00  1.42607619E+00  1.44532468E+00
  1.49669245E+00  1.54806156E+00  1.56022627E+00  1.58932655E+00  1.74389028E+00
  1.89512597E+00  1.91764544E+00  1.93770767E+00  1.95063500E+00  2.02512520E+00
  2.08824057E+00  2.10864421E+00  2.38224058E+00  2.52768864E+00  2.54395154E+00
  2.58164646E+00  2.62693719E+00  2.63895962E+00  2.75463540E+00  2.75705339E+00
  2.80407052E+00  2.84161571E+00  2.88301300E+00  3.73506184E+00  3.79368012E+00
  3.86830636E+00  2.37960553E+01  2.38796540E+01
Alpha MO coefficients                      R   N=        4624
  3.98966352E-01  3.28029513E-01  5.19700249E-08 -3.37165948E-04  0.00000000E+00
  8.36374938E-03 -7.29022941E-07  1.45291855E-03  0.00000000E+00 -2.03933395E-03
 -8.72770852E-08  1.01166492E-04  0.00000000E+00 -5.83122275E-04  3.22381458E-07
 -5.25394146E-04  0.00000000E+00 -8.21147905E-04  0.00000000E+00  0.00000000E+00
  9.60479566E-04 -3.53560783E-07  3.98966352E-01  3.28029513E-01 -5.19700249E-08
  3.37165948E-04  0.00000000E+00  8.36374938E-03  7.29022941E-07 -1.45291855E-03
  0.00000000E+00 -2.03933395E-03  8.72770852E-08 -1.01166492E-04  0.00000000E+00
 -5.83122275E-04 -3.22381458E-07  5.25394146E-04  0.00000000E+00 -8.21147905E-04
  0.00000000E+00  0.00000000E+00  9.60479566E-04 -3.53560783E-07  1.32310793E-04
 -2.41556913E-03  1.53915548E-03  1.30628832E-03  7.30294183E-04  0.00000000E+00
  1.32150161E-04 -2.41693068E-03  1.54004668E-03 -1.30677818E-03  7.30658709E-04
  0.00000000E+00  1.32310793E-04 -2.41556913E-03  1.53915548E-03 -1.30628832E-03
 -7.30294183E-04  0.00000000E+00  1.32150161E-04 -2.41693068E-03  1.54004668E-03
  1.30677818E-03 -7.30658709E-04  0.00000000E+00  3.98983672E-01  3.28125196E-01
  4.99574305E-08 -1.88272558E-04  0.00000000E+00  8.09895105E-03 -6.62289526E-07
  1.62941048E-03  0.00000000E+00 -3.74554508E-03  4.75749763E-08  7.30293605E-04
  0.00000000E+00  1.80996317E-03  9.01732117E-08 -1.20932488E-03  0.00000000E+00
 -8.07310170E-04  0.00000000E+00  0.00000000E+00  8.81689483E-04 -3.10437248E-07
 -3.98983672E-01 -3.28125196E-01  4.99574305E-08 -1.88272558E-04  0.00000000E+00
 -8.09895105E-03 -6.62289526E-07  1.62941048E-03  0.00000000E+00  3.74554508E-03
  4.75749763E-08  7.30293605E-04  0.00000000E+00 -1.80996317E-03  9.01732117E-08
 -1.20932488E-03  0.00000000E+00  8.07310170E-04  0.00000000E+00  0.00000000E+00
 -8.81689483E-04  3.10437248E-07  1.27623521E-04 -2.12019236E-03  1.61129209E-03
  1.25544003E-03  6.19479077E-04  0.00000000E+00  1.27449817E-04 -2.12126937E-03
  1.61199421E-03 -1.25588557E-03  6.19802413E-04  0.00000000E+00 -1.27623521E-04
  2.12019236E-03 -1.61129209E-03  1.25544003E-03  6.19479077E-04  0.00000000E+00
 -1.27449817E-04  2.12126937E-03 -1.61199421E-03 -1.25588557E-03  6.19802413E-04
  0.00000000E+00 -7.94922682E-02 -1.28079103E-01 -5.46543569E-06 -4.93635855E-03
  0.00000000E+00  3.40835516E-01 -4.94781028E-06 -1.51482649E-02  0.00000000E+00
  2.24497662E-01 -1.61757635E-06 -4.42195750E-03  0.00000000E+00  2.15550912E-03
 -1.02006733E-06  5.17283392E-03  0.00000000E+00 -9.52908674E-03  0.00000000E+00
  0.00000000E+00 -2.37670315E-03 -8.65646281E-07 -7.94922682E-02 -1.28079103E-01
  5.46543569E-06  4.93635855E-03  0.00000000E+00  3.40835516E-01  4.94781028E-06
  1.51482649E-02  0.00000000E+00  2.24497662E-01  1.61757635E-06  4.42195750E-03
  0.00000000E+00  2.15550912E-03  1.02006733E-06 -5.17283392E-03  0.00000000E+00
 -9.52908674E-03  0.00000000E+00  0.00000000E+00 -2.37670315E-03 -8.65646281E-07
  6.72847444E-02  7.64277189E-02  2.79703406E-03 -1.02099743E-02 -5.05985344E-03
  0.00000000E+00  6.72959010E-02  7.64387450E-02  2.79549812E-03  1.02109768E-02
 -5.06140642E-03  0.00000000E+00  6.72847444E-02  7.64277189E-02  2.79703406E-03
  1.02099743E-02  5.05985344E-03  0.00000000E+00  6.72959010E-02  7.64387450E-02
  2.79549812E-03 -1.02109768E-02  5.06140642E-03  0.00000000E+00 -7.19905998E-02
 -1.16355610E-01 -1.16448449E-05  5.85078863E-02  0.00000000E+00  3.14677381E-01
 -1.31656040E-05  8.54878526E-02  0.00000000E+00  2.25284535E-01 -5.46588470E-06
  4.06043833E-02  0.00000000E+00 -3.44429923E-02 -1.16431881E-07  1.42638133E-02
  0.00000000E+00 -6.05184194E-03  0.00000000E+00  0.00000000E+00  9.67386350E-03
 -1.24325579E-06  7.19905998E-02  1.16355610E-01 -1.16448449E-05  5.85078863E-02
  0.00000000E+00 -3.14677381E-01 -1.31656040E-05  8.54878526E-02  0.00000000E+00
 -2.25284535E-01 -5.46588470E-06  4.06043833E-02  0.00000000E+00  3.44429923E-02
 -1.16431881E-07  1.42638133E-02  0.00000000E+00  6.05184194E-03  0.00000000E+00
  0.00000000E+00 -9.67386350E-03  1.24325579E-06  8.74146646E-02  1.06186686E-01
  1.38520250E-02 -1.24611532E-02 -3.43558492E-03  0.00000000E+00  8.74361092E-02
  1.06208842E-01  1.38537994E-02  1.24633354E-02 -3.43767834E-03  0.00000000E+00
 -8.74146646E-02 -1.06186686E-01 -1.38520250E-02 -1.24611532E-02 -3.43558492E-03
  0.00000000E+00 -8.74361092E-02 -1.06208842E-01 -1.38537994E-02  1.24633354E-02
 -3.43767834E-03  0.00000000E+00 -4.32002481E-06 -7.23522310E-06  1.47138125E-01
  6.95193753E-07  0.00000000E+00  2.08669628E-05  2.07848497E-01  3.69186924E-06
  0.00000000E+00  2.58164843E-05  1.24134653E-01  2.52019196E-06  0.00000000E+00
 -1.77004473E-06  4.75542950E-03  1.67820209E-06  0.00000000E+00 -3.65883251E-07
  0.00000000E+00  0.00000000E+00  1.37538104E-06  6.49654839E-03  4.32002481E-06
  7.23522310E-06  1.47138125E-01  6.95193753E-07  0.00000000E+00 -2.08669628E-05
  2.07848497E-01  3.69186924E-06  0.00000000E+00 -2.58164843E-05  1.24134653E-01
  2.52019196E-06  0.00000000E+00  1.77004473E-06  4.75542950E-03  1.67820209E-06
  0.00000000E+00  3.65883251E-07  0.00000000E+00  0.00000000E+00 -1.37538104E-06
 -6.49654839E-03  1.03647250E-01  1.41420333E-01  3.93988176E-02 -9.26843380E-03
 -7.65982710E-03  0.00000000E+00 -1.03637015E-01 -1.41401338E-01 -3.93934100E-02
 -9.26635408E-03  7.66054690E-03  0.00000000E+00 -1.03647250E-01 -1.41420333E-01
 -3.93988176E-02 -9.26843380E-03 -7.65982710E-03  0.00000000E+00  1.03637015E-01
  1.41401338E-01  3.93934100E-02 -9.26635408E-03  7.66054690E-03  0.00000000E+00
 -3.01878574E-06 -5.17354932E-06  1.49620351E-01 -3.52663805E-05  0.00000000E+00
  1.55064570E-05  2.08012707E-01 -5.11840005E-05  0.00000000E+00  2.28820942E-05
  1.35886391E-01 -3.09498302E-05  0.00000000E+00  1.47237194E-06  1.33176982E-02
 -3.27392704E-07  0.00000000E+00 -3.38256566E-07  0.00000000E+00  0.00000000E+00
 -2.02053428E-06  2.31200911E-02 -3.01878574E-06 -5.17354932E-06 -1.49620351E-01
  3.52663805E-05  0.00000000E+00  1.55064570E-05 -2.08012707E-01  5.11840005E-05
  0.00000000E+00  2.28820942E-05 -1.35886391E-01  3.09498302E-05  0.00000000E+00
  1.47237194E-06 -1.33176982E-02  3.27392704E-07  0.00000000E+00 -3.38256566E-07
  0.00000000E+00  0.00000000E+00 -2.02053428E-06  2.31200911E-02  1.13821472E-01
  1.63542252E-01  5.90598572E-02 -8.35198440E-03 -7.89841512E-03  0.00000000E+00
 -1.13842205E-01 -1.63566620E-01 -5.90684842E-02 -8.35380828E-03  7.89756326E-03
  0.00000000E+00  1.13821472E-01  1.63542252E-01  5.90598572E-02  8.35198440E-03
  7.89841512E-03  0.00000000E+00 -1.13842205E-01 -1.63566620E-01 -5.90684842E-02
  8.35380828E-03 -7.89756326E-03  0.00000000E+00  1.15305357E-02  1.93187200E-02
  2.67936586E-05  1.79025226E-01  0.00000000E+00 -5.70881190E-02  4.01679374E-05
  2.72574224E-01  0.00000000E+00 -6.50386118E-02  2.85514965E-05  1.86750265E-01
  0.00000000E+00  1.26911727E-03  3.56829483E-06  9.23998986E-03  0.00000000E+00
  5.98303615E-04  0.00000000E+00  0.00000000E+00  1.47730037E-02  3.82367781E-06
  1.15305357E-02  1.93187200E-02 -2.67936586E-05 -1.79025226E-01  0.00000000E+00
 -5.70881190E-02 -4.01679374E-05 -2.72574224E-01  0.00000000E+00 -6.50386118E-02
 -2.85514965E-05 -1.86750265E-01  0.00000000E+00  1.26911727E-03 -3.56829483E-06
 -9.23998986E-03  0.00000000E+00  5.98303615E-04  0.00000000E+00  0.00000000E+00
  1.47730037E-02  3.82367781E-06  6.36458238E-02  9.61117241E-02  4.34805780E-02
 -9.14048491E-03  5.57151850E-03  0.00000000E+00  6.36096172E-02  9.60535817E-02
  4.34528069E-02  9.13902341E-03  5.57391905E-03  0.00000000E+00  6.36458238E-02
  9.61117241E-02  4.34805780E-02  9.14048491E-03 -5.57151850E-03  0.00000000E+00
  6.36096172E-02  9.60535817E-02  4.34528069E-02 -9.13902341E-03 -5.57391905E-03
  0.00000000E+00  0.00000000E+00  0.00000000E+00  0.00000000E+00  0.00000000E+00
  1.71008828E-01  0.00000000E+00  0.00000000E+00  0.00000000E+00  2.70844569E-01
  0.00000000E+00  0.00000000E+00  0.00000000E+00  2.83400365E-01  0.00000000E+00
  0.00000000E+00  0.00000000E+00  4.83198150E-02  0.00000000E+00 -2.58509049E-07
 -1.27772840E-02  0.00000000E+00  0.00000000E+00  0.00000000E+00  0.00000000E+00
  0.00000000E+00  0.00000000E+00  1.71008828E-01  0.00000000E+00  0.00000000E+00
  0.00000000E+00  2.70844569E-01  0.00000000E+00  0.00000000E+00  0.00000000E+00
  2.83400365E-01  0.00000000E+00  0.00000000E+00  0.00000000E+00  4.83198150E-02
  0.00000000E+00  2.58509049E-07  1.27772840E-02  0.00000000E+00  0.00000000E+00
  0.00000000E+00  0.00000000E+00  0.00000000E+00  0.00000000E+00  0.00000000E+00
  1.37437621E-02  0.00000000E+00  0.00000000E+00  0.00000000E+00  0.00000000E+00
  0.00000000E+00  1.37448731E-02  0.00000000E+00  0.00000000E+00  0.00000000E+00
  0.00000000E+00  0.00000000E+00  1.37437621E-02  0.00000000E+00  0.00000000E+00
  0.00000000E+00  0.00000000E+00  0.00000000E+00  1.37448731E-02  0.00000000E+00
  0.00000000E+00  0.00000000E+00  0.00000000E+00  1.79588126E-01  0.00000000E+00
  0.00000000E+00  0.00000000E+00  2.76167763E-01  0.00000000E+00  0.00000000E+00
  0.00000000E+00  3.87865849E-01  0.00000000E+00  0.00000000E+00  0.00000000E+00
  3.84581859E-01  0.00000000E+00 -2.30013067E-07  2.12388447E-02  0.00000000E+00
  0.00000000E+00  0.00000000E+00  0.00000000E+00  0.00000000E+00  0.00000000E+00
 -1.79588126E-01  0.00000000E+00  0.00000000E+00  0.00000000E+00 -2.76167763E-01
  0.00000000E+00  0.00000000E+00  0.00000000E+00 -3.87865849E-01  0.00000000E+00
  0.00000000E+00  0.00000000E+00 -3.84581859E-01  0.00000000E+00 -2.30013067E-07
  2.12388447E-02  0.00000000E+00  0.00000000E+00  0.00000000E+00  0.00000000E+00
  0.00000000E+00  0.00000000E+00  0.00000000E+00  1.94929035E-02  0.00000000E+00
  0.00000000E+00  0.00000000E+00  0.00000000E+00  0.00000000E+00  1.94944069E-02
  0.00000000E+00  0.00000000E+00  0.00000000E+00  0.00000000E+00  0.00000000E+00
 -1.94929035E-02  0.00000000E+00  0.00000000E+00  0.00000000E+00  0.00000000E+00
  0.00000000E+00 -1.94944069E-02  2.03788647E-02  3.45014491E-02 -3.13834204E-06
 -3.62111115E-02  0.00000000E+00 -9.32777217E-02  5.52531888E-06 -5.38128597E-02
  0.00000000E+00 -3.58906717E-01 -3.76553528E-05 -1.24402806E-01  0.00000000E+00
  1.18420298E+00 -1.09309082E-04  5.53088736E-01  0.00000000E+00  1.39006313E-02
  0.00000000E+00  0.00000000E+00 -8.46654812E-03  2.71758554E-06  2.03788647E-02
  3.45014491E-02  3.13834204E-06  3.62111115E-02  0.00000000E+00 -9.32777217E-02
 -5.52531888E-06  5.38128597E-02  0.00000000E+00 -3.58906717E-01  3.76553528E-05
  1.24402806E-01  0.00000000E+00  1.18420298E+00  1.09309082E-04 -5.53088736E-01
  0.00000000E+00  1.39006313E-02  0.00000000E+00  0.00000000E+00 -8.46654812E-03
  2.71758554E-06 -1.88490323E-02  8.53714913E-02 -3.45851423E-01  1.61903223E-03
  7.22317450E-04  0.00000000E+00 -1.88511452E-02  8.53880178E-02 -3.45998039E-01
 -1.61581261E-03  7.20868137E-04  0.00000000E+00 -1.88490323E-02  8.53714913E-02
 -3.45851423E-01 -1.61903223E-03 -7.22317450E-04  0.00000000E+00 -1.88511452E-02
  8.53880178E-02 -3.45998039E-01  1.61581261E-03 -7.20868137E-04  0.00000000E+00
 -2.80133401E-02 -4.77716029E-02  1.05981150E-06 -1.46886882E-02  0.00000000E+00
  1.50967867E-01 -3.20020811E-06 -3.18320562E-02  0.00000000E+00  2.26813370E-01
  9.58516692E-06  5.60906713E-02  0.00000000E+00  4.15407215E+00  2.17984511E-05
 -2.29962113E+00  0.00000000E+00  2.34148950E-03  0.00000000E+00  0.00000000E+00
  1.54176114E-02 -1.93487229E-06  2.80133401E-02  4.77716029E-02  1.05981150E-06
 -1.46886882E-02  0.00000000E+00 -1.50967867E-01 -3.20020811E-06 -3.18320562E-02
  0.00000000E+00 -2.26813370E-01  9.58516692E-06  5.60906713E-02  0.00000000E+00
 -4.15407215E+00  2.17984511E-05 -2.29962113E+00  0.00000000E+00 -2.34148950E-03
  0.00000000E+00  0.00000000E+00 -1.54176114E-02  1.93487229E-06  4.64933475E-03
 -5.88423026E-02  1.25980770E-01 -1.31598206E-03 -1.11766512E-02  0.00000000E+00
  4.65163598E-03 -5.88521749E-02  1.26044567E-01  1.31394693E-03 -1.11755683E-02
  0.00000000E+00 -4.64933475E-03  5.88423026E-02 -1.25980770E-01 -1.31598206E-03
 -1.11766512E-02  0.00000000E+00 -4.65163598E-03  5.88521749E-02 -1.26044567E-01
  1.31394693E-03 -1.11755683E-02  0.00000000E+00  1.88158504E-06  2.92254748E-06
 -5.28798023E-02  1.28025245E-06  0.00000000E+00 -4.38843627E-06 -9.18176500E-02
  6.13892620E-06  0.00000000E+00 -3.53587957E-05 -1.65869722E-01 -1.02014603E-05
  0.00000000E+00  1.35301600E-06  8.61502379E-01  7.13415580E-06  0.00000000E+00
 -1.04233691E-06  0.00000000E+00  0.00000000E+00 -7.02269569E-07 -1.46435331E-02
 -1.88158504E-06 -2.92254748E-06 -5.28798023E-02  1.28025245E-06  0.00000000E+00
  4.38843627E-06 -9.18176500E-02  6.13892620E-06  0.00000000E+00  3.53587957E-05
 -1.65869722E-01 -1.02014603E-05  0.00000000E+00 -1.35301600E-06  8.61502379E-01
  7.13415580E-06  0.00000000E+00  1.04233691E-06  0.00000000E+00  0.00000000E+00