 Entering Gaussian System, Link 0=g16
 Initial command:
 /home/szhao/Apps/g16/l1.exe "/home/szhao/tmp/Gau-99258.inp" -scrdir="/home/szhao/tmp/"
 Default is to use a total of  16 processors:
                               16 via shared-memory
                                1 via Linda
 Entering Link 1 = /home/szhao/Apps/g16/l1.exe PID=     99260.
  
 Copyright (c) 1988,1990,1992,1993,1995,1998,2003,2009,2016,
            Gaussian, Inc.  All Rights Reserved.
  
 This is part of the Gaussian(R) 16 program.  It is based on
 the Gaussian(R) 09 system (copyright 2009, Gaussian, Inc.),
 the Gaussian(R) 03 system (copyright 2003, Gaussian, Inc.),
 the Gaussian(R) 98 system (copyright 1998, Gaussian, Inc.),
 the Gaussian(R) 94 system (copyright 1995, Gaussian, Inc.),
 the Gaussian 92(TM) system (copyright 1992, Gaussian, Inc.),
 the Gaussian 90(TM) system (copyright 1990, Gaussian, Inc.),
 the Gaussian 88(TM) system (copyright 1988, Gaussian, Inc.),
 the Gaussian 86(TM) system (copyright 1986, Carnegie Mellon
 University), and the Gaussian 82(TM) system (copyright 1983,
 Carnegie Mellon University). Gaussian is a federally registered
 trademark of Gaussian, Inc.
  
 This software contains proprietary and confidential information,
 including trade secrets, belonging to Gaussian, Inc.
  
 This software is provided under written license and may be
 used, copied, transmitted, or stored only in accord with that
 written license.
  
 The following legend is applicable only to US Government
 contracts under FAR:
  
                    RESTRICTED RIGHTS LEGEND
  
 Use, reproduction and disclosure by the US Government is
 subject to restrictions as set forth in subparagraphs (a)
 and (c) of the Commercial Computer Software - Restricted
 Rights clause in FAR 52.227-19.
  
 Gaussian, Inc.
 340 Quinnipiac St., Bldg. 40, Wallingford CT 06492
  
  
 ---------------------------------------------------------------
 Warning -- This program may not be used in any manner that
 competes with the business of Gaussian, Inc. or will provide
 assistance to any competitor of Gaussian, Inc.  The licensee
 of this program is prohibited from giving any competitor of
 Gaussian, Inc. access to this program.  By using this program,
 the user acknowledges that Gaussian, Inc. is engaged in the
 business of creating and licensing software in the field of
 computational chemistry and represents and warrants to the
 licensee that it is not a competitor of Gaussian, Inc. and that
 it will not use this program in any manner prohibited above.
 ---------------------------------------------------------------
  

 Cite this work as:
 Gaussian 16, Revision A.03,
 M. J. Frisch, G. W. Trucks, H. B. Schlegel, G. E. Scuseria, 
 M. A. Robb, J. R. Cheeseman, G. Scalmani, V. Barone, 
 G. A. Petersson, H. Nakatsuji, X. Li, M. Caricato, A. V. Marenich, 
 J. Bloino, B. G. Janesko, R. Gomperts, B. Mennucci, H. P. Hratchian, 
 J. V. Ortiz, A. F. Izmaylov, J. L. Sonnenberg, D. Williams-Young, 
 F. Ding, F. Lipparini, F. Egidi, J. Goings, B. Peng, A. Petrone, 
 T. Henderson, D. Ranasinghe, V. G. Zakrzewski, J. Gao, N. Rega, 
 G. Zheng, W. Liang, M. Hada, M. Ehara, K. Toyota, R. Fukuda, 
 J. Hasegawa, M. Ishida, T. Nakajima, Y. Honda, O. Kitao, H. Nakai, 
 T. Vreven, K. Throssell, J. A. Montgomery, Jr., J. E. Peralta, 
 F. Ogliaro, M. J. Bearpark, J. J. Heyd, E. N. Brothers, K. N. Kudin, 
 V. N. Staroverov, T. A. Keith, R. Kobayashi, J. Normand, 
 K. Raghavachari, A. P. Rendell, J. C. Burant, S. S. Iyengar, 
 J. Tomasi, M. Cossi, J. M. Millam, M. Klene, C. Adamo, R. Cammi, 
 J. W. Ochterski, R. L. Martin, K. Morokuma, O. Farkas, 
 J. B. Foresman, and D. J. Fox, Gaussian, Inc., Wallingford CT, 2016.
 
 ******************************************
 Gaussian 16:  ES64L-G16RevA.03 25-Dec-2016
                19-Nov-2024 
 ******************************************
 %chk=opt.chk
 %mem=8GB
 %nprocshared=24
 Will use up to   24 processors via shared memory.
 ---------------------------------------
 #p UM062X/6-311+G** force int=superfine
 ---------------------------------------
 1/10=7,30=1,38=1/1,3;
 2/12=2,17=6,18=5,40=1/2;
 3/5=4,6=6,7=111,11=2,25=1,30=1,71=1,74=-55,75=-7,116=2/1,2,3;
 4//1;
 5/5=2,38=5/2;
 6/7=2,8=2,9=2,10=2,28=1/1;
 7/29=1/1,2,3,16;
 1/10=7,30=1/3;
 99//99;
 Leave Link    1 at Tue Nov 19 12:54:08 2024, MaxMem=  1073741824 cpu:               2.2 elap:               0.2
 (Enter /home/szhao/Apps/g16/l101.exe)
 -------------------
 Title Card Required
 -------------------
 Symbolic Z-matrix:
 Charge =  0 Multiplicity = 1
 C                    -1.12241   0.        0. 
 C                     1.12253   0.        0. 
 H                     1.36832  -0.91297   0.52829 
 H                    -1.36819  -0.914    -0.52651 
 H                     1.36831   0.914     0.5265 
 H                     1.36831  -0.00103  -1.0548 
 H                    -1.3682    0.91297  -0.52829 
 H                    -1.3682    0.00103   1.0548 
 
 ITRead=  0  0  0  0  0  0  0  0
 MicOpt= -1 -1 -1 -1 -1 -1 -1 -1
 NAtoms=      8 NQM=        8 NQMF=       0 NMMI=      0 NMMIF=      0
                NMic=       0 NMicF=      0.
                    Isotopes and Nuclear Properties:
 (Nuclear quadrupole moments (NQMom) in fm**2, nuclear magnetic moments (NMagM)
  in nuclear magnetons)

  Atom         1           2           3           4           5           6           7           8
 IAtWgt=          12          12           1           1           1           1           1           1
 AtmWgt=  12.0000000  12.0000000   1.0078250   1.0078250   1.0078250   1.0078250   1.0078250   1.0078250
 NucSpn=           0           0           1           1           1           1           1           1
 AtZEff=  -0.0000000  -0.0000000  -0.0000000  -0.0000000  -0.0000000  -0.0000000  -0.0000000  -0.0000000
 NQMom=    0.0000000   0.0000000   0.0000000   0.0000000   0.0000000   0.0000000   0.0000000   0.0000000
 NMagM=    0.0000000   0.0000000   2.7928460   2.7928460   2.7928460   2.7928460   2.7928460   2.7928460
 AtZNuc=   6.0000000   6.0000000   1.0000000   1.0000000   1.0000000   1.0000000   1.0000000   1.0000000
 Leave Link  101 at Tue Nov 19 12:54:09 2024, MaxMem=  1073741824 cpu:               3.7 elap:               0.2
 (Enter /home/szhao/Apps/g16/l103.exe)

 GradGradGradGradGradGradGradGradGradGradGradGradGradGradGradGradGradGrad
 Berny optimization.
 Initialization pass.
 Trust Radius=3.00D-01 FncErr=1.00D-07 GrdErr=1.00D-07 EigMax=2.50D+02 EigMin=1.00D-04
 Number of steps in this run=      2 maximum allowed number of steps=      2.
 GradGradGradGradGradGradGradGradGradGradGradGradGradGradGradGradGradGrad

 Leave Link  103 at Tue Nov 19 12:54:09 2024, MaxMem=  1073741824 cpu:               1.4 elap:               0.1
 (Enter /home/szhao/Apps/g16/l202.exe)
                          Input orientation:                          
 ---------------------------------------------------------------------
 Center     Atomic      Atomic             Coordinates (Angstroms)
 Number     Number       Type             X           Y           Z
 ---------------------------------------------------------------------
      1          6           0       -1.122414    0.000000    0.000000
      2          6           0        1.122529    0.000000    0.000000
      3          1           0        1.368315   -0.912968    0.528288
      4          1           0       -1.368194   -0.914000   -0.526505
      5          1           0        1.368311    0.914000    0.526504
      6          1           0        1.368313   -0.001028   -1.054798
      7          1           0       -1.368200    0.912968   -0.528289
      8          1           0       -1.368202    0.001027    1.054796
 ---------------------------------------------------------------------
                    Distance matrix (angstroms):
                    1          2          3          4          5
     1  C    0.000000
     2  C    2.244943   0.000000
     3  H    2.704871   1.083056   0.000000
     4  H    1.083056   2.704867   2.932758   0.000000
     5  H    2.704868   1.083056   1.826969   3.455267   0.000000
     6  H    2.704870   1.083056   1.826964   2.932760   1.826963
     7  H    1.083056   2.704872   3.455273   1.826969   2.932760
     8  H    1.083055   2.704873   2.932767   1.826961   2.932766
                    6          7          8
     6  H    0.000000
     7  H    2.932764   0.000000
     8  H    3.455272   1.826963   0.000000
 This structure is nearly, but not quite of a higher symmetry.
 Consider Symm=Loose if the higher symmetry is desired.
 Stoichiometry    C2H6
 Framework group  C1[X(C2H6)]
 Deg. of freedom    18
 Full point group                 C1      NOp   1
 Largest Abelian subgroup         C1      NOp   1
 Largest concise Abelian subgroup C1      NOp   1
                         Standard orientation:                         
 ---------------------------------------------------------------------
 Center     Atomic      Atomic             Coordinates (Angstroms)
 Number     Number       Type             X           Y           Z
 ---------------------------------------------------------------------
      1          6           0       -0.011809   -0.114216    1.116583
      2          6           0        0.011809    0.114217   -1.116583
      3          1           0        0.446494   -0.818462   -1.454473
      4          1           0       -0.631603   -0.989470    1.267573
      5          1           0        0.631602    0.989470   -1.267576
      6          1           0       -1.034916    0.246675   -1.361184
      7          1           0       -0.446494    0.818462    1.454472
      8          1           0        1.034915   -0.246676    1.361188
 ---------------------------------------------------------------------
 Rotational constants (GHZ):          75.1176066          11.2498549          11.2498471
 Leave Link  202 at Tue Nov 19 12:54:09 2024, MaxMem=  1073741824 cpu:               1.3 elap:               0.1
 (Enter /home/szhao/Apps/g16/l301.exe)
 Standard basis: 6-311+G(d,p) (5D, 7F)
 Ernie: Thresh=  0.10000D-02 Tol=  0.10000D-05 Strict=F.
 There are    82 symmetry adapted cartesian basis functions of A   symmetry.
 There are    80 symmetry adapted basis functions of A   symmetry.
    80 basis functions,   120 primitive gaussians,    82 cartesian basis functions
     9 alpha electrons        9 beta electrons
       nuclear repulsion energy        36.3983318833 Hartrees.
 IExCor= 4336 DFT=T Ex+Corr=M062X ExCW=0 ScaHFX=  0.540000
 ScaDFX=  1.000000  1.000000  1.000000  1.000000 ScalE2=  1.000000  1.000000
 IRadAn=      7 IRanWt=     -1 IRanGd=            0 ICorTp=0 IEmpDi=  4
 NAtoms=    8 NActive=    8 NUniq=    8 SFac= 1.00D+00 NAtFMM=   60 NAOKFM=F Big=F
 Integral buffers will be    131072 words long.
 Raffenetti 2 integral format.
 Two-electron integral symmetry is turned on.
 Leave Link  301 at Tue Nov 19 12:54:09 2024, MaxMem=  1073741824 cpu:               1.9 elap:               0.1
 (Enter /home/szhao/Apps/g16/l302.exe)
 NPDir=0 NMtPBC=     1 NCelOv=     1 NCel=       1 NClECP=     1 NCelD=      1
         NCelK=      1 NCelE2=     1 NClLst=     1 CellRange=     0.0.
 One-electron integrals computed using PRISM.
 One-electron integral symmetry used in STVInt
 NBasis=    80 RedAO= T EigKep=  1.06D-03  NBF=    80
 NBsUse=    80 1.00D-06 EigRej= -1.00D+00 NBFU=    80
 Precomputing XC quadrature grid using
 IXCGrd= 4 IRadAn=           7 IRanWt=          -1 IRanGd=           0 AccXCQ= 0.00D+00.
 Generated NRdTot=       0 NPtTot=           0 NUsed=           0 NTot=          32
 NSgBfM=    82    82    82    82    82 MxSgAt=     8 MxSgA2=     8.
 Leave Link  302 at Tue Nov 19 12:54:10 2024, MaxMem=  1073741824 cpu:              12.1 elap:               0.7
 (Enter /home/szhao/Apps/g16/l303.exe)
 DipDrv:  MaxL=1.
 Leave Link  303 at Tue Nov 19 12:54:11 2024, MaxMem=  1073741824 cpu:               5.5 elap:               0.3
 (Enter /home/szhao/Apps/g16/l401.exe)
 ExpMin= 4.38D-02 ExpMax= 4.56D+03 ExpMxC= 6.82D+02 IAcc=3 IRadAn=         7 AccDes= 0.00D+00
 Harris functional with IExCor= 1009 and IRadAn=       7 diagonalized for initial guess.
 HarFok:  IExCor= 1009 AccDes= 0.00D+00 IRadAn=         7 IDoV= 1 UseB2=F ITyADJ=14
 ICtDFT=  3500011 ScaDFX=  1.000000  1.000000  1.000000  1.000000
 FoFCou: FMM=F IPFlag=           0 FMFlag=      100000 FMFlg1=           0
         NFxFlg=           0 DoJE=T BraDBF=F KetDBF=T FulRan=T
         wScrn=  0.000000 ICntrl=       500 IOpCl=  0 I1Cent=   200000004 NGrid=           0
         NMat0=    1 NMatS0=      1 NMatT0=    0 NMatD0=    1 NMtDS0=    0 NMtDT0=    0
 Petite list used in FoFCou.
 Harris En= -79.7274758443199    
 JPrj=0 DoOrth=F DoCkMO=F.
 Initial guess <Sx>= 0.0000 <Sy>= 0.0000 <Sz>= 0.0000 <S**2>=-0.0000 S=-0.0000
 Leave Link  401 at Tue Nov 19 12:54:12 2024, MaxMem=  1073741824 cpu:              18.3 elap:               1.2
 (Enter /home/szhao/Apps/g16/l502.exe)
 Keep R1 and R2 ints in memory in canonical form, NReq=32326988.
 FoFCou: FMM=F IPFlag=           0 FMFlag=           0 FMFlg1=           0
         NFxFlg=           0 DoJE=F BraDBF=F KetDBF=F FulRan=T
         wScrn=  0.000000 ICntrl=       600 IOpCl=  0 I1Cent=           0 NGrid=           0
         NMat0=    1 NMatS0=   3240 NMatT0=    0 NMatD0=    1 NMtDS0=    0 NMtDT0=    0
 Symmetry not used in FoFCou.
 Two-electron integral symmetry not used.
 UHF open shell SCF:
 Using DIIS extrapolation, IDIIS=  1040.
 NGot=  1073741824 LenX=  1063224556 LenY=  1063217391
 Requested convergence on RMS density matrix=1.00D-08 within 128 cycles.
 Requested convergence on MAX density matrix=1.00D-06.
 Requested convergence on             energy=1.00D-06.
 No special actions if energy rises.

 Cycle   1  Pass 1  IDiag  1:
 E= -79.6160838519588    
 DIIS: error= 4.71D-02 at cycle   1 NSaved=   1.
 NSaved= 1 IEnMin= 1 EnMin= -79.6160838519588     IErMin= 1 ErrMin= 4.71D-02
 ErrMax= 4.71D-02  0.00D+00 EMaxC= 1.00D-01 BMatC= 3.76D-01 BMatP= 3.76D-01
 IDIUse=3 WtCom= 5.29D-01 WtEn= 4.71D-01
 Coeff-Com:  0.100D+01
 Coeff-En:   0.100D+01
 Coeff:      0.100D+01
 Gap=     0.345 Goal=   None    Shift=    0.000
 Gap=     0.345 Goal=   None    Shift=    0.000
 GapD=    0.345 DampG=1.000 DampE=0.500 DampFc=0.5000 IDamp=-1.
 Damping current iteration by 5.00D-01
 RMSDP=3.94D-03 MaxDP=9.35D-02              OVMax= 1.48D-01

 Cycle   2  Pass 1  IDiag  1:
 E= -79.6653949698319     Delta-E=       -0.049311117873 Rises=F Damp=T
 DIIS: error= 1.01D-02 at cycle   2 NSaved=   2.
 NSaved= 2 IEnMin= 2 EnMin= -79.6653949698319     IErMin= 2 ErrMin= 1.01D-02
 ErrMax= 1.01D-02  0.00D+00 EMaxC= 1.00D-01 BMatC= 1.86D-02 BMatP= 3.76D-01
 IDIUse=3 WtCom= 8.99D-01 WtEn= 1.01D-01
 Coeff-Com: -0.146D+00 0.115D+01
 Coeff-En:   0.000D+00 0.100D+01
 Coeff:     -0.132D+00 0.113D+01
 Gap=     0.329 Goal=   None    Shift=    0.000
 Gap=     0.329 Goal=   None    Shift=    0.000
 RMSDP=7.98D-04 MaxDP=8.97D-03 DE=-4.93D-02 OVMax= 6.98D-02

 Cycle   3  Pass 1  IDiag  1:
 E= -79.7082469627771     Delta-E=       -0.042851992945 Rises=F Damp=F
 DIIS: error= 1.68D-03 at cycle   3 NSaved=   3.
 NSaved= 3 IEnMin= 3 EnMin= -79.7082469627771     IErMin= 3 ErrMin= 1.68D-03
 ErrMax= 1.68D-03  0.00D+00 EMaxC= 1.00D-01 BMatC= 4.27D-04 BMatP= 1.86D-02
 IDIUse=3 WtCom= 9.83D-01 WtEn= 1.68D-02
 Coeff-Com: -0.279D-01 0.116D+00 0.912D+00
 Coeff-En:   0.000D+00 0.000D+00 0.100D+01
 Coeff:     -0.274D-01 0.114D+00 0.914D+00
 Gap=     0.308 Goal=   None    Shift=    0.000
 Gap=     0.308 Goal=   None    Shift=    0.000
 RMSDP=1.18D-04 MaxDP=1.60D-03 DE=-4.29D-02 OVMax= 4.33D-03

 Cycle   4  Pass 1  IDiag  1:
 E= -79.7083510075565     Delta-E=       -0.000104044779 Rises=F Damp=F
 DIIS: error= 6.12D-04 at cycle   4 NSaved=   4.
 NSaved= 4 IEnMin= 4 EnMin= -79.7083510075565     IErMin= 4 ErrMin= 6.12D-04
 ErrMax= 6.12D-04  0.00D+00 EMaxC= 1.00D-01 BMatC= 3.28D-05 BMatP= 4.27D-04
 IDIUse=3 WtCom= 9.94D-01 WtEn= 6.12D-03
 Coeff-Com: -0.192D-02 0.530D-02 0.225D+00 0.771D+00
 Coeff-En:   0.000D+00 0.000D+00 0.000D+00 0.100D+01
 Coeff:     -0.191D-02 0.526D-02 0.224D+00 0.773D+00
 Gap=     0.309 Goal=   None    Shift=    0.000
 Gap=     0.309 Goal=   None    Shift=    0.000
 RMSDP=2.78D-05 MaxDP=4.38D-04 DE=-1.04D-04 OVMax= 1.16D-03

 Cycle   5  Pass 1  IDiag  1:
 E= -79.7083589265125     Delta-E=       -0.000007918956 Rises=F Damp=F
 DIIS: error= 2.86D-05 at cycle   5 NSaved=   5.
 NSaved= 5 IEnMin= 5 EnMin= -79.7083589265125     IErMin= 5 ErrMin= 2.86D-05
 ErrMax= 2.86D-05  0.00D+00 EMaxC= 1.00D-01 BMatC= 1.20D-07 BMatP= 3.28D-05
 IDIUse=1 WtCom= 1.00D+00 WtEn= 0.00D+00
 Coeff-Com:  0.923D-03-0.225D-02-0.198D-01-0.346D-01 0.106D+01
 Coeff:      0.923D-03-0.225D-02-0.198D-01-0.346D-01 0.106D+01
 Gap=     0.309 Goal=   None    Shift=    0.000
 Gap=     0.309 Goal=   None    Shift=    0.000
 RMSDP=3.71D-06 MaxDP=4.83D-05 DE=-7.92D-06 OVMax= 1.10D-04

 Cycle   6  Pass 1  IDiag  1:
 E= -79.7083589720036     Delta-E=       -0.000000045491 Rises=F Damp=F
 DIIS: error= 2.16D-06 at cycle   6 NSaved=   6.
 NSaved= 6 IEnMin= 6 EnMin= -79.7083589720036     IErMin= 6 ErrMin= 2.16D-06
 ErrMax= 2.16D-06  0.00D+00 EMaxC= 1.00D-01 BMatC= 8.03D-10 BMatP= 1.20D-07
 IDIUse=1 WtCom= 1.00D+00 WtEn= 0.00D+00
 Coeff-Com: -0.125D-03 0.260D-03 0.834D-03-0.992D-03-0.151D+00 0.115D+01
 Coeff:     -0.125D-03 0.260D-03 0.834D-03-0.992D-03-0.151D+00 0.115D+01
 Gap=     0.309 Goal=   None    Shift=    0.000
 Gap=     0.309 Goal=   None    Shift=    0.000
 RMSDP=6.38D-07 MaxDP=7.95D-06 DE=-4.55D-08 OVMax= 2.39D-05

 Cycle   7  Pass 1  IDiag  1:
 E= -79.7083589727645     Delta-E=       -0.000000000761 Rises=F Damp=F
 DIIS: error= 3.46D-07 at cycle   7 NSaved=   7.
 NSaved= 7 IEnMin= 7 EnMin= -79.7083589727645     IErMin= 7 ErrMin= 3.46D-07
 ErrMax= 3.46D-07  0.00D+00 EMaxC= 1.00D-01 BMatC= 1.26D-11 BMatP= 8.03D-10
 IDIUse=1 WtCom= 1.00D+00 WtEn= 0.00D+00
 Coeff-Com:  0.872D-05-0.138D-04 0.407D-04 0.648D-03 0.135D-01-0.168D+00
 Coeff-Com:  0.115D+01
 Coeff:      0.872D-05-0.138D-04 0.407D-04 0.648D-03 0.135D-01-0.168D+00
 Coeff:      0.115D+01
 Gap=     0.309 Goal=   None    Shift=    0.000
 Gap=     0.309 Goal=   None    Shift=    0.000
 RMSDP=6.78D-08 MaxDP=8.16D-07 DE=-7.61D-10 OVMax= 3.53D-06

 Cycle   8  Pass 1  IDiag  1:
 E= -79.7083589727741     Delta-E=       -0.000000000010 Rises=F Damp=F
 DIIS: error= 2.44D-07 at cycle   8 NSaved=   8.
 NSaved= 8 IEnMin= 8 EnMin= -79.7083589727741     IErMin= 8 ErrMin= 2.44D-07
 ErrMax= 2.44D-07  0.00D+00 EMaxC= 1.00D-01 BMatC= 5.53D-12 BMatP= 1.26D-11
 IDIUse=1 WtCom= 1.00D+00 WtEn= 0.00D+00
 Coeff-Com:  0.694D-05-0.122D-04 0.571D-05 0.373D-03 0.946D-02-0.107D+00
 Coeff-Com:  0.585D+00 0.513D+00
 Coeff:      0.694D-05-0.122D-04 0.571D-05 0.373D-03 0.946D-02-0.107D+00
 Coeff:      0.585D+00 0.513D+00
 Gap=     0.309 Goal=   None    Shift=    0.000
 Gap=     0.309 Goal=   None    Shift=    0.000
 RMSDP=1.17D-08 MaxDP=2.01D-07 DE=-9.63D-12 OVMax= 9.26D-07

 Cycle   9  Pass 1  IDiag  1:
 E= -79.7083589727758     Delta-E=       -0.000000000002 Rises=F Damp=F
 DIIS: error= 6.94D-08 at cycle   9 NSaved=   9.
 NSaved= 9 IEnMin= 9 EnMin= -79.7083589727758     IErMin= 9 ErrMin= 6.94D-08
 ErrMax= 6.94D-08  0.00D+00 EMaxC= 1.00D-01 BMatC= 5.06D-13 BMatP= 5.53D-12
 IDIUse=1 WtCom= 1.00D+00 WtEn= 0.00D+00
 Coeff-Com:  0.351D-06-0.876D-06-0.494D-05 0.675D-05-0.269D-03 0.290D-02
 Coeff-Com: -0.595D-01 0.207D+00 0.850D+00
 Coeff:      0.351D-06-0.876D-06-0.494D-05 0.675D-05-0.269D-03 0.290D-02
 Coeff:     -0.595D-01 0.207D+00 0.850D+00
 Gap=     0.309 Goal=   None    Shift=    0.000
 Gap=     0.309 Goal=   None    Shift=    0.000
 RMSDP=5.28D-09 MaxDP=6.27D-08 DE=-1.68D-12 OVMax= 3.30D-07

 SCF Done:  E(UM062X) =  -79.7083589728     A.U. after    9 cycles
            NFock=  9  Conv=0.53D-08     -V/T= 2.0088
 <Sx>= 0.0000 <Sy>= 0.0000 <Sz>= 0.0000 <S**2>=-0.0000 S=-0.0000
 <L.S>=  0.00000000000    
 KE= 7.900984398540D+01 PE=-2.565336071837D+02 EE= 6.141707234215D+01
 Annihilation of the first spin contaminant:
 S**2 before annihilation    -0.0000,   after     0.0000
 Leave Link  502 at Tue Nov 19 12:54:19 2024, MaxMem=  1073741824 cpu:             135.8 elap:               7.0
 (Enter /home/szhao/Apps/g16/l601.exe)
 Copying SCF densities to generalized density rwf, IOpCl= 1 IROHF=0.

 **********************************************************************

            Population analysis using the SCF density.

 **********************************************************************

 Orbital symmetries:
 Alpha Orbitals:
       Occupied  (A) (A) (A) (A) (A) (A) (A) (A) (A)
       Virtual   (A) (A) (A) (A) (A) (A) (A) (A) (A) (A) (A) (A)
                 (A) (A) (A) (A) (A) (A) (A) (A) (A) (A) (A) (A)
                 (A) (A) (A) (A) (A) (A) (A) (A) (A) (A) (A) (A)
                 (A) (A) (A) (A) (A) (A) (A) (A) (A) (A) (A) (A)
                 (A) (A) (A) (A) (A) (A) (A) (A) (A) (A) (A) (A)
                 (A) (A) (A) (A) (A) (A) (A) (A) (A) (A) (A)
 Beta  Orbitals:
       Occupied  (A) (A) (A) (A) (A) (A) (A) (A) (A)
       Virtual   (A) (A) (A) (A) (A) (A) (A) (A) (A) (A) (A) (A)
                 (A) (A) (A) (A) (A) (A) (A) (A) (A) (A) (A) (A)
                 (A) (A) (A) (A) (A) (A) (A) (A) (A) (A) (A) (A)
                 (A) (A) (A) (A) (A) (A) (A) (A) (A) (A) (A) (A)
                 (A) (A) (A) (A) (A) (A) (A) (A) (A) (A) (A) (A)
                 (A) (A) (A) (A) (A) (A) (A) (A) (A) (A) (A)
 The electronic state is 1-A.
 Alpha  occ. eigenvalues --  -10.55251 -10.55244  -0.77994  -0.73490  -0.48265
 Alpha  occ. eigenvalues --   -0.48264  -0.45520  -0.45520  -0.30314
 Alpha virt. eigenvalues --    0.00570   0.02439   0.05586   0.05586   0.08157
 Alpha virt. eigenvalues --    0.08356   0.08356   0.09827   0.13242   0.18164
 Alpha virt. eigenvalues --    0.18164   0.22101   0.22102   0.24359   0.26531
 Alpha virt. eigenvalues --    0.40725   0.40725   0.49208   0.49208   0.49422
 Alpha virt. eigenvalues --    0.51904   0.64674   0.64674   0.69092   0.69092
 Alpha virt. eigenvalues --    0.70762   0.77651   0.87142   0.95637   1.06548
 Alpha virt. eigenvalues --    1.06548   1.18070   1.18070   1.36298   1.47784
 Alpha virt. eigenvalues --    1.47844   1.54846   1.54846   1.58724   1.58724
 Alpha virt. eigenvalues --    1.72521   1.77235   1.77235   1.83150   1.83151
 Alpha virt. eigenvalues --    1.89433   1.94397   2.12462   2.12462   2.21197
 Alpha virt. eigenvalues --    2.21197   2.40869   2.48620   2.48620   2.54902
 Alpha virt. eigenvalues --    2.55156   2.55157   2.63836   2.63836   2.63989
 Alpha virt. eigenvalues --    2.63989   2.74416   2.89394   2.92435   3.06348
 Alpha virt. eigenvalues --    3.74670   3.74670   3.79817   3.79817  23.98975
 Alpha virt. eigenvalues --   23.99735
  Beta  occ. eigenvalues --  -10.55251 -10.55244  -0.77994  -0.73490  -0.48265
  Beta  occ. eigenvalues --   -0.48264  -0.45520  -0.45520  -0.30314
  Beta virt. eigenvalues --    0.00570   0.02439   0.05586   0.05586   0.08157
  Beta virt. eigenvalues --    0.08356   0.08356   0.09827   0.13242   0.18164
  Beta virt. eigenvalues --    0.18164   0.22101   0.22102   0.24359   0.26531
  Beta virt. eigenvalues --    0.40725   0.40725   0.49208   0.49208   0.49422
  Beta virt. eigenvalues --    0.51904   0.64674   0.64674   0.69092   0.69092
  Beta virt. eigenvalues --    0.70762   0.77651   0.87142   0.95637   1.06548
  Beta virt. eigenvalues --    1.06548   1.18070   1.18070   1.36298   1.47784
  Beta virt. eigenvalues --    1.47844   1.54846   1.54846   1.58724   1.58724
  Beta virt. eigenvalues --    1.72521   1.77235   1.77235   1.83150   1.83151
  Beta virt. eigenvalues --    1.89433   1.94397   2.12462   2.12462   2.21197
  Beta virt. eigenvalues --    2.21197   2.40869   2.48620   2.48620   2.54902
  Beta virt. eigenvalues --    2.55156   2.55157   2.63836   2.63836   2.63989
  Beta virt. eigenvalues --    2.63989   2.74416   2.89394   2.92435   3.06348
  Beta virt. eigenvalues --    3.74670   3.74670   3.79817   3.79817  23.98975
  Beta virt. eigenvalues --   23.99735
          Condensed to atoms (all electrons):
               1          2          3          4          5          6
     1  C    5.137946   0.232680  -0.019311   0.397482  -0.019311  -0.019311
     2  C    0.232680   5.137946   0.397482  -0.019311   0.397482   0.397482
     3  H   -0.019311   0.397482   0.505639  -0.000623  -0.026194  -0.026195
     4  H    0.397482  -0.019311  -0.000623   0.505639   0.001446  -0.000623
     5  H   -0.019311   0.397482  -0.026194   0.001446   0.505639  -0.026195
     6  H   -0.019311   0.397482  -0.026195  -0.000623  -0.026195   0.505639
     7  H    0.397482  -0.019311   0.001446  -0.026194  -0.000623  -0.000623
     8  H    0.397482  -0.019310  -0.000623  -0.026195  -0.000623   0.001446
               7          8
     1  C    0.397482   0.397482
     2  C   -0.019311  -0.019310
     3  H    0.001446  -0.000623
     4  H   -0.026194  -0.026195
     5  H   -0.000623  -0.000623
     6  H   -0.000623   0.001446
     7  H    0.505639  -0.026195
     8  H   -0.026195   0.505639
          Atomic-Atomic Spin Densities.
               1          2          3          4          5          6
     1  C   -0.000000   0.000000  -0.000000  -0.000000  -0.000000  -0.000000
     2  C    0.000000   0.000000   0.000000   0.000000  -0.000000  -0.000000
     3  H   -0.000000   0.000000  -0.000000  -0.000000   0.000000  -0.000000
     4  H   -0.000000   0.000000  -0.000000  -0.000000  -0.000000  -0.000000
     5  H   -0.000000  -0.000000   0.000000  -0.000000  -0.000000  -0.000000
     6  H   -0.000000  -0.000000  -0.000000  -0.000000  -0.000000   0.000000
     7  H   -0.000000   0.000000   0.000000   0.000000  -0.000000  -0.000000
     8  H   -0.000000   0.000000  -0.000000   0.000000  -0.000000   0.000000
               7          8
     1  C   -0.000000  -0.000000
     2  C    0.000000   0.000000
     3  H    0.000000  -0.000000
     4  H    0.000000   0.000000
     5  H   -0.000000  -0.000000
     6  H   -0.000000   0.000000
     7  H    0.000000   0.000000
     8  H    0.000000  -0.000000
 Mulliken charges and spin densities:
               1          2
     1  C   -0.505139  -0.000000
     2  C   -0.505139   0.000000
     3  H    0.168380  -0.000000
     4  H    0.168380   0.000000
     5  H    0.168380  -0.000000
     6  H    0.168380  -0.000000
     7  H    0.168380   0.000000
     8  H    0.168380   0.000000
 Sum of Mulliken charges =  -0.00000  -0.00000
 Mulliken charges and spin densities with hydrogens summed into heavy atoms:
               1          2
     1  C   -0.000000  -0.000000
     2  C    0.000000   0.000000
 Electronic spatial extent (au):  <R**2>=            151.5608
 Charge=             -0.0000 electrons
 Dipole moment (field-independent basis, Debye):
    X=             -0.0000    Y=             -0.0000    Z=             -0.0000  Tot=              0.0000
 Quadrupole moment (field-independent basis, Debye-Ang):
   XX=            -14.8329   YY=            -14.8402   ZZ=            -15.5428
   XY=             -0.0008   XZ=              0.0075   YZ=              0.0726
 Traceless Quadrupole moment (field-independent basis, Debye-Ang):
   XX=              0.2391   YY=              0.2318   ZZ=             -0.4709
   XY=             -0.0008   XZ=              0.0075   YZ=              0.0726
 Octapole moment (field-independent basis, Debye-Ang**2):
  XXX=             -0.0000  YYY=             -0.0000  ZZZ=              0.0000  XYY=              0.0000
  XXY=             -0.0000  XXZ=              0.0000  XZZ=              0.0000  YZZ=              0.0000
  YYZ=             -0.0000  XYZ=             -0.0000
 Hexadecapole moment (field-independent basis, Debye-Ang**3):
 XXXX=            -30.2407 YYYY=            -31.5914 ZZZZ=           -163.6604 XXXY=             -0.2745
 XXXZ=              2.9113 YYYX=              0.6370 YYYZ=              6.4137 ZZZX=              0.7491
 ZZZY=              7.9879 XXYY=            -10.0414 XXZZ=            -28.6527 YYZZ=            -28.8783
 XXYZ=              1.1748 YYXZ=             -2.0499 ZZXY=             -0.5272
 N-N= 3.639833188334D+01 E-N=-2.565336076230D+02  KE= 7.900984398540D+01
                          Isotropic Fermi Contact Couplings
        Atom                 a.u.       MegaHertz       Gauss      10(-4) cm-1
     1  C(13)             -0.00000      -0.00000      -0.00000      -0.00000
     2  C(13)             -0.00000      -0.00000      -0.00000      -0.00000
     3  H(1)              -0.00000      -0.00000      -0.00000      -0.00000
     4  H(1)               0.00000       0.00000       0.00000       0.00000
     5  H(1)               0.00000       0.00000       0.00000       0.00000
     6  H(1)               0.00000       0.00000       0.00000       0.00000
     7  H(1)              -0.00000      -0.00000      -0.00000      -0.00000
     8  H(1)              -0.00000      -0.00000      -0.00000      -0.00000
 --------------------------------------------------------
       Center         ----  Spin Dipole Couplings  ----
                      3XX-RR        3YY-RR        3ZZ-RR
 --------------------------------------------------------
     1   Atom        0.000000      0.000000      0.000000
     2   Atom        0.000000      0.000000      0.000000
     3   Atom        0.000000      0.000000      0.000000
     4   Atom        0.000000      0.000000      0.000000
     5   Atom        0.000000      0.000000      0.000000
     6   Atom        0.000000      0.000000      0.000000
     7   Atom        0.000000      0.000000      0.000000
     8   Atom        0.000000      0.000000      0.000000
 --------------------------------------------------------
                        XY            XZ            YZ
 --------------------------------------------------------
     1   Atom        0.000000      0.000000      0.000000
     2   Atom        0.000000      0.000000      0.000000
     3   Atom        0.000000      0.000000      0.000000
     4   Atom        0.000000      0.000000      0.000000
     5   Atom        0.000000      0.000000      0.000000
     6   Atom        0.000000      0.000000      0.000000
     7   Atom        0.000000      0.000000      0.000000
     8   Atom        0.000000      0.000000      0.000000
 --------------------------------------------------------


 ---------------------------------------------------------------------------------
              Anisotropic Spin Dipole Couplings in Principal Axis System
 ---------------------------------------------------------------------------------

       Atom             a.u.   MegaHertz   Gauss  10(-4) cm-1        Axes

              Baa     0.0000     0.000     0.000     0.000  1.0000  0.0000  0.0000
     1 C(13)  Bbb     0.0000     0.000     0.000     0.000 -0.0000  1.0000  0.0000
              Bcc     0.0000     0.000     0.000     0.000  0.0000  0.0000  1.0000
 
              Baa     0.0000     0.000     0.000     0.000  1.0000  0.0000  0.0000
     2 C(13)  Bbb     0.0000     0.000     0.000     0.000 -0.0000  1.0000  0.0000
              Bcc     0.0000     0.000     0.000     0.000  0.0000  0.0000  1.0000
 
              Baa     0.0000     0.000     0.000     0.000  1.0000  0.0000  0.0000
     3 H(1)   Bbb     0.0000     0.000     0.000     0.000 -0.0000  1.0000  0.0000
              Bcc     0.0000     0.000     0.000     0.000  0.0000  0.0000  1.0000
 
              Baa     0.0000     0.000     0.000     0.000  1.0000  0.0000  0.0000
     4 H(1)   Bbb     0.0000     0.000     0.000     0.000 -0.0000  1.0000  0.0000
              Bcc     0.0000     0.000     0.000     0.000  0.0000  0.0000  1.0000
 
              Baa     0.0000     0.000     0.000     0.000  1.0000  0.0000  0.0000
     5 H(1)   Bbb     0.0000     0.000     0.000     0.000 -0.0000  1.0000  0.0000
              Bcc     0.0000     0.000     0.000     0.000  0.0000  0.0000  1.0000
 
              Baa     0.0000     0.000     0.000     0.000  1.0000  0.0000  0.0000
     6 H(1)   Bbb     0.0000     0.000     0.000     0.000 -0.0000  1.0000  0.0000
              Bcc     0.0000     0.000     0.000     0.000  0.0000  0.0000  1.0000
 
              Baa     0.0000     0.000     0.000     0.000  1.0000  0.0000  0.0000
     7 H(1)   Bbb     0.0000     0.000     0.000     0.000 -0.0000  1.0000  0.0000
              Bcc     0.0000     0.000     0.000     0.000  0.0000  0.0000  1.0000
 
              Baa     0.0000     0.000     0.000     0.000  1.0000  0.0000  0.0000
     8 H(1)   Bbb     0.0000     0.000     0.000     0.000 -0.0000  1.0000  0.0000
              Bcc     0.0000     0.000     0.000     0.000  0.0000  0.0000  1.0000
 

 ---------------------------------------------------------------------------------

 No NMR shielding tensors so no spin-rotation constants.
 Leave Link  601 at Tue Nov 19 12:54:20 2024, MaxMem=  1073741824 cpu:              13.2 elap:               0.8
 (Enter /home/szhao/Apps/g16/l701.exe)
 ... and contract with generalized density number  0.
 Compute integral first derivatives.
 Leave Link  701 at Tue Nov 19 12:54:21 2024, MaxMem=  1073741824 cpu:              14.2 elap:               0.9
 (Enter /home/szhao/Apps/g16/l702.exe)
 L702 exits ... SP integral derivatives will be done elsewhere.
 Leave Link  702 at Tue Nov 19 12:54:21 2024, MaxMem=  1073741824 cpu:               1.9 elap:               0.1
 (Enter /home/szhao/Apps/g16/l703.exe)
 Integral derivatives from FoFJK, PRISM(SPDF).
 Compute integral first derivatives, UseDBF=F ICtDFT=           0.
 Calling FoFJK, ICntrl=      2127 FMM=F ISym2X=0 I1Cent= 0 IOpClX= 1 NMat=1 NMatS=1 NMatT=0.
 FoFJK:  IHMeth= 1 ICntrl=    2127 DoSepK=F KAlg= 0 I1Cent=           0 FoldK=F
 IRaf=         0 NMat=       1 IRICut=       1 DoRegI=T DoRafI=F ISym2E= 0 IDoP0=0 IntGTp=1.
 FoFCou: FMM=F IPFlag=           0 FMFlag=      100000 FMFlg1=         800
         NFxFlg=           0 DoJE=F BraDBF=F KetDBF=F FulRan=T
         wScrn=  0.000000 ICntrl=      2127 IOpCl=  1 I1Cent=           0 NGrid=           0
         NMat0=    1 NMatS0=      1 NMatT0=    0 NMatD0=    1 NMtDS0=    0 NMtDT0=    0
 Symmetry not used in FoFCou.
 Leave Link  703 at Tue Nov 19 12:54:23 2024, MaxMem=  1073741824 cpu:              27.4 elap:               1.6
 (Enter /home/szhao/Apps/g16/l716.exe)
 Dipole        =-4.92558619D-07-2.52621343D-07-1.06438724D-07
 ***** Axes restored to original set *****
 -------------------------------------------------------------------
 Center     Atomic                   Forces (Hartrees/Bohr)
 Number     Number              X              Y              Z
 -------------------------------------------------------------------
      1        6           0.073769038    0.000000202    0.000000354
      2        6          -0.073769098   -0.000000013   -0.000001248
      3        1          -0.000003432    0.000002840   -0.000000304
      4        1           0.000002203    0.000002330    0.000002551
      5        1          -0.000002218   -0.000002318   -0.000002581
      6        1          -0.000001520   -0.000000286    0.000004390
      7        1           0.000003524   -0.000003101    0.000000483
      8        1           0.000001504    0.000000345   -0.000003645
 -------------------------------------------------------------------
 Cartesian Forces:  Max     0.073769098 RMS     0.021295296
 Z-matrix is all fixed cartesians, so copy forces.
 Force constants in Cartesian coordinates: 
                1             2             3             4             5 
      1  0.133683D+00
      2 -0.173536D-05  0.640834D+00
      3 -0.227227D-05  0.000000D+00  0.640832D+00
      4  0.000000D+00  0.000000D+00  0.000000D+00  0.133683D+00
      5  0.000000D+00  0.000000D+00  0.000000D+00 -0.132619D-05  0.640835D+00
      6  0.000000D+00  0.000000D+00  0.000000D+00  0.000000D+00  0.000000D+00
      7  0.000000D+00  0.000000D+00  0.000000D+00 -0.445614D-01  0.861641D-01
      8  0.000000D+00  0.000000D+00  0.000000D+00  0.628683D-01 -0.273144D+00
      9  0.000000D+00  0.000000D+00  0.000000D+00 -0.363788D-01  0.103579D+00
     10 -0.445603D-01 -0.862597D-01 -0.496897D-01  0.000000D+00  0.000000D+00
     11 -0.629375D-01 -0.273548D+00 -0.103346D+00  0.000000D+00  0.000000D+00
     12 -0.362550D-01 -0.103345D+00 -0.153674D+00  0.000000D+00  0.000000D+00
     13  0.000000D+00  0.000000D+00  0.000000D+00 -0.445606D-01 -0.862601D-01
     14  0.000000D+00  0.000000D+00  0.000000D+00 -0.629380D-01 -0.273548D+00
     15  0.000000D+00  0.000000D+00  0.000000D+00 -0.362554D-01 -0.103345D+00
     16  0.000000D+00  0.000000D+00  0.000000D+00 -0.445608D-01  0.972716D-04
     17  0.000000D+00  0.000000D+00  0.000000D+00  0.710182D-04 -0.941426D-01
     18  0.000000D+00  0.000000D+00  0.000000D+00  0.726344D-01 -0.232808D-03
     19 -0.445614D-01  0.861641D-01 -0.498587D-01  0.000000D+00  0.000000D+00
     20  0.628682D-01 -0.273143D+00  0.103579D+00  0.000000D+00  0.000000D+00
     21 -0.363785D-01  0.103579D+00 -0.154078D+00  0.000000D+00  0.000000D+00
     22 -0.445616D-01  0.972823D-04  0.995507D-01  0.000000D+00  0.000000D+00
     23  0.710392D-04 -0.941427D-01 -0.232401D-03  0.000000D+00  0.000000D+00
     24  0.726358D-01 -0.232558D-03 -0.333080D+00  0.000000D+00  0.000000D+00
                6             7             8             9            10 
      6  0.640832D+00
      7 -0.498589D-01  0.303183D-01
      8  0.103579D+00 -0.657409D-01  0.270246D+00
      9 -0.154078D+00  0.380410D-01 -0.118089D+00  0.134501D+00
     10  0.000000D+00  0.000000D+00  0.000000D+00  0.000000D+00  0.303174D-01
     11  0.000000D+00  0.000000D+00  0.000000D+00  0.000000D+00  0.658133D-01
     12  0.000000D+00  0.000000D+00  0.000000D+00  0.000000D+00  0.379115D-01
     13 -0.496900D-01  0.712156D-02  0.777960D-02  0.101311D-01  0.000000D+00
     14 -0.103345D+00 -0.775971D-02 -0.111168D-01 -0.156014D-01  0.000000D+00
     15 -0.153674D+00  0.101462D-01  0.156669D-01  0.223544D-01  0.000000D+00
     16  0.995492D-01  0.712152D-02 -0.490695D-02 -0.117933D-01  0.000000D+00
     17 -0.232713D-03 -0.126635D-01  0.140147D-01  0.301114D-01  0.000000D+00
     18 -0.333080D+00  0.167176D-02 -0.115705D-02 -0.277736D-02  0.000000D+00
     19  0.000000D+00  0.000000D+00  0.000000D+00  0.000000D+00  0.712149D-02
     20  0.000000D+00  0.000000D+00  0.000000D+00  0.000000D+00  0.777958D-02
     21  0.000000D+00  0.000000D+00  0.000000D+00  0.000000D+00  0.101311D-01
     22  0.000000D+00  0.000000D+00  0.000000D+00  0.000000D+00  0.712142D-02
     23  0.000000D+00  0.000000D+00  0.000000D+00  0.000000D+00  0.126668D-01
     24  0.000000D+00  0.000000D+00  0.000000D+00  0.000000D+00  0.164710D-02
               11            12            13            14            15 
     11  0.270707D+00
     12  0.117823D+00  0.134040D+00
     13  0.000000D+00  0.000000D+00  0.303176D-01
     14  0.000000D+00  0.000000D+00  0.658138D-01  0.270707D+00
     15  0.000000D+00  0.000000D+00  0.379119D-01  0.117822D+00  0.134040D+00
     16  0.000000D+00  0.000000D+00  0.712140D-02  0.488386D-02 -0.118027D-01
     17  0.000000D+00  0.000000D+00  0.126666D-01  0.139582D-01 -0.301442D-01
     18  0.000000D+00  0.000000D+00  0.164705D-02  0.112441D-02 -0.272083D-02
     19 -0.775966D-02  0.101462D-01  0.000000D+00  0.000000D+00  0.000000D+00
     20 -0.111168D-01  0.156669D-01  0.000000D+00  0.000000D+00  0.000000D+00
     21 -0.156015D-01  0.223544D-01  0.000000D+00  0.000000D+00  0.000000D+00
     22  0.488386D-02 -0.118026D-01  0.000000D+00  0.000000D+00  0.000000D+00
     23  0.139582D-01 -0.301441D-01  0.000000D+00  0.000000D+00  0.000000D+00
     24  0.112444D-02 -0.272090D-02  0.000000D+00  0.000000D+00  0.000000D+00
               16            17            18            19            20 
     16  0.303179D-01
     17 -0.741798D-04  0.661697D-01
     18 -0.759532D-01  0.265451D-03  0.338578D+00
     19  0.000000D+00  0.000000D+00  0.000000D+00  0.303183D-01
     20  0.000000D+00  0.000000D+00  0.000000D+00 -0.657408D-01  0.270245D+00
     21  0.000000D+00  0.000000D+00  0.000000D+00  0.380408D-01 -0.118089D+00
     22  0.000000D+00  0.000000D+00  0.000000D+00  0.712158D-02 -0.490697D-02
     23  0.000000D+00  0.000000D+00  0.000000D+00 -0.126636D-01  0.140147D-01
     24  0.000000D+00  0.000000D+00  0.000000D+00  0.167180D-02 -0.115706D-02
               21            22            23            24 
     21  0.134501D+00
     22 -0.117933D-01  0.303186D-01
     23  0.301114D-01 -0.741774D-04  0.661698D-01
     24 -0.277739D-02 -0.759547D-01  0.265178D-03  0.338578D+00
 Leave Link  716 at Tue Nov 19 12:54:23 2024, MaxMem=  1073741824 cpu:               1.4 elap:               0.1
 (Enter /home/szhao/Apps/g16/l103.exe)

 GradGradGradGradGradGradGradGradGradGradGradGradGradGradGradGradGradGrad
 Berny optimization.
 Search for a local minimum.
 Step number   1 out of a maximum of    2
 All quantities printed in internal units (Hartrees-Bohrs-Radians)
 Second derivative matrix not updated -- first step.
 ITU=  0
     Eigenvalues ---   -0.00000  -0.00000   0.00000   0.00000   0.00000
     Eigenvalues ---    0.00000   0.07993   0.09269   0.14097   0.14097
     Eigenvalues ---    0.14178   0.14178   0.40646   0.42491   0.81090
     Eigenvalues ---    0.81090   0.84542   0.84542
 Eigenvalue     1 is  -3.33D-16 should be greater than     0.000000 Eigenvector:
                          X5        X4        X3        Y8        Y6
   1                    0.46439   0.39833  -0.37911  -0.30341  -0.28495
                          Z4        Z5        X7        Z3        Z7
   1                   -0.23155  -0.23038  -0.21233   0.20298   0.20181
 Eigenvalue     2 is  -1.11D-16 should be greater than     0.000000 Eigenvector:
                          X5        X4        X2        X1        Y2
   1                    0.63399  -0.62981   0.18350  -0.18350   0.16423
                          Y1        X3        Y6        X7        Y7
   1                   -0.16032  -0.15103   0.10661   0.10244  -0.08583
 Eigenvalue     3 is   0.00D+00 Eigenvector:
                          X7        X8        X4        X5        Y8
   1                    0.50439   0.35960  -0.33992  -0.27080  -0.22255
                          Z3        Z7        Z4        X1        X2
   1                    0.21755   0.19605  -0.19554   0.17469  -0.17469
 Eigenvalue     4 is   2.22D-16 Eigenvector:
                          X3        X6        X7        X8        X2
   1                    0.50321   0.33847  -0.25278  -0.24575   0.24508
                          X1        X4        Y6        Z7        Z5
   1                   -0.24508  -0.23670  -0.23190   0.20605  -0.19659
 Eigenvalue     5 is   4.20D-14 Eigenvector:
                          X8        X7        X6        X3        Z1
   1                    0.59431  -0.48812  -0.42196   0.30751  -0.19925
                          Z2        X5        X4        Z5        Z6
   1                    0.17713   0.11387  -0.10561   0.08132   0.07882
 Eigenvalue     6 is   4.60D-14 Eigenvector:
                          X6        X3        X8        X7        X5
   1                    0.62946  -0.46608   0.43434  -0.36161  -0.16638
                          Z2        Z7        X4        Z8        Z4
   1                   -0.10476   0.07049  -0.06973   0.06927   0.06804
 Quadratic step=5.217D+02 exceeds max=3.000D-01 adjusted using Lamda=-2.649D-01.
 Angle between NR and scaled steps=  49.05 degrees.
 Angle between quadratic step and forces=  15.43 degrees.
 Linear search not attempted -- first point.
 B after Tr=    -0.000000    0.000000   -0.000000
         Rot=    1.000000   -0.000000   -0.000000   -0.000000 Ang=  -0.00 deg.
 Variable       Old X    -DE/DX   Delta X   Delta X   Delta X     New X
                                 (Linear)    (Quad)   (Total)
    X1       -2.12106   0.07377   0.00000   0.20516   0.20516  -1.91590
    Y1       -0.00000   0.00000   0.00000  -0.00000  -0.00000  -0.00000
    Z1       -0.00000   0.00000   0.00000   0.00000   0.00000   0.00000
    X2        2.12127  -0.07377   0.00000  -0.20516  -0.20516   1.91611
    Y2       -0.00000  -0.00000   0.00000   0.00000   0.00000   0.00000
    Z2        0.00000  -0.00000   0.00000  -0.00000  -0.00000  -0.00000
    X3        2.58574  -0.00000   0.00000  -0.02443  -0.02443   2.56131
    Y3       -1.72526   0.00000   0.00000   0.01881   0.01881  -1.70645
    Z3        0.99832  -0.00000   0.00000  -0.01088  -0.01088   0.98744
    X4       -2.58551   0.00000   0.00000   0.02443   0.02443  -2.56108
    Y4       -1.72721   0.00000   0.00000   0.01883   0.01883  -1.70838
    Z4       -0.99495   0.00000   0.00000   0.01085   0.01085  -0.98410
    X5        2.58573  -0.00000   0.00000  -0.02443  -0.02443   2.56130
    Y5        1.72721  -0.00000   0.00000  -0.01883  -0.01883   1.70838
    Z5        0.99495  -0.00000   0.00000  -0.01085  -0.01085   0.98410
    X6        2.58574  -0.00000   0.00000  -0.02443  -0.02443   2.56131
    Y6       -0.00194  -0.00000   0.00000   0.00002   0.00002  -0.00192
    Z6       -1.99328   0.00000   0.00000   0.02173   0.02173  -1.97155
    X7       -2.58552   0.00000   0.00000   0.02443   0.02443  -2.56109
    Y7        1.72526  -0.00000   0.00000  -0.01881  -0.01881   1.70645
    Z7       -0.99832   0.00000   0.00000   0.01088   0.01088  -0.98744
    X8       -2.58553   0.00000   0.00000   0.02443   0.02443  -2.56110
    Y8        0.00194   0.00000   0.00000  -0.00002  -0.00002   0.00192
    Z8        1.99328  -0.00000   0.00000  -0.02173  -0.02173   1.97154
         Item               Value     Threshold  Converged?
 Maximum Force            0.073769     0.000450     NO 
 RMS     Force            0.021295     0.000300     NO 
 Maximum Displacement     0.205158     0.001800     NO 
 RMS     Displacement     0.061439     0.001200     NO 
 Predicted change in Energy=-2.713377D-02
 GradGradGradGradGradGradGradGradGradGradGradGradGradGradGradGradGradGrad

 Leave Link  103 at Tue Nov 19 12:54:23 2024, MaxMem=  1073741824 cpu:               2.0 elap:               0.1
 (Enter /home/szhao/Apps/g16/l9999.exe)
 1\1\GINC-NODE02\Force\UM062X\6-311+G(d,p)\C2H6\SZHAO\19-Nov-2024\0\\#p
  UM062X/6-311+G** force int=superfine\\Title Card Required\\0,1\C,-1.1
 22414,0.,0.\C,1.122529,0.,0.\H,1.368315,-0.912968,0.528288\H,-1.368194
 ,-0.914,-0.526505\H,1.368311,0.914,0.526504\H,1.368313,-0.001028,-1.05
 4798\H,-1.3682,0.912968,-0.528289\H,-1.368202,0.001027,1.054796\\Versi
 on=ES64L-G16RevA.03\State=1-A\HF=-79.708359\S2=0.\S2-1=0.\S2A=0.\RMSD=
 5.279e-09\RMSF=2.130e-02\Dipole=0.,-0.0000003,-0.0000005\Quadrupole=-0
 .3556773,0.1778562,0.1778211,-0.0000078,-0.0000146,-0.0000072\PG=C01 [
 X(C2H6)]\\@


 IT'S WHAT A FELLER THINKS HE KNOWS THAT HURTS HIM...
                    ------
           KIN HUBBARD
 Job cpu time:       0 days  0 hours  4 minutes  4.1 seconds.
 Elapsed time:       0 days  0 hours  0 minutes 13.7 seconds.
 File lengths (MBytes):  RWF=     22 Int=      0 D2E=      0 Chk=      2 Scr=      2
 Normal termination of Gaussian 16 at Tue Nov 19 12:54:24 2024.
