Title Card Required                                                     
FOpt      UM062X                                                      6-311+G(d,p)        
Number of atoms                            I                4
Info1-9                                    I   N=           9
          13          13           0           0           0         110
           2          18        -502
Full Title                                 C   N=           2
Title Card Required     
Route                                      C   N=           5
#p opt UM062X/6-311+G** nosymm int=superfine SCF=NoVarAcc   
Charge                                     I                1
Multiplicity                               I                2
Number of electrons                        I               13
Number of alpha electrons                  I                7
Number of beta electrons                   I                6
Number of basis functions                  I               56
Number of independent functions            I               56
Number of point charges in /Mol/           I                0
Number of translation vectors              I                0
Atomic numbers                             I   N=           4
           6           6           1           1
Nuclear charges                            R   N=           4
  6.00000000E+00  6.00000000E+00  1.00000000E+00  1.00000000E+00
Current cartesian coordinates              R   N=          12
 -6.39135611E+00  0.00000000E+00  0.00000000E+00  6.39135611E+00  0.00000000E+00
  0.00000000E+00 -8.50353734E+00  5.00618062E-11 -1.01507676E-11  8.50353571E+00
  5.19096773E-11  1.56937018E-13
Number of symbols in /Mol/                 I                0
Force Field                                I                0
Atom Types                                 C   N=           4
                                                
Int Atom Types                             I   N=           4
           0           0           0           0
MM charges                                 R   N=           4
  0.00000000E+00  0.00000000E+00  0.00000000E+00  0.00000000E+00
Integer atomic weights                     I   N=           4
          12          12           1           1
Real atomic weights                        R   N=           4
  1.20000000E+01  1.20000000E+01  1.00782504E+00  1.00782504E+00
Atom fragment info                         I   N=           4
           0           0           0           0
Atom residue num                           I   N=           4
           0           0           0           0
Nuclear spins                              I   N=           4
           0           0           1           1
Nuclear ZEff                               R   N=           4
 -3.60000000E+00 -3.60000000E+00 -1.00000000E+00 -1.00000000E+00
Nuclear ZNuc                               R   N=           4
  6.00000000E+00  6.00000000E+00  1.00000000E+00  1.00000000E+00
Nuclear QMom                               R   N=           4
  0.00000000E+00  0.00000000E+00  0.00000000E+00  0.00000000E+00
Nuclear GFac                               R   N=           4
  0.00000000E+00  0.00000000E+00  2.79284600E+00  2.79284600E+00
MicOpt                                     I   N=           4
          -2          -2          -1          -1
Number of residues                         I                0
Number of secondary structures             I                0
Redundant internal dimensions              I   N=           4
          12           8           4           0
Redundant internal coordinate indices      I   N=          48
           1          -1           0           0           1          -2
           0           0           1          -3           0           0
           2          -1           0           0           2          -2
           0           0           2          -3           0           0
           1           3           0           0           2           4
           0           0           2           1           3          -4
           1           2           4          -4           2           1
           3          -8           1           2           4          -8
Redundant internal coordinates             R   N=          12
 -6.39135611E+00  0.00000000E+00  0.00000000E+00  6.39135611E+00  0.00000000E+00
  0.00000000E+00  2.11218123E+00  2.11217960E+00  3.14159265E+00  3.14159265E+00
  3.14159265E+00  3.14159265E+00
ZRed-IntVec                                I   N=          12
          -1          -1          -1          -1          -1          -1
           0           0           0           0           0           0
ZRed-FPVec                                 R   N=          12
  0.00000000E+00  0.00000000E+00  0.00000000E+00  0.00000000E+00  0.00000000E+00
  0.00000000E+00  0.00000000E+00  0.00000000E+00  0.00000000E+00  0.00000000E+00
  0.00000000E+00  0.00000000E+00
ZRed-Constraint1                           R   N=          12
 -6.39135611E+00  0.00000000E+00  0.00000000E+00  6.39135611E+00  0.00000000E+00
  0.00000000E+00  2.08057524E+00  2.08053366E+00  3.14159265E+00  3.14159265E+00
  3.14159265E+00  3.14159265E+00
ZRed-Constraint2                           R   N=          12
 -6.39135611E+00  0.00000000E+00  0.00000000E+00  6.39135611E+00  0.00000000E+00
  0.00000000E+00  0.00000000E+00  0.00000000E+00  0.00000000E+00  0.00000000E+00
  0.00000000E+00  0.00000000E+00
Number of contracted shells                I               20
Number of primitive shells                 I               38
Pure/Cartesian d shells                    I                0
Pure/Cartesian f shells                    I                0
Highest angular momentum                   I                2
Largest degree of contraction              I                6
Shell types                                I   N=          20
           0          -1          -1          -1          -1          -2
           0          -1          -1          -1          -1          -2
           0           0           0           1           0           0
           0           1
Number of primitives per shell             I   N=          20
           6           3           1           1           1           1
           6           3           1           1           1           1
           3           1           1           1           3           1
           1           1
Shell to atom map                          I   N=          20
           1           1           1           1           1           1
           2           2           2           2           2           2
           3           3           3           3           4           4
           4           4
Primitive exponents                        R   N=          38
  4.56324000E+03  6.82024000E+02  1.54973000E+02  4.44553000E+01  1.30290000E+01
  1.82773000E+00  2.09642000E+01  4.80331000E+00  1.45933000E+00  4.83456000E-01
  1.45585000E-01  4.38000000E-02  6.26000000E-01  4.56324000E+03  6.82024000E+02
  1.54973000E+02  4.44553000E+01  1.30290000E+01  1.82773000E+00  2.09642000E+01
  4.80331000E+00  1.45933000E+00  4.83456000E-01  1.45585000E-01  4.38000000E-02
  6.26000000E-01  3.38650000E+01  5.09479000E+00  1.15879000E+00  3.25840000E-01
  1.02741000E-01  7.50000000E-01  3.38650000E+01  5.09479000E+00  1.15879000E+00
  3.25840000E-01  1.02741000E-01  7.50000000E-01
Contraction coefficients                   R   N=          38
  1.96665025E-03  1.52306019E-02  7.61269097E-02  2.60801033E-01  6.16462078E-01
  2.21006028E-01  1.14660081E-01  9.19999648E-01 -3.03068213E-03  1.00000000E+00
  1.00000000E+00  1.00000000E+00  1.00000000E+00  1.96665025E-03  1.52306019E-02
  7.61269097E-02  2.60801033E-01  6.16462078E-01  2.21006028E-01  1.14660081E-01
  9.19999648E-01 -3.03068213E-03  1.00000000E+00  1.00000000E+00  1.00000000E+00
  1.00000000E+00  2.54938145E-02  1.90373109E-01  8.52161486E-01  1.00000000E+00
  1.00000000E+00  1.00000000E+00  2.54938145E-02  1.90373109E-01  8.52161486E-01
  1.00000000E+00  1.00000000E+00  1.00000000E+00
P(S=P) Contraction coefficients            R   N=          38
  0.00000000E+00  0.00000000E+00  0.00000000E+00  0.00000000E+00  0.00000000E+00
  0.00000000E+00  4.02486927E-02  2.37593957E-01  8.15853851E-01  1.00000000E+00
  1.00000000E+00  1.00000000E+00  0.00000000E+00  0.00000000E+00  0.00000000E+00
  0.00000000E+00  0.00000000E+00  0.00000000E+00  0.00000000E+00  4.02486927E-02
  2.37593957E-01  8.15853851E-01  1.00000000E+00  1.00000000E+00  1.00000000E+00
  0.00000000E+00  0.00000000E+00  0.00000000E+00  0.00000000E+00  0.00000000E+00
  0.00000000E+00  0.00000000E+00  0.00000000E+00  0.00000000E+00  0.00000000E+00
  0.00000000E+00  0.00000000E+00  0.00000000E+00
Coordinates of each shell                  R   N=          60
 -6.39135611E+00  0.00000000E+00  0.00000000E+00 -6.39135611E+00  0.00000000E+00
  0.00000000E+00 -6.39135611E+00  0.00000000E+00  0.00000000E+00 -6.39135611E+00
  0.00000000E+00  0.00000000E+00 -6.39135611E+00  0.00000000E+00  0.00000000E+00
 -6.39135611E+00  0.00000000E+00  0.00000000E+00  6.39135611E+00  0.00000000E+00
  0.00000000E+00  6.39135611E+00  0.00000000E+00  0.00000000E+00  6.39135611E+00
  0.00000000E+00  0.00000000E+00  6.39135611E+00  0.00000000E+00  0.00000000E+00
  6.39135611E+00  0.00000000E+00  0.00000000E+00  6.39135611E+00  0.00000000E+00
  0.00000000E+00 -8.50353734E+00  5.00618062E-11 -1.01507676E-11 -8.50353734E+00
  5.00618062E-11 -1.01507676E-11 -8.50353734E+00  5.00618062E-11 -1.01507676E-11
 -8.50353734E+00  5.00618062E-11 -1.01507676E-11  8.50353571E+00  5.19096773E-11
  1.56937018E-13  8.50353571E+00  5.19096773E-11  1.56937018E-13  8.50353571E+00
  5.19096773E-11  1.56937018E-13  8.50353571E+00  5.19096773E-11  1.56937018E-13
Num ILSW                                   I              100
ILSW                                       I   N=         100
           1           0           0           0           2           0
           0           0           0           0        4336          -1
           7           0           0           0           2           0
           0           0           0           0           1           0
           1           1           0           0           0           0
           0           0      100000           0          -1           0
           0           0           0           0           0           0
           0           0           0           1           0           0
           0 -2000000000           1           0           0           0
           0           0           4          52           0           0
           0           0          55           0           0           0
           0           0           0           4           0           1
           0           0           0           0           0           0
           0           0           0           0           0           0
           0           0           0           0           0           0
           0           0           0           0           0           0
           0           0           0           0
Num RLSW                                   I               52
RLSW                                       R   N=          52
  1.00000000E+00  1.00000000E+00  1.00000000E+00  1.00000000E+00  5.40000000E-01
  0.00000000E+00  0.00000000E+00  1.00000000E+00  0.00000000E+00  0.00000000E+00
  0.00000000E+00  0.00000000E+00  1.00000000E+00  0.00000000E+00  0.00000000E+00
  0.00000000E+00  0.00000000E+00  1.00000000E+00  0.00000000E+00  0.00000000E+00
  0.00000000E+00  0.00000000E+00  1.00000000E+00  0.00000000E+00  0.00000000E+00
  0.00000000E+00  0.00000000E+00  1.00000000E+00  0.00000000E+00  0.00000000E+00
  0.00000000E+00  0.00000000E+00  1.00000000E+00  0.00000000E+00  0.00000000E+00
  0.00000000E+00  0.00000000E+00  0.00000000E+00  1.00000000E+00  1.00000000E+00
  0.00000000E+00  1.00000000E+00  0.00000000E+00  0.00000000E+00  0.00000000E+00
  0.00000000E+00  0.00000000E+00  0.00000000E+00  0.00000000E+00  0.00000000E+00
  0.00000000E+00  0.00000000E+00
MxBond                                     I                2
NBond                                      I   N=           4
           2           2           1           1
IBond                                      I   N=           8
           2           3           1           4           1           0
           2           0
RBond                                      R   N=           8
  1.00000000E-01  1.00000000E+00  1.00000000E-01  1.00000000E+00  1.00000000E+00
  0.00000000E+00  1.00000000E+00  0.00000000E+00
Virial Ratio                               R      2.002727308817073E+00
SCF Energy                                 R     -7.658323137120048E+01
Total Energy                               R     -7.658323137120048E+01
S**2                                       R      7.513139334913683E-01
S**2 after annihilation                    R      7.500012423347621E-01
RMS Force                                  R      1.315201975608048E-04
RMS Density                                R      5.358149413756252E-09
Job Status                                 I                1
Nuclear derivative order                   I                1
External E-field                           R   N=          35
  0.00000000E+00  0.00000000E+00  0.00000000E+00  0.00000000E+00  0.00000000E+00
  0.00000000E+00  0.00000000E+00  0.00000000E+00  0.00000000E+00  0.00000000E+00
  0.00000000E+00  0.00000000E+00  0.00000000E+00  0.00000000E+00  0.00000000E+00
  0.00000000E+00  0.00000000E+00  0.00000000E+00  0.00000000E+00  0.00000000E+00
  0.00000000E+00  0.00000000E+00  0.00000000E+00  0.00000000E+00  0.00000000E+00
  0.00000000E+00  0.00000000E+00  0.00000000E+00  0.00000000E+00  0.00000000E+00
  0.00000000E+00  0.00000000E+00  0.00000000E+00  0.00000000E+00  0.00000000E+00
IOpCl                                      I                1
IROHF                                      I                0
Alpha Orbital Energies                     R   N=          56
 -1.09252796E+01 -1.09252795E+01 -9.62887783E-01 -9.62760426E-01 -6.14123144E-01
 -6.13994239E-01 -4.45522895E-01 -4.03966790E-01 -3.12707553E-01 -3.12663925E-01
 -1.01466378E-01 -1.01094681E-01 -7.55099697E-02 -5.40673559E-02 -5.26187535E-02
 -4.46567870E-02 -4.27358623E-02 -1.97176642E-02  1.09248505E-02  2.12455398E-02
  2.94624720E-01  3.00354210E-01  3.82727646E-01  3.91076339E-01  3.91645242E-01
  4.00277887E-01  4.21781145E-01  4.22183506E-01  4.71050046E-01  5.34414967E-01
  9.12709552E-01  9.12752422E-01  9.14638290E-01  9.14785396E-01  1.09663390E+00
  1.09673800E+00  1.10704778E+00  1.10715038E+00  1.37227275E+00  1.37655624E+00
  1.64594359E+00  1.64629057E+00  1.64876780E+00  1.64912953E+00  2.17589566E+00
  2.17955553E+00  2.29870895E+00  2.29950721E+00  2.45553723E+00  2.46143926E+00
  2.46978820E+00  2.47574470E+00  2.94679490E+00  2.96751073E+00  2.32537309E+01
  2.32693597E+01
Beta Orbital Energies                      R   N=          56
 -1.09211270E+01 -1.09211254E+01 -9.39164734E-01 -9.39155908E-01 -6.00224592E-01
 -6.00157583E-01 -2.93830245E-01 -2.93769007E-01 -2.77495362E-01 -2.77417835E-01
 -1.05143013E-01 -1.02395009E-01 -7.29456094E-02 -4.61897934E-02 -3.68964784E-02
 -3.66035738E-02 -2.73292912E-02 -2.03827020E-02  2.81969572E-02  4.00303622E-02
  2.88505324E-01  2.93282333E-01  3.86540731E-01  3.89396458E-01  3.96700634E-01
  3.98881351E-01  4.45726983E-01  4.57495642E-01  4.98279324E-01  5.52342705E-01
  9.84609932E-01  9.84649222E-01  9.93660036E-01  9.93698794E-01  1.12937670E+00
  1.12937710E+00  1.12947887E+00  1.12947890E+00  1.37628710E+00  1.38075582E+00
  1.66337556E+00  1.66372159E+00  1.67011760E+00  1.67046369E+00  2.33712995E+00
  2.34074767E+00  2.34467090E+00  2.34643354E+00  2.48155110E+00  2.48754592E+00
  2.50514029E+00  2.51104846E+00  3.04193644E+00  3.06545632E+00  2.32669356E+01
  2.32825562E+01
Alpha MO coefficients                      R   N=        3136
  5.38442032E-01  4.43595732E-01 -1.92477786E-03  4.80026330E-14 -4.20156934E-15
  8.98431628E-03 -1.11257180E-03  9.05532898E-15 -3.23569455E-15 -3.95040243E-03
 -1.32378015E-04 -1.96677770E-14  3.90622692E-15  4.24774953E-04  8.13934736E-04
 -1.07752783E-14  2.12965970E-15 -4.66742846E-04  1.08296632E-14 -1.90266219E-05
  7.98320487E-04 -1.17543859E-14 -1.67934414E-01 -1.38342976E-01 -6.11793685E-04
 -1.36663645E-14  5.15587546E-16 -2.87461127E-03 -3.07125199E-04 -4.05800441E-15
 -1.56505992E-16  1.45158980E-03 -1.25192203E-04  4.72799087E-15  3.53880146E-16
 -1.56513897E-04  5.07089859E-04  7.09012546E-15 -1.08268158E-16  1.45572793E-04
  2.41353763E-15  6.38509096E-06 -2.48749241E-04 -1.06239322E-14  3.69029512E-04
 -2.58803790E-03  2.30082004E-03 -1.75905396E-03  1.40358136E-13 -2.59902565E-14
 -1.37668682E-04  8.93941158E-04 -9.80272828E-04 -5.36049573E-04 -2.92799442E-14
 -1.02641400E-15  1.67933084E-01  1.38363753E-01 -5.86364433E-04  1.47012943E-14
 -1.26957789E-15  2.71397377E-03 -3.95468573E-04  2.72058908E-15 -5.31882380E-16
 -9.65272805E-04  6.07005915E-05 -5.37309310E-15  8.95725727E-16  1.03270332E-04
 -5.39507697E-05 -1.07055678E-15  2.20385523E-16 -1.45571301E-04  3.36682350E-15
 -5.38609831E-06  2.49277594E-04 -3.89316560E-15  5.38441617E-01  4.43602210E-01
  1.91684687E-03  4.70127509E-14 -1.94693055E-15  8.93422571E-03  1.14013733E-03
  1.29713509E-14  1.53154800E-15 -3.79872399E-03  7.43999727E-05 -8.91632154E-15
 -1.55617062E-15  4.08164603E-04 -6.38954398E-04 -1.29782265E-14  4.82896482E-16
 -4.66745316E-04 -7.70614830E-15 -1.87150512E-05  7.98490725E-04  3.45754907E-14
  8.76579948E-05 -7.01724081E-04  3.98318886E-04 -5.63921585E-04  4.39635128E-14
 -8.19407095E-15  3.53429875E-04 -2.52810466E-03  2.11932495E-03  1.76775642E-03
  9.60745353E-14  3.36233531E-15 -7.97756787E-02 -1.30255999E-01 -5.61734602E-02
  1.16181395E-12 -1.35913497E-13  3.84277927E-01 -8.59927656E-02  1.69372176E-12
 -5.57967386E-14  2.42194307E-01 -3.20674350E-02  6.77423584E-13  1.50894332E-13
 -5.28754555E-03 -1.14525116E-03 -8.64561795E-14 -6.13601766E-14 -4.15305152E-03
 -1.64798822E-14  3.88540535E-04  7.39982118E-03 -2.56188827E-13 -7.99023465E-02
 -1.30462754E-01  5.62627193E-02  1.08397394E-12  9.78864599E-15  3.84887099E-01
  8.61300385E-02  1.52255697E-12 -5.64580434E-14  2.42582436E-01  3.21165813E-02
  6.05728147E-13  2.19590992E-14 -5.29644850E-03  1.15271668E-03 -7.96366042E-14
 -4.09376904E-15 -4.15966223E-03 -9.92517718E-14  3.89094408E-04  7.41155908E-03
  3.14389757E-13  9.83281058E-02  1.21699861E-01 -1.47128118E-03  1.69179102E-02
 -3.55095113E-13 -2.06182577E-13  9.84842054E-02  1.21894989E-01 -1.47874989E-03
 -1.69446957E-02 -2.77763345E-13  6.98053392E-14 -7.98882577E-02 -1.30400857E-01
 -5.62299651E-02  1.15381516E-12 -1.52168800E-13  3.84235110E-01 -8.65086444E-02
  1.67386597E-12 -8.04484965E-14  2.44874908E-01 -3.09891614E-02  6.71474966E-13
  1.26888822E-13 -5.62035638E-03 -4.70467618E-03 -6.42369543E-14 -6.87807812E-14
 -4.16083093E-03 -1.72387947E-14  3.47611483E-04  7.39153856E-03 -2.56402017E-13
  7.97615332E-02  1.30193940E-01 -5.61408359E-02 -1.07839421E-12 -4.65075353E-16
 -3.83624624E-01 -8.63721511E-02 -1.50358174E-12  7.10622458E-14 -2.44490041E-01
 -3.09382355E-02 -6.10069668E-13 -1.31227692E-14  5.61194865E-03 -4.70285438E-03
  6.31334056E-14  1.10314814E-14  4.15424725E-03  9.84422422E-14 -3.46997082E-04
 -7.37980214E-03 -3.13406823E-13  9.83597463E-02  1.22996570E-01 -4.69728647E-03
  1.68859274E-02 -3.55946831E-13 -2.07737843E-13 -9.82036952E-02 -1.22803354E-01
  4.69496227E-03  1.68590649E-02  2.77123037E-13 -6.91282114E-14 -4.24086697E-02
 -7.07088780E-02  1.66498216E-01 -4.42354859E-12  1.20967370E-12  2.19165415E-01
  2.46460675E-01 -6.52734942E-12  1.80504809E-12  2.60090969E-01  1.42919203E-01
 -4.01228648E-12  7.48279384E-13  1.80368573E-02 -2.73097159E-04  5.36929927E-13
  3.09829144E-14  1.48162263E-02  6.79180771E-14  2.41098250E-05 -2.56496878E-02
  1.08859120E-12 -4.24163980E-02 -7.07217608E-02 -1.66528460E-01 -5.66499214E-12
  1.04123025E-13  2.19205280E-01 -2.46505339E-01 -8.55567360E-12  3.25409692E-13
  2.60138786E-01 -1.42945239E-01 -5.21761753E-12 -7.58563103E-15  1.80400669E-02
  2.73649239E-04  2.97821865E-13  2.71780079E-14  1.48189199E-02 -1.71390841E-15
  2.41080965E-05 -2.56543542E-02 -1.11899522E-12 -9.53733653E-02 -1.70863354E-01
 -7.42315672E-02 -7.90748799E-03 -9.90905299E-14  2.38232860E-13 -9.53906588E-02
 -1.70894157E-01 -7.42454331E-02  7.90891899E-03 -1.24790864E-13 -3.50565705E-15
 -4.24591839E-02 -7.07690852E-02  1.66612866E-01 -4.47394629E-12  1.14703465E-12
  2.19043838E-01  2.46296347E-01 -6.60502045E-12  1.70771402E-12  2.61997172E-01
  1.43953014E-01 -4.09527876E-12  6.57383043E-13  1.75496724E-02 -3.00643748E-03
  5.75252249E-13  2.19708974E-14  1.48206175E-02  7.06358941E-14 -1.37009483E-05
 -2.56773930E-02  1.09253418E-12  4.24515135E-02  7.07562976E-02  1.66582670E-01
  5.69894860E-12 -6.65089807E-14 -2.19004193E-01  2.46251603E-01  8.60525590E-12
 -2.65121927E-13 -2.61950259E-01  1.43926999E-01  5.28108817E-12  5.95900591E-14
 -1.75464242E-02 -3.00639289E-03 -3.41926873E-13 -2.04597474E-14 -1.48179336E-02
  2.99950017E-15  1.37045391E-05  2.56727464E-02  1.12158333E-12 -9.54720167E-02
 -1.70197311E-01 -7.64041870E-02 -7.94639491E-03 -1.01810405E-13  2.34148384E-13
  9.54546826E-02  1.70166232E-01  7.63907190E-02 -7.94494942E-03  1.26532239E-13
  5.88175577E-15  5.53995445E-14  1.57991107E-13  2.24912125E-12  1.26930885E-01
  1.65075568E-01 -3.10169781E-13  5.48416653E-12  1.99859945E-01  2.59920705E-01
 -4.77440330E-12  6.42179488E-12  1.80770225E-01  2.35094154E-01 -6.54575579E-13
  8.49677308E-13  1.48338709E-02  1.92917095E-02  5.72242647E-13 -1.44653376E-02
  2.93315459E-13 -1.43187069E-12 -1.11227630E-02 -1.85176922E-13 -2.89262883E-13
 -3.50826060E-12  1.26931579E-01  1.65075050E-01  7.15443755E-13 -6.09154181E-12
  1.99861045E-01  2.59919899E-01  9.62101587E-13 -5.24718527E-12  1.80771222E-01
  2.35093427E-01  1.16939132E-12  4.49730642E-14  1.48339511E-02  1.92916489E-02
  2.59989869E-13  1.44653054E-02  2.44361815E-13 -8.06425252E-13  1.11228340E-02
 -3.74698097E-14  4.72494701E-12  3.17302078E-12  1.84405454E-12  9.79234449E-03
  1.27350873E-02 -3.63051160E-13  8.28888306E-13 -1.87717526E-12 -6.15757788E-13
  9.79240590E-03  1.27350576E-02  3.59694068E-14  1.25805554E-13  2.29687694E-12
  1.26889881E-01  1.65022314E-01 -2.04245502E-13  5.55518807E-12  1.99774244E-01
  2.59809352E-01 -4.66421589E-12  6.51004574E-12  1.80752986E-01  2.35071877E-01
 -7.55620736E-13  7.55214008E-13  1.50296625E-02  1.95462889E-02  5.85748639E-13
 -1.51806379E-02  2.91403502E-13 -1.45294679E-12 -1.16727720E-02  2.15704157E-13
  3.41696290E-13  3.56695876E-12 -1.26890548E-01 -1.65021761E-01 -9.08547372E-13
  6.18967383E-12 -1.99775300E-01 -2.59808490E-01 -1.03977185E-12  5.25461480E-12
 -1.80753944E-01 -2.35071099E-01 -1.08251914E-12  8.31205860E-14 -1.50297407E-02
 -1.95462232E-02 -2.76935882E-13 -1.51806001E-02 -2.42855132E-13  8.32822859E-13
 -1.16728434E-02 -5.80622527E-14  4.72637035E-12  3.14623209E-12  1.85074838E-12
  1.00340923E-02  1.30494887E-02  3.88698634E-13 -7.36942223E-13  1.80097918E-12
  6.24726054E-13 -1.00341529E-02 -1.30494552E-02 -1.77405210E-13 -3.06332355E-13
  4.29517152E-12  1.55023059E-01 -1.19201440E-01  7.40986646E-13  6.52674035E-12
  2.50455014E-01 -1.92581502E-01  2.65971674E-12  6.20510199E-12  2.39454673E-01
 -1.84122931E-01  1.97864921E-12  2.68545890E-13  4.51662717E-02 -3.47296432E-02
 -7.37745658E-15  1.06079019E-02 -2.11893771E-13 -5.49648577E-13 -1.37957060E-02
 -2.70181387E-13 -4.49462380E-13 -4.46705507E-12  1.54933938E-01 -1.19133938E-01
  1.47892089E-12 -7.40305050E-12  2.50311002E-01 -1.92472425E-01 -9.86637175E-13
 -9.21020375E-12  2.39317115E-01 -1.84018742E-01 -9.03786909E-13 -2.43371542E-12
  4.51401947E-02 -3.47098920E-02  3.31650687E-13 -1.06018986E-02 -1.74969749E-13
 -1.03504926E-12  1.37877799E-02 -3.79223488E-13 -4.33293203E-13 -3.96718672E-12
 -1.24910413E-13  1.35660028E-02 -1.04312627E-02 -5.46574446E-13  6.73298097E-13
  3.28189110E-12 -7.10666580E-13  1.35582100E-02 -1.04253605E-02  1.83474656E-13
  3.18240089E-13 -4.30151360E-12 -1.54987080E-01  1.19173728E-01 -8.04051361E-13
 -6.55283101E-12 -2.50449990E-01  1.92577547E-01 -2.56709736E-12 -6.14292482E-12
 -2.39253060E-01  1.83967895E-01 -1.95248780E-12 -5.36838478E-13 -4.53652197E-02
  3.48824957E-02  6.22527099E-15 -1.06120602E-02  2.12764618E-13  5.50172553E-13
  1.38011201E-02 -2.75079713E-13 -4.56865601E-13 -4.48288455E-12  1.55075163E-01
 -1.19242483E-01  1.49034233E-12 -7.41441978E-12  2.50592299E-01 -1.92688629E-01
 -8.73258276E-13 -9.26386130E-12  2.39389134E-01 -1.84074110E-01 -9.49542848E-13
 -2.28649046E-12  4.53908917E-02 -3.49025347E-02  3.33981618E-13 -1.06181864E-02
 -1.75955584E-13 -1.03884598E-12  1.38089686E-02  3.78850279E-13  5.09160212E-13
  3.75537356E-12  1.22527322E-13 -1.35696610E-02  1.04340700E-02 -5.55807138E-13
  6.89532462E-13  3.17346934E-12 -7.09431226E-13  1.35773792E-02 -1.04400945E-02
  2.79435560E-02  4.65205039E-02  3.62083202E-02 -1.45998548E-12  1.37109209E-13
 -1.31739195E-01  9.31298736E-02 -2.75849031E-12  3.32126994E-13 -5.85152173E-01
  7.28531585E-02 -4.26549422E-12  5.32324932E-13  9.94409508E-01 -1.71253129E-01
  9.13026029E-12 -1.31522127E-12  5.32298400E-03 -9.57377089E-14  1.94656717E-03
 -8.18490771E-03  4.59733069E-13  2.79410932E-02  4.65163583E-02 -3.62032736E-02
 -1.42944928E-12  9.22797080E-14 -1.31726719E-01 -9.31199160E-02 -2.76435412E-12
  1.05938563E-13 -5.85104689E-01 -7.28388952E-02 -4.14339822E-12  2.54632432E-13
  9.94319463E-01  1.71211592E-01  8.59863454E-12 -4.29426281E-13  5.32232162E-03
 -1.40569652E-14  1.94640209E-03 -8.18388243E-03 -4.78421294E-13  4.83898170E-03
  1.21637563E-01 -1.77350118E-02 -2.17360737E-03  6.80282393E-13  1.51874355E-13
  4.83900888E-03  1.21623832E-01 -1.77244270E-02  2.17307065E-03  6.76287479E-13
 -6.77227658E-14 -2.52044878E-02 -4.24850207E-02 -5.03401150E-02  1.34474005E-12
 -1.44647737E-13  1.28411143E-01 -1.01179464E-01  2.48573060E-12 -3.44420882E-13
  4.84302540E-01 -1.40973989E-01  4.47129684E-12 -4.27625349E-13 -9.36289870E-01
  4.33243704E-01 -1.17493800E-11  1.77219485E-12 -6.96181516E-03  1.08025804E-13
 -1.74610378E-03  1.11300139E-02 -5.19260584E-13  2.52071838E-02  4.24895145E-02
 -5.03434548E-02 -1.02091917E-12  3.37116386E-14 -1.28423927E-01 -1.01188347E-01
 -2.29044260E-12 -2.77057442E-14 -4.84358821E-01 -1.40980417E-01 -2.96200374E-12
  2.09502333E-13  9.36387210E-01  4.33260652E-01  8.27548416E-12 -5.45429009E-13
  6.96234437E-03 -1.72064842E-14  1.74629688E-03 -1.11308593E-02 -5.10747906E-13
  1.61509697E-03 -1.40543259E-01  1.24087067E-01  4.95415523E-03 -7.47483116E-13
 -1.54352121E-13 -1.61475916E-03  1.40554935E-01 -1.24090189E-01  4.95431145E-03
  7.36268294E-13 -7.64147439E-14  5.67907823E-03  8.76310134E-03 -6.07467816E-02
  5.53872160E-13 -1.51532434E-13 -1.40563525E-02 -6.54773881E-02  2.24557921E-13
 -1.57755264E-13 -1.61523663E-01 -2.13577688E-01  3.40758459E-12 -2.90509994E-13
  6.99473707E-02  7.91569444E-01 -1.35160653E-11  2.86189905E-12 -6.11418216E-03
  3.28378275E-14  2.40278800E-04  1.07178189E-02 -3.23862049E-13  5.67907978E-03
  8.76310350E-03  6.07467145E-02 -2.05396233E-13 -2.57230340E-14 -1.40563315E-02
  6.54772931E-02 -4.08773056E-13  1.01628391E-13 -1.61523872E-01  2.13577408E-01
  6.95459323E-14 -3.55948450E-13  6.99470746E-02 -7.91569319E-01 -6.10287787E-12
  1.74679127E-12 -6.11418592E-03 -7.25715307E-15  2.40278602E-04  1.07178212E-02
  2.53216531E-13  1.74622869E-02 -3.83160079E-02  1.83258571E-01  1.02497141E-02
 -4.03136394E-13 -3.27773339E-14  1.74623356E-02 -3.83158793E-02  1.83258886E-01
 -1.02497108E-02 -3.99819436E-13  4.08764253E-14 -6.37326589E-13 -9.22820791E-13
 -5.38217714E-12 -6.73444970E-02  5.18039530E-02  4.64122335E-13 -4.40255449E-12
 -7.46169993E-02  5.73940891E-02  3.73833048E-11 -3.29260358E-11 -2.44093489E-01
  1.87770814E-01  4.29189112E-11 -1.46703642E-11  6.58023621E-01 -5.06196864E-01
  5.00620136E-13 -4.30494702E-03  9.98643914E-14 -6.38691010E-13  5.59645337E-03
 -1.84642205E-13 -3.27459278E-13  1.00586710E-12 -6.73443521E-02  5.18039450E-02
  1.12227010E-12  1.90008298E-12 -7.46168054E-02  5.73941190E-02  3.34472856E-12
  2.99112247E-12 -2.44093032E-01  1.87770764E-01 -6.58291600E-12 -6.76448396E-12
  6.58022384E-01 -5.06196607E-01 -7.69044711E-14  4.30495308E-03  5.84994605E-14
  3.26523259E-13 -5.59644913E-03 -3.64695543E-12  3.79853006E-12 -9.96036986E-11
  7.78036698E-13  2.12480444E-03 -1.63498033E-03 -6.60555439E-13  1.90223576E-13
  2.96044376E-15  4.17372312E-13  2.12479404E-03 -1.63496781E-03 -4.38905086E-13
 -6.55774131E-13 -3.54253949E-12 -4.75017781E-02 -6.17468462E-02  3.03031214E-13
 -3.43451263E-12 -4.38746584E-02 -5.70261430E-02  2.68771024E-11 -2.29190588E-11
 -1.81928025E-01 -2.36492265E-01  3.19203791E-11 -1.21276379E-11  5.08722487E-01
  6.61309048E-01  2.30194963E-13  4.93463337E-03 -8.50095738E-14 -2.22271586E-13
  3.79627262E-03 -1.16364161E-13 -2.28994656E-13 -1.49147650E-13 -4.75016273E-02
 -6.17468321E-02  1.09337457E-12  6.71506770E-13 -4.38744515E-02 -5.70261767E-02
 -1.45550435E-12 -3.24739822E-12 -1.81927551E-01 -2.36492191E-01 -1.21043593E-11
 -5.24861259E-12  5.08721240E-01  6.61308714E-01 -9.99665812E-14 -4.93464117E-03
 -1.04478230E-13  3.01299070E-13 -3.79626611E-03 -2.67439741E-12  9.63481532E-13
 -7.05331046E-11  2.67698098E-14  2.61097292E-03  3.39467372E-03 -2.35554733E-13
  2.68451925E-13  1.25515955E-11  5.13272478E-13  2.61096594E-03  3.39465829E-03
  6.38626272E-13  9.21279476E-13  5.76241418E-12  6.93958689E-02 -5.33622816E-02
 -3.39888056E-13  4.75544054E-12  7.97072665E-02 -6.12908770E-02 -3.95260002E-11
  3.60489324E-11  2.44143507E-01 -1.87735491E-01 -5.13358702E-11  1.80856444E-11
 -6.79988569E-01  5.22881795E-01 -5.87003204E-13  4.20291675E-03 -1.11835108E-13