 Entering Gaussian System, Link 0=g16
 Initial command:
 /home/szhao/Apps/g16/l1.exe "/home/szhao/tmp/Gau-169504.inp" -scrdir="/home/szhao/tmp/"
 Default is to use a total of  16 processors:
                               16 via shared-memory
                                1 via Linda
 Entering Link 1 = /home/szhao/Apps/g16/l1.exe PID=    169505.
  
 Copyright (c) 1988,1990,1992,1993,1995,1998,2003,2009,2016,
            Gaussian, Inc.  All Rights Reserved.
  
 This is part of the Gaussian(R) 16 program.  It is based on
 the Gaussian(R) 09 system (copyright 2009, Gaussian, Inc.),
 the Gaussian(R) 03 system (copyright 2003, Gaussian, Inc.),
 the Gaussian(R) 98 system (copyright 1998, Gaussian, Inc.),
 the Gaussian(R) 94 system (copyright 1995, Gaussian, Inc.),
 the Gaussian 92(TM) system (copyright 1992, Gaussian, Inc.),
 the Gaussian 90(TM) system (copyright 1990, Gaussian, Inc.),
 the Gaussian 88(TM) system (copyright 1988, Gaussian, Inc.),
 the Gaussian 86(TM) system (copyright 1986, Carnegie Mellon
 University), and the Gaussian 82(TM) system (copyright 1983,
 Carnegie Mellon University). Gaussian is a federally registered
 trademark of Gaussian, Inc.
  
 This software contains proprietary and confidential information,
 including trade secrets, belonging to Gaussian, Inc.
  
 This software is provided under written license and may be
 used, copied, transmitted, or stored only in accord with that
 written license.
  
 The following legend is applicable only to US Government
 contracts under FAR:
  
                    RESTRICTED RIGHTS LEGEND
  
 Use, reproduction and disclosure by the US Government is
 subject to restrictions as set forth in subparagraphs (a)
 and (c) of the Commercial Computer Software - Restricted
 Rights clause in FAR 52.227-19.
  
 Gaussian, Inc.
 340 Quinnipiac St., Bldg. 40, Wallingford CT 06492
  
  
 ---------------------------------------------------------------
 Warning -- This program may not be used in any manner that
 competes with the business of Gaussian, Inc. or will provide
 assistance to any competitor of Gaussian, Inc.  The licensee
 of this program is prohibited from giving any competitor of
 Gaussian, Inc. access to this program.  By using this program,
 the user acknowledges that Gaussian, Inc. is engaged in the
 business of creating and licensing software in the field of
 computational chemistry and represents and warrants to the
 licensee that it is not a competitor of Gaussian, Inc. and that
 it will not use this program in any manner prohibited above.
 ---------------------------------------------------------------
  

 Cite this work as:
 Gaussian 16, Revision A.03,
 M. J. Frisch, G. W. Trucks, H. B. Schlegel, G. E. Scuseria, 
 M. A. Robb, J. R. Cheeseman, G. Scalmani, V. Barone, 
 G. A. Petersson, H. Nakatsuji, X. Li, M. Caricato, A. V. Marenich, 
 J. Bloino, B. G. Janesko, R. Gomperts, B. Mennucci, H. P. Hratchian, 
 J. V. Ortiz, A. F. Izmaylov, J. L. Sonnenberg, D. Williams-Young, 
 F. Ding, F. Lipparini, F. Egidi, J. Goings, B. Peng, A. Petrone, 
 T. Henderson, D. Ranasinghe, V. G. Zakrzewski, J. Gao, N. Rega, 
 G. Zheng, W. Liang, M. Hada, M. Ehara, K. Toyota, R. Fukuda, 
 J. Hasegawa, M. Ishida, T. Nakajima, Y. Honda, O. Kitao, H. Nakai, 
 T. Vreven, K. Throssell, J. A. Montgomery, Jr., J. E. Peralta, 
 F. Ogliaro, M. J. Bearpark, J. J. Heyd, E. N. Brothers, K. N. Kudin, 
 V. N. Staroverov, T. A. Keith, R. Kobayashi, J. Normand, 
 K. Raghavachari, A. P. Rendell, J. C. Burant, S. S. Iyengar, 
 J. Tomasi, M. Cossi, J. M. Millam, M. Klene, C. Adamo, R. Cammi, 
 J. W. Ochterski, R. L. Martin, K. Morokuma, O. Farkas, 
 J. B. Foresman, and D. J. Fox, Gaussian, Inc., Wallingford CT, 2016.
 
 ******************************************
 Gaussian 16:  ES64L-G16RevA.03 25-Dec-2016
                15-Nov-2024 
 ******************************************
 %chk=opt.chk
 %mem=24GB
 %nprocshared=28
 Will use up to   28 processors via shared memory.
 --------------------------------------------
 #p opt UM062X/6-311+G** nosymm int=superfine
 --------------------------------------------
 1/18=20,19=15,26=5,38=1/1,3;
 2/9=110,12=2,15=1,17=6,18=5,40=1/2;
 3/5=4,6=6,7=111,11=2,25=1,30=1,71=1,74=-55,75=-7,116=2/1,2,3;
 4//1;
 5/5=2,38=5/2;
 6/7=2,8=2,9=2,10=2,28=1/1;
 7/30=1/1,2,3,16;
 1/18=20,19=15,26=5/3(2);
 2/9=110,15=1/2;
 99//99;
 2/9=110,15=1/2;
 3/5=4,6=6,7=111,11=2,25=1,30=1,71=1,74=-55,75=-7,116=2/1,2,3;
 4/5=5,16=3,69=1/1;
 5/5=2,38=5/2;
 7/30=1/1,2,3,16;
 1/18=20,19=15,26=5/3(-5);
 2/9=110,15=1/2;
 6/7=2,8=2,9=2,10=2,19=2,28=1/1;
 99/9=1/99;
 Leave Link    1 at Fri Nov 15 05:33:08 2024, MaxMem=  3221225472 cpu:               2.3 elap:               0.1
 (Enter /home/szhao/Apps/g16/l101.exe)
 -------------------
 Title Card Required
 -------------------
 Symbolic Z-matrix:
 Charge =  1 Multiplicity = 2
 C                    -1   -1.6977    0.        0. 
 C                    -1    1.6977    0.        0. 
 C                    0    -0.00001  -2.05545  -0.00218 
 C                    0    -0.00002  -3.45663  -0.00371 
 C                    0    -1.17231  -4.28965   0.19342 
 C                    0    -1.3683   -1.46623   0.1642 
 C                    0     0.68769  -5.68273  -0.12501 
 H                    0     1.34223  -6.55103  -0.24207 
 C                    0    -1.71881   0.76446   1.22074 
 C                    0    -0.68776  -5.68298   0.11279 
 H                    0    -1.34229  -6.55152   0.22811 
 C                    0     1.17225  -4.28923  -0.20263 
 C                    0     1.36828  -1.46588  -0.16728 
 C                    0     1.84779   2.19169  -1.3377 
 C                    0    -1.81436   0.40954  -1.37421 
 C                    0    -1.90555   2.76909   2.62285 
 H                    0    -2.02133   3.84515   2.68869 
 C                    0    -2.42943  -3.70309   0.41334 
 H                    0    -3.36283  -4.27951   0.58257 
 C                    0    -1.80634   1.75683  -1.86868 
 C                    0     2.495    -2.28649  -0.38846 
 H                    0     3.49841  -1.81329  -0.50709 
 C                    0     1.81439   0.40666   1.37506 
 C                    0     1.80637   1.7529    1.87236 
 C                    0     2.42942  -3.70221  -0.42114 
 H                    0     3.36282  -4.27827  -0.59154 
 C                    0    -1.84802   2.18887   1.34229 
 C                    0    -1.56892   0.04225   2.44255 
 H                    0    -1.42239  -1.02703   2.40771 
 C                    0     1.88766  -0.6279    2.36195 
 H                    0     1.92393  -1.65906   2.04522 
 C                    0    -1.81223   2.02408   3.78017 
 H                    0    -1.87001   2.50708   4.74815 
 C                    0    -2.49501  -2.2873    0.38372 
 H                    0    -3.4984   -1.81434   0.50343 
 C                    0    -1.82889   1.98025  -3.26009 
 H                    0    -1.80395   3.00603  -3.6092 
 C                    0     1.71877   0.76702  -1.21914 
 C                    0    -1.85003   3.13594   0.25924 
 H                    0    -1.87846   4.17143   0.58431 
 C                    0    -1.89975   0.95519  -4.17546 
 H                    0    -1.93389   1.17003  -5.2367 
 C                    0    -1.79862   2.95543  -1.07579 
 H                    0    -1.78123   3.86784  -1.66424 
 C                    0     1.82913   1.9734    3.26424 
 H                    0     1.80423   2.99844   3.61551 
 C                    0    -1.6211    0.64359   3.67979 
 H                    0    -1.51155   0.03773   4.57152 
 C                    0    -1.88755  -0.62294  -2.36328 
 H                    0    -1.92389  -1.65476  -2.0487 
 C                    0     1.90014   0.94641   4.17744 
 H                    0     1.93446   1.15903   5.23912 
 C                    0     1.90533   2.7746   -2.61703 
 H                    0     2.02096   3.85082  -2.6806 
 C                    0     1.94711  -0.37237   3.71002 
 H                    0     2.02576  -1.19838   4.40662 
 C                    0     1.8122    2.03202  -3.77592 
 H                    0     1.87001   2.51706  -4.74288 
 C                    0     1.84957   3.13649  -0.25266 
 H                    0     1.87769   4.17267  -0.57555 
 C                    0    -1.94683  -0.36457  -3.71082 
 H                    0    -2.02545  -1.18911  -4.40915 
 C                    0     1.79833   2.95316   1.082 
 H                    0     1.78078   3.86434   1.67236 
 C                    0     1.569     0.04736  -2.44247 
 H                    0     1.42256  -1.02199  -2.40988 
 C                    0     1.62121   0.6513   -3.67844 
 H                    0     1.51177   0.0473   -4.57144 
 
 ITRead=  2  2  0  0  0  0  0  0  0  0  0  0  0  0  0  0  0  0  0  0
 ITRead=  0  0  0  0  0  0  0  0  0  0  0  0  0  0  0  0  0  0  0  0
 ITRead=  0  0  0  0  0  0  0  0  0  0  0  0  0  0  0  0  0  0  0  0
 ITRead=  0  0  0  0  0  0  0  0
 MicOpt= -2 -2 -1 -1 -1 -1 -1 -1 -1 -1 -1 -1 -1 -1 -1 -1 -1 -1 -1 -1
 MicOpt= -1 -1 -1 -1 -1 -1 -1 -1 -1 -1 -1 -1 -1 -1 -1 -1 -1 -1 -1 -1
 MicOpt= -1 -1 -1 -1 -1 -1 -1 -1 -1 -1 -1 -1 -1 -1 -1 -1 -1 -1 -1 -1
 MicOpt= -1 -1 -1 -1 -1 -1 -1 -1
 NAtoms=     68 NQM=       66 NQMF=       2 NMMI=      0 NMMIF=      0
                NMic=       0 NMicF=      0.
                    Isotopes and Nuclear Properties:
 (Nuclear quadrupole moments (NQMom) in fm**2, nuclear magnetic moments (NMagM)
  in nuclear magnetons)

  Atom         1           2           3           4           5           6           7           8           9          10
 IAtWgt=          12          12          12          12          12          12          12           1          12          12
 AtmWgt=  12.0000000  12.0000000  12.0000000  12.0000000  12.0000000  12.0000000  12.0000000   1.0078250  12.0000000  12.0000000
 NucSpn=           0           0           0           0           0           0           0           1           0           0
 AtZEff=  -0.0000000  -0.0000000  -0.0000000  -0.0000000  -0.0000000  -0.0000000  -0.0000000  -0.0000000  -0.0000000  -0.0000000
 NQMom=    0.0000000   0.0000000   0.0000000   0.0000000   0.0000000   0.0000000   0.0000000   0.0000000   0.0000000   0.0000000
 NMagM=    0.0000000   0.0000000   0.0000000   0.0000000   0.0000000   0.0000000   0.0000000   2.7928460   0.0000000   0.0000000
 AtZNuc=   6.0000000   6.0000000   6.0000000   6.0000000   6.0000000   6.0000000   6.0000000   1.0000000   6.0000000   6.0000000

  Atom        11          12          13          14          15          16          17          18          19          20
 IAtWgt=           1          12          12          12          12          12           1          12           1          12
 AtmWgt=   1.0078250  12.0000000  12.0000000  12.0000000  12.0000000  12.0000000   1.0078250  12.0000000   1.0078250  12.0000000
 NucSpn=           1           0           0           0           0           0           1           0           1           0
 AtZEff=  -0.0000000  -0.0000000  -0.0000000  -0.0000000  -0.0000000  -0.0000000  -0.0000000  -0.0000000  -0.0000000  -0.0000000
 NQMom=    0.0000000   0.0000000   0.0000000   0.0000000   0.0000000   0.0000000   0.0000000   0.0000000   0.0000000   0.0000000
 NMagM=    2.7928460   0.0000000   0.0000000   0.0000000   0.0000000   0.0000000   2.7928460   0.0000000   2.7928460   0.0000000
 AtZNuc=   1.0000000   6.0000000   6.0000000   6.0000000   6.0000000   6.0000000   1.0000000   6.0000000   1.0000000   6.0000000

  Atom        21          22          23          24          25          26          27          28          29          30
 IAtWgt=          12           1          12          12          12           1          12          12           1          12
 AtmWgt=  12.0000000   1.0078250  12.0000000  12.0000000  12.0000000   1.0078250  12.0000000  12.0000000   1.0078250  12.0000000
 NucSpn=           0           1           0           0           0           1           0           0           1           0
 AtZEff=  -0.0000000  -0.0000000  -0.0000000  -0.0000000  -0.0000000  -0.0000000  -0.0000000  -0.0000000  -0.0000000  -0.0000000
 NQMom=    0.0000000   0.0000000   0.0000000   0.0000000   0.0000000   0.0000000   0.0000000   0.0000000   0.0000000   0.0000000
 NMagM=    0.0000000   2.7928460   0.0000000   0.0000000   0.0000000   2.7928460   0.0000000   0.0000000   2.7928460   0.0000000
 AtZNuc=   6.0000000   1.0000000   6.0000000   6.0000000   6.0000000   1.0000000   6.0000000   6.0000000   1.0000000   6.0000000

  Atom        31          32          33          34          35          36          37          38          39          40
 IAtWgt=           1          12           1          12           1          12           1          12          12           1
 AtmWgt=   1.0078250  12.0000000   1.0078250  12.0000000   1.0078250  12.0000000   1.0078250  12.0000000  12.0000000   1.0078250
 NucSpn=           1           0           1           0           1           0           1           0           0           1
 AtZEff=  -0.0000000  -0.0000000  -0.0000000  -0.0000000  -0.0000000  -0.0000000  -0.0000000  -0.0000000  -0.0000000  -0.0000000
 NQMom=    0.0000000   0.0000000   0.0000000   0.0000000   0.0000000   0.0000000   0.0000000   0.0000000   0.0000000   0.0000000
 NMagM=    2.7928460   0.0000000   2.7928460   0.0000000   2.7928460   0.0000000   2.7928460   0.0000000   0.0000000   2.7928460
 AtZNuc=   1.0000000   6.0000000   1.0000000   6.0000000   1.0000000   6.0000000   1.0000000   6.0000000   6.0000000   1.0000000

  Atom        41          42          43          44          45          46          47          48          49          50
 IAtWgt=          12           1          12           1          12           1          12           1          12           1
 AtmWgt=  12.0000000   1.0078250  12.0000000   1.0078250  12.0000000   1.0078250  12.0000000   1.0078250  12.0000000   1.0078250
 NucSpn=           0           1           0           1           0           1           0           1           0           1
 AtZEff=  -0.0000000  -0.0000000  -0.0000000  -0.0000000  -0.0000000  -0.0000000  -0.0000000  -0.0000000  -0.0000000  -0.0000000
 NQMom=    0.0000000   0.0000000   0.0000000   0.0000000   0.0000000   0.0000000   0.0000000   0.0000000   0.0000000   0.0000000
 NMagM=    0.0000000   2.7928460   0.0000000   2.7928460   0.0000000   2.7928460   0.0000000   2.7928460   0.0000000   2.7928460
 AtZNuc=   6.0000000   1.0000000   6.0000000   1.0000000   6.0000000   1.0000000   6.0000000   1.0000000   6.0000000   1.0000000

  Atom        51          52          53          54          55          56          57          58          59          60
 IAtWgt=          12           1          12           1          12           1          12           1          12           1
 AtmWgt=  12.0000000   1.0078250  12.0000000   1.0078250  12.0000000   1.0078250  12.0000000   1.0078250  12.0000000   1.0078250
 NucSpn=           0           1           0           1           0           1           0           1           0           1
 AtZEff=  -0.0000000  -0.0000000  -0.0000000  -0.0000000  -0.0000000  -0.0000000  -0.0000000  -0.0000000  -0.0000000  -0.0000000
 NQMom=    0.0000000   0.0000000   0.0000000   0.0000000   0.0000000   0.0000000   0.0000000   0.0000000   0.0000000   0.0000000
 NMagM=    0.0000000   2.7928460   0.0000000   2.7928460   0.0000000   2.7928460   0.0000000   2.7928460   0.0000000   2.7928460
 AtZNuc=   6.0000000   1.0000000   6.0000000   1.0000000   6.0000000   1.0000000   6.0000000   1.0000000   6.0000000   1.0000000

  Atom        61          62          63          64          65          66          67          68
 IAtWgt=          12           1          12           1          12           1          12           1
 AtmWgt=  12.0000000   1.0078250  12.0000000   1.0078250  12.0000000   1.0078250  12.0000000   1.0078250
 NucSpn=           0           1           0           1           0           1           0           1
 AtZEff=  -0.0000000  -0.0000000  -0.0000000  -0.0000000  -0.0000000  -0.0000000  -0.0000000  -0.0000000
 NQMom=    0.0000000   0.0000000   0.0000000   0.0000000   0.0000000   0.0000000   0.0000000   0.0000000
 NMagM=    0.0000000   2.7928460   0.0000000   2.7928460   0.0000000   2.7928460   0.0000000   2.7928460
 AtZNuc=   6.0000000   1.0000000   6.0000000   1.0000000   6.0000000   1.0000000   6.0000000   1.0000000
 Leave Link  101 at Fri Nov 15 05:33:09 2024, MaxMem=  3221225472 cpu:              21.8 elap:               0.8
 (Enter /home/szhao/Apps/g16/l103.exe)

 GradGradGradGradGradGradGradGradGradGradGradGradGradGradGradGradGradGrad
 Berny optimization.
 Initialization pass.
                           ----------------------------
                           !    Initial Parameters    !
                           ! (Angstroms and Degrees)  !
 --------------------------                            --------------------------
 ! Name  Definition              Value          Derivative Info.                !
 --------------------------------------------------------------------------------
 ! X1    R(1,-1)                -1.6977         Frozen                          !
 ! Y1    R(1,-2)                 0.0            Frozen                          !
 ! Z1    R(1,-3)                 0.0            Frozen                          !
 ! X2    R(2,-1)                 1.6977         Frozen                          !
 ! Y2    R(2,-2)                 0.0            Frozen                          !
 ! Z2    R(2,-3)                 0.0            Frozen                          !
 ! R1    R(1,6)                  1.5117         estimate D2E/DX2                !
 ! R2    R(1,9)                  1.4405         estimate D2E/DX2                !
 ! R3    R(1,15)                 1.4387         estimate D2E/DX2                !
 ! R4    R(2,13)                 1.5117         estimate D2E/DX2                !
 ! R5    R(2,23)                 1.4387         estimate D2E/DX2                !
 ! R6    R(2,38)                 1.4405         estimate D2E/DX2                !
 ! R7    R(3,4)                  1.4012         estimate D2E/DX2                !
 ! R8    R(3,6)                  1.499          estimate D2E/DX2                !
 ! R9    R(3,13)                 1.499          estimate D2E/DX2                !
 ! R10   R(4,5)                  1.4516         estimate D2E/DX2                !
 ! R11   R(4,12)                 1.4516         estimate D2E/DX2                !
 ! R12   R(5,10)                 1.4774         estimate D2E/DX2                !
 ! R13   R(5,18)                 1.4046         estimate D2E/DX2                !
 ! R14   R(6,34)                 1.4113         estimate D2E/DX2                !
 ! R15   R(7,8)                  1.0936         estimate D2E/DX2                !
 ! R16   R(7,10)                 1.3959         estimate D2E/DX2                !
 ! R17   R(7,12)                 1.4774         estimate D2E/DX2                !
 ! R18   R(9,27)                 1.4354         estimate D2E/DX2                !
 ! R19   R(9,28)                 1.4272         estimate D2E/DX2                !
 ! R20   R(10,11)                1.0936         estimate D2E/DX2                !
 ! R21   R(12,25)                1.4046         estimate D2E/DX2                !
 ! R22   R(13,21)                1.4113         estimate D2E/DX2                !
 ! R23   R(14,38)                1.4354         estimate D2E/DX2                !
 ! R24   R(14,53)                1.4071         estimate D2E/DX2                !
 ! R25   R(14,59)                1.4387         estimate D2E/DX2                !
 ! R26   R(15,20)                1.4352         estimate D2E/DX2                !
 ! R27   R(15,49)                1.4317         estimate D2E/DX2                !
 ! R28   R(16,17)                1.0843         estimate D2E/DX2                !
 ! R29   R(16,27)                1.4071         estimate D2E/DX2                !
 ! R30   R(16,32)                1.3795         estimate D2E/DX2                !
 ! R31   R(18,19)                1.11           estimate D2E/DX2                !
 ! R32   R(18,34)                1.4176         estimate D2E/DX2                !
 ! R33   R(20,36)                1.4094         estimate D2E/DX2                !
 ! R34   R(20,43)                1.4371         estimate D2E/DX2                !
 ! R35   R(21,22)                1.1157         estimate D2E/DX2                !
 ! R36   R(21,25)                1.4176         estimate D2E/DX2                !
 ! R37   R(23,24)                1.4352         estimate D2E/DX2                !
 ! R38   R(23,30)                1.4317         estimate D2E/DX2                !
 ! R39   R(24,45)                1.4094         estimate D2E/DX2                !
 ! R40   R(24,63)                1.4371         estimate D2E/DX2                !
 ! R41   R(25,26)                1.11           estimate D2E/DX2                !
 ! R42   R(27,39)                1.4387         estimate D2E/DX2                !
 ! R43   R(28,29)                1.0798         estimate D2E/DX2                !
 ! R44   R(28,47)                1.3766         estimate D2E/DX2                !
 ! R45   R(30,31)                1.0793         estimate D2E/DX2                !
 ! R46   R(30,55)                1.3734         estimate D2E/DX2                !
 ! R47   R(32,33)                1.0833         estimate D2E/DX2                !
 ! R48   R(32,47)                1.3973         estimate D2E/DX2                !
 ! R49   R(34,35)                1.1157         estimate D2E/DX2                !
 ! R50   R(36,37)                1.0838         estimate D2E/DX2                !
 ! R51   R(36,41)                1.3761         estimate D2E/DX2                !
 ! R52   R(38,65)                1.4272         estimate D2E/DX2                !
 ! R53   R(39,40)                1.0857         estimate D2E/DX2                !
 ! R54   R(39,43)                1.3482         estimate D2E/DX2                !
 ! R55   R(41,42)                1.0833         estimate D2E/DX2                !
 ! R56   R(41,61)                1.4            estimate D2E/DX2                !
 ! R57   R(43,44)                1.0859         estimate D2E/DX2                !
 ! R58   R(45,46)                1.0838         estimate D2E/DX2                !
 ! R59   R(45,51)                1.3761         estimate D2E/DX2                !
 ! R60   R(47,48)                1.0836         estimate D2E/DX2                !
 ! R61   R(49,50)                1.0793         estimate D2E/DX2                !
 ! R62   R(49,61)                1.3734         estimate D2E/DX2                !
 ! R63   R(51,52)                1.0833         estimate D2E/DX2                !
 ! R64   R(51,55)                1.4            estimate D2E/DX2                !
 ! R65   R(53,54)                1.0843         estimate D2E/DX2                !
 ! R66   R(53,57)                1.3795         estimate D2E/DX2                !
 ! R67   R(55,56)                1.0834         estimate D2E/DX2                !
 ! R68   R(57,58)                1.0833         estimate D2E/DX2                !
 ! R69   R(57,67)                1.3973         estimate D2E/DX2                !
 ! R70   R(59,60)                1.0857         estimate D2E/DX2                !
 ! R71   R(59,63)                1.3482         estimate D2E/DX2                !
 ! R72   R(61,62)                1.0834         estimate D2E/DX2                !
 ! R73   R(63,64)                1.0859         estimate D2E/DX2                !
 ! R74   R(65,66)                1.0798         estimate D2E/DX2                !
 ! R75   R(65,67)                1.3766         estimate D2E/DX2                !
 ! R76   R(67,68)                1.0836         estimate D2E/DX2                !
 ! A1    A(6,1,9)              115.2056         estimate D2E/DX2                !
 ! A2    A(6,1,15)             113.4231         estimate D2E/DX2                !
 ! A3    A(9,1,15)             131.0875         estimate D2E/DX2                !
 ! A4    A(13,2,23)            113.4236         estimate D2E/DX2                !
 ! A5    A(13,2,38)            115.2049         estimate D2E/DX2                !
 ! A6    A(23,2,38)            131.0876         estimate D2E/DX2                !
 ! A7    A(4,3,6)              113.1526         estimate D2E/DX2                !
 ! A8    A(4,3,13)             113.1529         estimate D2E/DX2                !
 ! A9    A(6,3,13)             133.6945         estimate D2E/DX2                !
 ! A10   A(3,4,5)              125.0108         estimate D2E/DX2                !
 ! A11   A(3,4,12)             125.011          estimate D2E/DX2                !
 ! A12   A(5,4,12)             109.9782         estimate D2E/DX2                !
 ! A13   A(4,5,10)             105.6014         estimate D2E/DX2                !
 ! A14   A(4,5,18)             120.2942         estimate D2E/DX2                !
 ! A15   A(10,5,18)            134.1026         estimate D2E/DX2                !
 ! A16   A(1,6,3)              124.6159         estimate D2E/DX2                !
 ! A17   A(1,6,34)             114.0301         estimate D2E/DX2                !
 ! A18   A(3,6,34)             121.1511         estimate D2E/DX2                !
 ! A19   A(8,7,10)             127.4333         estimate D2E/DX2                !
 ! A20   A(8,7,12)             123.1576         estimate D2E/DX2                !
 ! A21   A(10,7,12)            109.4091         estimate D2E/DX2                !
 ! A22   A(1,9,27)             126.8485         estimate D2E/DX2                !
 ! A23   A(1,9,28)             117.0909         estimate D2E/DX2                !
 ! A24   A(27,9,28)            116.0474         estimate D2E/DX2                !
 ! A25   A(5,10,7)             109.4088         estimate D2E/DX2                !
 ! A26   A(5,10,11)            123.1577         estimate D2E/DX2                !
 ! A27   A(7,10,11)            127.4335         estimate D2E/DX2                !
 ! A28   A(4,12,7)             105.6013         estimate D2E/DX2                !
 ! A29   A(4,12,25)            120.294          estimate D2E/DX2                !
 ! A30   A(7,12,25)            134.1028         estimate D2E/DX2                !
 ! A31   A(2,13,3)             124.6171         estimate D2E/DX2                !
 ! A32   A(2,13,21)            114.0289         estimate D2E/DX2                !
 ! A33   A(3,13,21)            121.1511         estimate D2E/DX2                !
 ! A34   A(38,14,53)           119.3377         estimate D2E/DX2                !
 ! A35   A(38,14,59)           126.1285         estimate D2E/DX2                !
 ! A36   A(53,14,59)           114.4313         estimate D2E/DX2                !
 ! A37   A(1,15,20)            126.5749         estimate D2E/DX2                !
 ! A38   A(1,15,49)            117.3068         estimate D2E/DX2                !
 ! A39   A(20,15,49)           116.0575         estimate D2E/DX2                !
 ! A40   A(17,16,27)           117.9609         estimate D2E/DX2                !
 ! A41   A(17,16,32)           119.4876         estimate D2E/DX2                !
 ! A42   A(27,16,32)           122.5502         estimate D2E/DX2                !
 ! A43   A(5,18,19)            124.03           estimate D2E/DX2                !
 ! A44   A(5,18,34)            117.0779         estimate D2E/DX2                !
 ! A45   A(19,18,34)           118.876          estimate D2E/DX2                !
 ! A46   A(15,20,36)           119.2654         estimate D2E/DX2                !
 ! A47   A(15,20,43)           126.3619         estimate D2E/DX2                !
 ! A48   A(36,20,43)           114.3647         estimate D2E/DX2                !
 ! A49   A(13,21,22)           119.2116         estimate D2E/DX2                !
 ! A50   A(13,21,25)           123.1856         estimate D2E/DX2                !
 ! A51   A(22,21,25)           117.5625         estimate D2E/DX2                !
 ! A52   A(2,23,24)            126.5753         estimate D2E/DX2                !
 ! A53   A(2,23,30)            117.3064         estimate D2E/DX2                !
 ! A54   A(24,23,30)           116.0576         estimate D2E/DX2                !
 ! A55   A(23,24,45)           119.2654         estimate D2E/DX2                !
 ! A56   A(23,24,63)           126.3618         estimate D2E/DX2                !
 ! A57   A(45,24,63)           114.3649         estimate D2E/DX2                !
 ! A58   A(12,25,21)           117.0779         estimate D2E/DX2                !
 ! A59   A(12,25,26)           124.0301         estimate D2E/DX2                !
 ! A60   A(21,25,26)           118.876          estimate D2E/DX2                !
 ! A61   A(9,27,16)            119.3375         estimate D2E/DX2                !
 ! A62   A(9,27,39)            126.1289         estimate D2E/DX2                !
 ! A63   A(16,27,39)           114.4312         estimate D2E/DX2                !
 ! A64   A(9,28,29)            119.1909         estimate D2E/DX2                !
 ! A65   A(9,28,47)            122.9826         estimate D2E/DX2                !
 ! A66   A(29,28,47)           117.8197         estimate D2E/DX2                !
 ! A67   A(23,30,31)           119.3284         estimate D2E/DX2                !
 ! A68   A(23,30,55)           122.9839         estimate D2E/DX2                !
 ! A69   A(31,30,55)           117.6688         estimate D2E/DX2                !
 ! A70   A(16,32,33)           120.3448         estimate D2E/DX2                !
 ! A71   A(16,32,47)           118.8514         estimate D2E/DX2                !
 ! A72   A(33,32,47)           120.7959         estimate D2E/DX2                !
 ! A73   A(6,34,18)            123.1854         estimate D2E/DX2                !
 ! A74   A(6,34,35)            119.2115         estimate D2E/DX2                !
 ! A75   A(18,34,35)           117.5626         estimate D2E/DX2                !
 ! A76   A(20,36,37)           117.8817         estimate D2E/DX2                !
 ! A77   A(20,36,41)           122.6449         estimate D2E/DX2                !
 ! A78   A(37,36,41)           119.4669         estimate D2E/DX2                !
 ! A79   A(2,38,14)            126.8484         estimate D2E/DX2                !
 ! A80   A(2,38,65)            117.0912         estimate D2E/DX2                !
 ! A81   A(14,38,65)           116.0472         estimate D2E/DX2                !
 ! A82   A(27,39,40)           113.7332         estimate D2E/DX2                !
 ! A83   A(27,39,43)           131.0907         estimate D2E/DX2                !
 ! A84   A(40,39,43)           115.1637         estimate D2E/DX2                !
 ! A85   A(36,41,42)           120.3665         estimate D2E/DX2                !
 ! A86   A(36,41,61)           118.8938         estimate D2E/DX2                !
 ! A87   A(42,41,61)           120.7329         estimate D2E/DX2                !
 ! A88   A(20,43,39)           131.1332         estimate D2E/DX2                !
 ! A89   A(20,43,44)           113.6973         estimate D2E/DX2                !
 ! A90   A(39,43,44)           115.1343         estimate D2E/DX2                !
 ! A91   A(24,45,46)           117.8818         estimate D2E/DX2                !
 ! A92   A(24,45,51)           122.645          estimate D2E/DX2                !
 ! A93   A(46,45,51)           119.4666         estimate D2E/DX2                !
 ! A94   A(28,47,32)           120.088          estimate D2E/DX2                !
 ! A95   A(28,47,48)           119.4408         estimate D2E/DX2                !
 ! A96   A(32,47,48)           120.4711         estimate D2E/DX2                !
 ! A97   A(15,49,50)           119.3277         estimate D2E/DX2                !
 ! A98   A(15,49,61)           122.9839         estimate D2E/DX2                !
 ! A99   A(50,49,61)           117.6696         estimate D2E/DX2                !
 ! A100  A(45,51,52)           120.3663         estimate D2E/DX2                !
 ! A101  A(45,51,55)           118.8938         estimate D2E/DX2                !
 ! A102  A(52,51,55)           120.7332         estimate D2E/DX2                !
 ! A103  A(14,53,54)           117.9606         estimate D2E/DX2                !
 ! A104  A(14,53,57)           122.5503         estimate D2E/DX2                !
 ! A105  A(54,53,57)           119.4878         estimate D2E/DX2                !
 ! A106  A(30,55,51)           120.1028         estimate D2E/DX2                !
 ! A107  A(30,55,56)           119.5001         estimate D2E/DX2                !
 ! A108  A(51,55,56)           120.3965         estimate D2E/DX2                !
 ! A109  A(53,57,58)           120.3448         estimate D2E/DX2                !
 ! A110  A(53,57,67)           118.851          estimate D2E/DX2                !
 ! A111  A(58,57,67)           120.7964         estimate D2E/DX2                !
 ! A112  A(14,59,60)           113.7332         estimate D2E/DX2                !
 ! A113  A(14,59,63)           131.091          estimate D2E/DX2                !
 ! A114  A(60,59,63)           115.1635         estimate D2E/DX2                !
 ! A115  A(41,61,49)           120.1028         estimate D2E/DX2                !
 ! A116  A(41,61,62)           120.3966         estimate D2E/DX2                !
 ! A117  A(49,61,62)           119.5            estimate D2E/DX2                !
 ! A118  A(24,63,59)           131.1331         estimate D2E/DX2                !
 ! A119  A(24,63,64)           113.6974         estimate D2E/DX2                !
 ! A120  A(59,63,64)           115.1343         estimate D2E/DX2                !
 ! A121  A(38,65,66)           119.1912         estimate D2E/DX2                !
 ! A122  A(38,65,67)           122.9826         estimate D2E/DX2                !
 ! A123  A(66,65,67)           117.8196         estimate D2E/DX2                !
 ! A124  A(57,67,65)           120.0881         estimate D2E/DX2                !
 ! A125  A(57,67,68)           120.4713         estimate D2E/DX2                !
 ! A126  A(65,67,68)           119.4405         estimate D2E/DX2                !
 ! D1    D(9,1,6,3)            -95.7122         estimate D2E/DX2                !
 ! D2    D(9,1,6,34)            89.4315         estimate D2E/DX2                !
 ! D3    D(15,1,6,3)            78.8582         estimate D2E/DX2                !
 ! D4    D(15,1,6,34)          -95.9981         estimate D2E/DX2                !
 ! D5    D(6,1,9,27)           172.2964         estimate D2E/DX2                !
 ! D6    D(6,1,9,28)            -6.321          estimate D2E/DX2                !
 ! D7    D(15,1,9,27)           -1.0887         estimate D2E/DX2                !
 ! D8    D(15,1,9,28)         -179.706          estimate D2E/DX2                !
 ! D9    D(6,1,15,20)         -164.4257         estimate D2E/DX2                !
 ! D10   D(6,1,15,49)           12.613          estimate D2E/DX2                !
 ! D11   D(9,1,15,20)            9.0521         estimate D2E/DX2                !
 ! D12   D(9,1,15,49)         -173.9092         estimate D2E/DX2                !
 ! D13   D(23,2,13,3)           78.8613         estimate D2E/DX2                !
 ! D14   D(23,2,13,21)         -95.9941         estimate D2E/DX2                !
 ! D15   D(38,2,13,3)          -95.7082         estimate D2E/DX2                !
 ! D16   D(38,2,13,21)          89.4364         estimate D2E/DX2                !
 ! D17   D(13,2,23,24)        -164.4246         estimate D2E/DX2                !
 ! D18   D(13,2,23,30)          12.616          estimate D2E/DX2                !
 ! D19   D(38,2,23,24)           9.052          estimate D2E/DX2                !
 ! D20   D(38,2,23,30)        -173.9074         estimate D2E/DX2                !
 ! D21   D(13,2,38,14)         172.2867         estimate D2E/DX2                !
 ! D22   D(13,2,38,65)          -6.3285         estimate D2E/DX2                !
 ! D23   D(23,2,38,14)          -1.0972         estimate D2E/DX2                !
 ! D24   D(23,2,38,65)        -179.7124         estimate D2E/DX2                !
 ! D25   D(6,3,4,5)             -2.6821         estimate D2E/DX2                !
 ! D26   D(6,3,4,12)           177.3189         estimate D2E/DX2                !
 ! D27   D(13,3,4,5)           177.3178         estimate D2E/DX2                !
 ! D28   D(13,3,4,12)           -2.6812         estimate D2E/DX2                !
 ! D29   D(4,3,6,1)           -170.5531         estimate D2E/DX2                !
 ! D30   D(4,3,6,34)             3.9564         estimate D2E/DX2                !
 ! D31   D(13,3,6,1)             9.447          estimate D2E/DX2                !
 ! D32   D(13,3,6,34)         -176.0434         estimate D2E/DX2                !
 ! D33   D(4,3,13,2)          -170.5582         estimate D2E/DX2                !
 ! D34   D(4,3,13,21)            3.9503         estimate D2E/DX2                !
 ! D35   D(6,3,13,2)             9.4417         estimate D2E/DX2                !
 ! D36   D(6,3,13,21)         -176.0498         estimate D2E/DX2                !
 ! D37   D(3,4,5,10)          -179.8912         estimate D2E/DX2                !
 ! D38   D(3,4,5,18)            -0.322          estimate D2E/DX2                !
 ! D39   D(12,4,5,10)            0.108          estimate D2E/DX2                !
 ! D40   D(12,4,5,18)          179.6771         estimate D2E/DX2                !
 ! D41   D(3,4,12,7)          -179.8926         estimate D2E/DX2                !
 ! D42   D(3,4,12,25)           -0.3164         estimate D2E/DX2                !
 ! D43   D(5,4,12,7)             0.1083         estimate D2E/DX2                !
 ! D44   D(5,4,12,25)          179.6845         estimate D2E/DX2                !
 ! D45   D(4,5,10,7)            -0.2994         estimate D2E/DX2                !
 ! D46   D(4,5,10,11)          179.6877         estimate D2E/DX2                !
 ! D47   D(18,5,10,7)         -179.7813         estimate D2E/DX2                !
 ! D48   D(18,5,10,11)           0.2058         estimate D2E/DX2                !
 ! D49   D(4,5,18,19)         -179.2775         estimate D2E/DX2                !
 ! D50   D(4,5,18,34)            2.1956         estimate D2E/DX2                !
 ! D51   D(10,5,18,19)           0.1447         estimate D2E/DX2                !
 ! D52   D(10,5,18,34)        -178.3823         estimate D2E/DX2                !
 ! D53   D(1,6,34,18)          172.6665         estimate D2E/DX2                !
 ! D54   D(1,6,34,35)           -4.9619         estimate D2E/DX2                !
 ! D55   D(3,6,34,18)           -2.3876         estimate D2E/DX2                !
 ! D56   D(3,6,34,35)          179.984          estimate D2E/DX2                !
 ! D57   D(8,7,10,5)          -179.6191         estimate D2E/DX2                !
 ! D58   D(8,7,10,11)            0.3944         estimate D2E/DX2                !
 ! D59   D(12,7,10,5)            0.3761         estimate D2E/DX2                !
 ! D60   D(12,7,10,11)        -179.6103         estimate D2E/DX2                !
 ! D61   D(8,7,12,4)           179.696          estimate D2E/DX2                !
 ! D62   D(8,7,12,25)            0.2055         estimate D2E/DX2                !
 ! D63   D(10,7,12,4)           -0.2996         estimate D2E/DX2                !
 ! D64   D(10,7,12,25)        -179.79           estimate D2E/DX2                !
 ! D65   D(1,9,27,16)          177.3841         estimate D2E/DX2                !
 ! D66   D(1,9,27,39)           -6.5107         estimate D2E/DX2                !
 ! D67   D(28,9,27,16)          -3.986          estimate D2E/DX2                !
 ! D68   D(28,9,27,39)         172.1192         estimate D2E/DX2                !
 ! D69   D(1,9,28,29)            1.5365         estimate D2E/DX2                !
 ! D70   D(1,9,28,47)         -177.5028         estimate D2E/DX2                !
 ! D71   D(27,9,28,29)        -177.232          estimate D2E/DX2                !
 ! D72   D(27,9,28,47)           3.7287         estimate D2E/DX2                !
 ! D73   D(4,12,25,21)           2.1889         estimate D2E/DX2                !
 ! D74   D(4,12,25,26)        -179.2814         estimate D2E/DX2                !
 ! D75   D(7,12,25,21)        -178.3795         estimate D2E/DX2                !
 ! D76   D(7,12,25,26)           0.1502         estimate D2E/DX2                !
 ! D77   D(2,13,21,22)          -4.9598         estimate D2E/DX2                !
 ! D78   D(2,13,21,25)         172.671          estimate D2E/DX2                !
 ! D79   D(3,13,21,22)         179.9869         estimate D2E/DX2                !
 ! D80   D(3,13,21,25)          -2.3823         estimate D2E/DX2                !
 ! D81   D(53,14,38,2)         177.3835         estimate D2E/DX2                !
 ! D82   D(53,14,38,65)         -3.9887         estimate D2E/DX2                !
 ! D83   D(59,14,38,2)          -6.5132         estimate D2E/DX2                !
 ! D84   D(59,14,38,65)        172.1146         estimate D2E/DX2                !
 ! D85   D(38,14,53,54)       -178.9113         estimate D2E/DX2                !
 ! D86   D(38,14,53,57)          1.5012         estimate D2E/DX2                !
 ! D87   D(59,14,53,54)          4.545          estimate D2E/DX2                !
 ! D88   D(59,14,53,57)       -175.0425         estimate D2E/DX2                !
 ! D89   D(38,14,59,60)       -175.2533         estimate D2E/DX2                !
 ! D90   D(38,14,59,63)          3.3846         estimate D2E/DX2                !
 ! D91   D(53,14,59,60)          1.0159         estimate D2E/DX2                !
 ! D92   D(53,14,59,63)        179.6538         estimate D2E/DX2                !
 ! D93   D(1,15,20,36)         175.196          estimate D2E/DX2                !
 ! D94   D(1,15,20,43)          -5.8885         estimate D2E/DX2                !
 ! D95   D(49,15,20,36)         -1.875          estimate D2E/DX2                !
 ! D96   D(49,15,20,43)        177.0405         estimate D2E/DX2                !
 ! D97   D(1,15,49,50)           4.2918         estimate D2E/DX2                !
 ! D98   D(1,15,49,61)        -177.3246         estimate D2E/DX2                !
 ! D99   D(20,15,49,50)       -178.3552         estimate D2E/DX2                !
 ! D100  D(20,15,49,61)          0.0284         estimate D2E/DX2                !
 ! D101  D(17,16,27,9)        -178.9108         estimate D2E/DX2                !
 ! D102  D(17,16,27,39)          4.5438         estimate D2E/DX2                !
 ! D103  D(32,16,27,9)           1.5022         estimate D2E/DX2                !
 ! D104  D(32,16,27,39)       -175.0432         estimate D2E/DX2                !
 ! D105  D(17,16,32,33)          0.9799         estimate D2E/DX2                !
 ! D106  D(17,16,32,47)       -178.0092         estimate D2E/DX2                !
 ! D107  D(27,16,32,33)       -179.4392         estimate D2E/DX2                !
 ! D108  D(27,16,32,47)          1.5717         estimate D2E/DX2                !
 ! D109  D(5,18,34,6)           -0.8352         estimate D2E/DX2                !
 ! D110  D(5,18,34,35)         176.8298         estimate D2E/DX2                !
 ! D111  D(19,18,34,6)        -179.4411         estimate D2E/DX2                !
 ! D112  D(19,18,34,35)         -1.7761         estimate D2E/DX2                !
 ! D113  D(15,20,36,37)       -178.9039         estimate D2E/DX2                !
 ! D114  D(15,20,36,41)          2.0371         estimate D2E/DX2                !
 ! D115  D(43,20,36,37)          2.0548         estimate D2E/DX2                !
 ! D116  D(43,20,36,41)       -177.0042         estimate D2E/DX2                !
 ! D117  D(15,20,43,39)         -2.9996         estimate D2E/DX2                !
 ! D118  D(15,20,43,44)        179.3042         estimate D2E/DX2                !
 ! D119  D(36,20,43,39)        175.9619         estimate D2E/DX2                !
 ! D120  D(36,20,43,44)         -1.7343         estimate D2E/DX2                !
 ! D121  D(13,21,25,12)         -0.8338         estimate D2E/DX2                !
 ! D122  D(13,21,25,26)       -179.4423         estimate D2E/DX2                !
 ! D123  D(22,21,25,12)        176.8336         estimate D2E/DX2                !
 ! D124  D(22,21,25,26)         -1.7749         estimate D2E/DX2                !
 ! D125  D(2,23,24,45)         175.204          estimate D2E/DX2                !
 ! D126  D(2,23,24,63)          -5.8733         estimate D2E/DX2                !
 ! D127  D(30,23,24,45)         -1.8689         estimate D2E/DX2                !
 ! D128  D(30,23,24,63)        177.0537         estimate D2E/DX2                !
 ! D129  D(2,23,30,31)           4.2861         estimate D2E/DX2                !
 ! D130  D(2,23,30,55)        -177.3311         estimate D2E/DX2                !
 ! D131  D(24,23,30,31)       -178.3591         estimate D2E/DX2                !
 ! D132  D(24,23,30,55)          0.0237         estimate D2E/DX2                !
 ! D133  D(23,24,45,46)       -178.9059         estimate D2E/DX2                !
 ! D134  D(23,24,45,51)          2.0343         estimate D2E/DX2                !
 ! D135  D(63,24,45,46)          2.0465         estimate D2E/DX2                !
 ! D136  D(63,24,45,51)       -177.0133         estimate D2E/DX2                !
 ! D137  D(23,24,63,59)         -3.0119         estimate D2E/DX2                !
 ! D138  D(23,24,63,64)        179.2912         estimate D2E/DX2                !
 ! D139  D(45,24,63,59)        175.9564         estimate D2E/DX2                !
 ! D140  D(45,24,63,64)         -1.7405         estimate D2E/DX2                !
 ! D141  D(9,27,39,40)        -175.2643         estimate D2E/DX2                !
 ! D142  D(9,27,39,43)           3.3694         estimate D2E/DX2                !
 ! D143  D(16,27,39,40)          1.0068         estimate D2E/DX2                !
 ! D144  D(16,27,39,43)        179.6404         estimate D2E/DX2                !
 ! D145  D(9,28,47,32)          -0.7924         estimate D2E/DX2                !
 ! D146  D(9,28,47,48)         179.2862         estimate D2E/DX2                !
 ! D147  D(29,28,47,32)       -179.8441         estimate D2E/DX2                !
 ! D148  D(29,28,47,48)          0.2345         estimate D2E/DX2                !
 ! D149  D(23,30,55,51)          1.778          estimate D2E/DX2                !
 ! D150  D(23,30,55,56)       -178.5073         estimate D2E/DX2                !
 ! D151  D(31,30,55,51)       -179.814          estimate D2E/DX2                !
 ! D152  D(31,30,55,56)         -0.0992         estimate D2E/DX2                !
 ! D153  D(16,32,47,28)         -1.9422         estimate D2E/DX2                !
 ! D154  D(16,32,47,48)        177.9783         estimate D2E/DX2                !
 ! D155  D(33,32,47,28)        179.0733         estimate D2E/DX2                !
 ! D156  D(33,32,47,48)         -1.0061         estimate D2E/DX2                !
 ! D157  D(20,36,41,42)        178.8324         estimate D2E/DX2                !
 ! D158  D(20,36,41,61)         -0.2289         estimate D2E/DX2                !
 ! D159  D(37,36,41,42)         -0.2122         estimate D2E/DX2                !
 ! D160  D(37,36,41,61)       -179.2735         estimate D2E/DX2                !
 ! D161  D(2,38,65,66)           1.5378         estimate D2E/DX2                !
 ! D162  D(2,38,65,67)        -177.5003         estimate D2E/DX2                !
 ! D163  D(14,38,65,66)       -177.2288         estimate D2E/DX2                !
 ! D164  D(14,38,65,67)          3.7331         estimate D2E/DX2                !
 ! D165  D(27,39,43,20)          4.3324         estimate D2E/DX2                !
 ! D166  D(27,39,43,44)       -177.9979         estimate D2E/DX2                !
 ! D167  D(40,39,43,20)       -177.0496         estimate D2E/DX2                !
 ! D168  D(40,39,43,44)          0.6202         estimate D2E/DX2                !
 ! D169  D(36,41,61,49)         -1.6732         estimate D2E/DX2                !
 ! D170  D(36,41,61,62)        178.6138         estimate D2E/DX2                !
 ! D171  D(42,41,61,49)        179.269          estimate D2E/DX2                !
 ! D172  D(42,41,61,62)         -0.444          estimate D2E/DX2                !
 ! D173  D(24,45,51,52)        178.8313         estimate D2E/DX2                !
 ! D174  D(24,45,51,55)         -0.2312         estimate D2E/DX2                !
 ! D175  D(46,45,51,52)         -0.2142         estimate D2E/DX2                !
 ! D176  D(46,45,51,55)       -179.2767         estimate D2E/DX2                !
 ! D177  D(15,49,61,41)          1.7783         estimate D2E/DX2                !
 ! D178  D(15,49,61,62)       -178.5061         estimate D2E/DX2                !
 ! D179  D(50,49,61,41)       -179.8129         estimate D2E/DX2                !
 ! D180  D(50,49,61,62)         -0.0973         estimate D2E/DX2                !
 ! D181  D(45,51,55,30)         -1.6693         estimate D2E/DX2                !
 ! D182  D(45,51,55,56)        178.6185         estimate D2E/DX2                !
 ! D183  D(52,51,55,30)        179.2718         estimate D2E/DX2                !
 ! D184  D(52,51,55,56)         -0.4404         estimate D2E/DX2                !
 ! D185  D(14,53,57,58)       -179.4374         estimate D2E/DX2                !
 ! D186  D(14,53,57,67)          1.5749         estimate D2E/DX2                !
 ! D187  D(54,53,57,58)          0.9811         estimate D2E/DX2                !
 ! D188  D(54,53,57,67)       -178.0066         estimate D2E/DX2                !
 ! D189  D(53,57,67,65)         -1.9438         estimate D2E/DX2                !
 ! D190  D(53,57,67,68)        177.9762         estimate D2E/DX2                !
 ! D191  D(58,57,67,65)        179.0732         estimate D2E/DX2                !
 ! D192  D(58,57,67,68)         -1.0067         estimate D2E/DX2                !
 ! D193  D(14,59,63,24)          4.3252         estimate D2E/DX2                !
 ! D194  D(14,59,63,64)       -178.0043         estimate D2E/DX2                !
 ! D195  D(60,59,63,24)       -177.0524         estimate D2E/DX2                !
 ! D196  D(60,59,63,64)          0.6181         estimate D2E/DX2                !
 ! D197  D(38,65,67,57)         -0.7947         estimate D2E/DX2                !
 ! D198  D(38,65,67,68)        179.2844         estimate D2E/DX2                !
 ! D199  D(66,65,67,57)       -179.8452         estimate D2E/DX2                !
 ! D200  D(66,65,67,68)          0.234          estimate D2E/DX2                !
 --------------------------------------------------------------------------------
 Trust Radius=3.00D-01 FncErr=1.00D-07 GrdErr=1.00D-07 EigMax=2.50D+02 EigMin=1.00D-04
 Number of steps in this run=    408 maximum allowed number of steps=    408.
 GradGradGradGradGradGradGradGradGradGradGradGradGradGradGradGradGradGrad

 Leave Link  103 at Fri Nov 15 05:33:09 2024, MaxMem=  3221225472 cpu:               1.7 elap:               0.1
 (Enter /home/szhao/Apps/g16/l202.exe)
 Symmetry turned off by external request.
 Stoichiometry    C42H26(1+,2)
 Framework group  C1[X(C42H26)]
 Deg. of freedom   198
 Full point group                 C1      NOp   1
                          Input orientation:                          
 ---------------------------------------------------------------------
 Center     Atomic      Atomic             Coordinates (Angstroms)
 Number     Number       Type             X           Y           Z
 ---------------------------------------------------------------------
      1          6           0       -1.697695    0.000000    0.000000
      2          6           0        1.697695    0.000000    0.000000
      3          6           0       -0.000009   -2.055451   -0.002184
      4          6           0       -0.000019   -3.456634   -0.003710
      5          6           0       -1.172305   -4.289647    0.193419
      6          6           0       -1.368304   -1.466233    0.164197
      7          6           0        0.687693   -5.682733   -0.125007
      8          1           0        1.342234   -6.551030   -0.242070
      9          6           0       -1.718814    0.764457    1.220742
     10          6           0       -0.687764   -5.682983    0.112786
     11          1           0       -1.342293   -6.551521    0.228106
     12          6           0        1.172253   -4.289231   -0.202632
     13          6           0        1.368284   -1.465884   -0.167278
     14          6           0        1.847791    2.191689   -1.337699
     15          6           0       -1.814361    0.409539   -1.374206
     16          6           0       -1.905550    2.769085    2.622853
     17          1           0       -2.021330    3.845145    2.688688
     18          6           0       -2.429434   -3.703086    0.413341
     19          1           0       -3.362827   -4.279511    0.582570
     20          6           0       -1.806336    1.756831   -1.868677
     21          6           0        2.495000   -2.286494   -0.388463
     22          1           0        3.498406   -1.813287   -0.507090
     23          6           0        1.814394    0.406656    1.375059
     24          6           0        1.806374    1.752903    1.872363
     25          6           0        2.429419   -3.702206   -0.421138
     26          1           0        3.362822   -4.278272   -0.591538
     27          6           0       -1.848016    2.188865    1.342294
     28          6           0       -1.568924    0.042250    2.442549
     29          1           0       -1.422393   -1.027025    2.407712
     30          6           0        1.887661   -0.627903    2.361952
     31          1           0        1.923934   -1.659064    2.045215
     32          6           0       -1.812229    2.024078    3.780174
     33          1           0       -1.870015    2.507080    4.748151
     34          6           0       -2.495006   -2.287304    0.383723
     35          1           0       -3.498401   -1.814344    0.503427
     36          6           0       -1.828886    1.980253   -3.260088
     37          1           0       -1.803946    3.006029   -3.609195
     38          6           0        1.718775    0.767018   -1.219141
     39          6           0       -1.850030    3.135944    0.259241
     40          1           0       -1.878457    4.171433    0.584311
     41          6           0       -1.899747    0.955189   -4.175457
     42          1           0       -1.933895    1.170032   -5.236696
     43          6           0       -1.798622    2.955425   -1.075789
     44          1           0       -1.781231    3.867843   -1.664237
     45          6           0        1.829132    1.973399    3.264238
     46          1           0        1.804226    2.998438    3.615508
     47          6           0       -1.621104    0.643594    3.679794
     48          1           0       -1.511551    0.037732    4.571517
     49          6           0       -1.887552   -0.622940   -2.363279
     50          1           0       -1.923889   -1.654761   -2.048702
     51          6           0        1.900136    0.946413    4.177442
     52          1           0        1.934461    1.159031    5.239123
     53          6           0        1.905327    2.774604   -2.617034
     54          1           0        2.020957    3.850816   -2.680597
     55          6           0        1.947110   -0.372373    3.710023
     56          1           0        2.025757   -1.198377    4.406618
     57          6           0        1.812200    2.032016   -3.775921
     58          1           0        1.870009    2.517055   -4.742877
     59          6           0        1.849568    3.136493   -0.252656
     60          1           0        1.877694    4.172670   -0.575551
     61          6           0       -1.946834   -0.364574   -3.710816
     62          1           0       -2.025450   -1.189109   -4.409153
     63          6           0        1.798327    2.953160    1.081996
     64          1           0        1.780784    3.864337    1.672360
     65          6           0        1.568999    0.047364   -2.442465
     66          1           0        1.422557   -1.021994   -2.409882
     67          6           0        1.621208    0.651304   -3.678443
     68          1           0        1.511774    0.047297   -4.571438
 ---------------------------------------------------------------------
 Rotational constants (GHZ):           0.1180519           0.1028119           0.0859262
 Leave Link  202 at Fri Nov 15 05:33:09 2024, MaxMem=  3221225472 cpu:               1.6 elap:               0.1
 (Enter /home/szhao/Apps/g16/l301.exe)
 Standard basis: 6-311+G(d,p) (5D, 7F)
 Ernie: Thresh=  0.10000D-02 Tol=  0.10000D-05 Strict=F.
  1080 basis functions,  1720 primitive gaussians,  1122 cartesian basis functions
   139 alpha electrons      138 beta electrons
       nuclear repulsion energy      4797.3326074824 Hartrees.
 IExCor= 4336 DFT=T Ex+Corr=M062X ExCW=0 ScaHFX=  0.540000
 ScaDFX=  1.000000  1.000000  1.000000  1.000000 ScalE2=  1.000000  1.000000
 IRadAn=      7 IRanWt=     -1 IRanGd=            0 ICorTp=0 IEmpDi=  4
 NAtoms=   68 NActive=   68 NUniq=   68 SFac= 1.00D+00 NAtFMM=   60 NAOKFM=T Big=T
 Integral buffers will be    131072 words long.
 Raffenetti 2 integral format.
 Two-electron integral symmetry is turned off.
 Leave Link  301 at Fri Nov 15 05:33:09 2024, MaxMem=  3221225472 cpu:               2.7 elap:               0.1
 (Enter /home/szhao/Apps/g16/l302.exe)
 NPDir=0 NMtPBC=     1 NCelOv=     1 NCel=       1 NClECP=     1 NCelD=      1
         NCelK=      1 NCelE2=     1 NClLst=     1 CellRange=     0.0.
 One-electron integrals computed using PRISM.
 NBasis=  1080 RedAO= T EigKep=  1.05D-06  NBF=  1080
 NBsUse=  1053 1.00D-06 EigRej=  9.26D-07 NBFU=  1053
 Precomputing XC quadrature grid using
 IXCGrd= 4 IRadAn=           7 IRanWt=          -1 IRanGd=           0 AccXCQ= 0.00D+00.
 Generated NRdTot=       0 NPtTot=           0 NUsed=           0 NTot=          32
 NSgBfM=  1117  1116  1116  1116  1117 MxSgAt=    68 MxSgA2=    68.
 Leave Link  302 at Fri Nov 15 05:33:13 2024, MaxMem=  3221225472 cpu:              91.7 elap:               3.3
 (Enter /home/szhao/Apps/g16/l303.exe)
 DipDrv:  MaxL=1.
 Leave Link  303 at Fri Nov 15 05:33:14 2024, MaxMem=  3221225472 cpu:               7.2 elap:               0.3
 (Enter /home/szhao/Apps/g16/l401.exe)
 ExpMin= 4.38D-02 ExpMax= 4.56D+03 ExpMxC= 6.82D+02 IAcc=3 IRadAn=         7 AccDes= 0.00D+00
 Harris functional with IExCor= 1009 and IRadAn=       7 diagonalized for initial guess.
 HarFok:  IExCor= 1009 AccDes= 0.00D+00 IRadAn=         7 IDoV= 1 UseB2=F ITyADJ=14
 ICtDFT=  3500011 ScaDFX=  1.000000  1.000000  1.000000  1.000000
 FoFCou: FMM=F IPFlag=           0 FMFlag=      100000 FMFlg1=        2001
         NFxFlg=           0 DoJE=T BraDBF=F KetDBF=T FulRan=T
         wScrn=  0.000000 ICntrl=       500 IOpCl=  0 I1Cent=   200000004 NGrid=           0
         NMat0=    1 NMatS0=      1 NMatT0=    0 NMatD0=    1 NMtDS0=    0 NMtDT0=    0
 Symmetry not used in FoFCou.
 Harris En= -1614.67242521979    
 JPrj=0 DoOrth=F DoCkMO=F.
 Initial guess <Sx>= 0.0000 <Sy>= 0.0000 <Sz>= 0.5000 <S**2>= 0.7500 S= 0.5000
 Leave Link  401 at Fri Nov 15 05:33:28 2024, MaxMem=  3221225472 cpu:             379.0 elap:              13.7
 (Enter /home/szhao/Apps/g16/l502.exe)
 Two-electron integral symmetry not used.
 UHF open shell SCF:
 Using DIIS extrapolation, IDIIS=  1040.
 NGot=  3221225472 LenX=  3218668534 LenY=  3217408528
 Requested convergence on RMS density matrix=1.00D-08 within 128 cycles.
 Requested convergence on MAX density matrix=1.00D-06.
 Requested convergence on             energy=1.00D-06.
 No special actions if energy rises.
 Fock matrices will be formed incrementally for  20 cycles.

 Cycle   1  Pass 1  IDiag  1:
 FoFJK:  IHMeth= 1 ICntrl=       0 DoSepK=F KAlg= 0 I1Cent=           0 FoldK=F
 IRaf= 890000000 NMat=       1 IRICut=       1 DoRegI=T DoRafI=F ISym2E= 0 IDoP0=0 IntGTp=1.
 FoFCou: FMM=T IPFlag=           0 FMFlag=      100000 FMFlg1=        2001
         NFxFlg=           0 DoJE=F BraDBF=F KetDBF=F FulRan=T
         wScrn=  0.000000 ICntrl=         0 IOpCl=  1 I1Cent=           0 NGrid=           0
         NMat0=    1 NMatS0=      1 NMatT0=    0 NMatD0=    1 NMtDS0=    0 NMtDT0=    0
 Symmetry not used in FoFCou.
 FMM levels:  10  Number of levels for PrismC:   9
 E= -1614.78913216221    
 DIIS: error= 2.38D-02 at cycle   1 NSaved=   1.
 NSaved= 1 IEnMin= 1 EnMin= -1614.78913216221     IErMin= 1 ErrMin= 2.38D-02
 ErrMax= 2.38D-02  0.00D+00 EMaxC= 1.00D-01 BMatC= 3.71D+00 BMatP= 3.71D+00
 IDIUse=3 WtCom= 7.62D-01 WtEn= 2.38D-01
 Coeff-Com:  0.100D+01
 Coeff-En:   0.100D+01
 Coeff:      0.100D+01
 Gap=     0.084 Goal=   None    Shift=    0.000
 Gap=     0.113 Goal=   None    Shift=    0.000
 GapD=    0.084 DampG=0.500 DampE=0.500 DampFc=0.2500 IDamp=-1.
 Damping current iteration by 2.50D-01
 RMSDP=2.72D-02 MaxDP=2.47D+00              OVMax= 2.25D-01

 Cycle   2  Pass 1  IDiag  1:
 RMSU=  5.59D-03    CP:  9.38D-01
 E= -1615.04193795792     Delta-E=       -0.252805795713 Rises=F Damp=T
 DIIS: error= 1.59D-02 at cycle   2 NSaved=   2.
 NSaved= 2 IEnMin= 2 EnMin= -1615.04193795792     IErMin= 2 ErrMin= 1.59D-02
 ErrMax= 1.59D-02  0.00D+00 EMaxC= 1.00D-01 BMatC= 1.46D+00 BMatP= 3.71D+00
 IDIUse=3 WtCom= 8.41D-01 WtEn= 1.59D-01
 Coeff-Com: -0.133D+01 0.233D+01
 Coeff-En:   0.000D+00 0.100D+01
 Coeff:     -0.112D+01 0.212D+01
 Gap=     0.094 Goal=   None    Shift=    0.000
 Gap=     0.188 Goal=   None    Shift=    0.000
 RMSDP=2.02D-02 MaxDP=2.06D+00 DE=-2.53D-01 OVMax= 2.17D-01

 Cycle   3  Pass 1  IDiag  1:
 RMSU=  9.55D-03    CP:  6.60D-01  1.75D+00
 E= -1615.43548906399     Delta-E=       -0.393551106070 Rises=F Damp=F
 DIIS: error= 1.55D-02 at cycle   3 NSaved=   3.
 NSaved= 3 IEnMin= 3 EnMin= -1615.43548906399     IErMin= 3 ErrMin= 1.55D-02
 ErrMax= 1.55D-02  0.00D+00 EMaxC= 1.00D-01 BMatC= 4.41D-01 BMatP= 1.46D+00
 IDIUse=3 WtCom= 8.45D-01 WtEn= 1.55D-01
 Coeff-Com: -0.817D+00 0.132D+01 0.496D+00
 Coeff-En:   0.000D+00 0.000D+00 0.100D+01
 Coeff:     -0.690D+00 0.112D+01 0.574D+00
 Gap=     0.087 Goal=   None    Shift=    0.000
 Gap=     0.147 Goal=   None    Shift=    0.000
 RMSDP=7.90D-03 MaxDP=6.78D-01 DE=-3.94D-01 OVMax= 1.58D-01

 Cycle   4  Pass 1  IDiag  1:
 RMSU=  5.32D-03    CP:  6.56D-01  2.57D+00  6.18D-01
 E= -1615.50854936784     Delta-E=       -0.073060303846 Rises=F Damp=F
 DIIS: error= 9.48D-03 at cycle   4 NSaved=   4.
 NSaved= 4 IEnMin= 4 EnMin= -1615.50854936784     IErMin= 4 ErrMin= 9.48D-03
 ErrMax= 9.48D-03  0.00D+00 EMaxC= 1.00D-01 BMatC= 1.73D-01 BMatP= 4.41D-01
 IDIUse=3 WtCom= 9.05D-01 WtEn= 9.48D-02
 Coeff-Com: -0.177D+00 0.277D+00 0.390D+00 0.509D+00
 Coeff-En:   0.000D+00 0.000D+00 0.329D+00 0.671D+00
 Coeff:     -0.160D+00 0.251D+00 0.385D+00 0.525D+00
 Gap=     0.084 Goal=   None    Shift=    0.000
 Gap=     0.155 Goal=   None    Shift=    0.000
 RMSDP=5.46D-03 MaxDP=5.70D-01 DE=-7.31D-02 OVMax= 6.60D-02

 Cycle   5  Pass 1  IDiag  1:
 RMSU=  2.31D-03    CP:  6.47D-01  1.96D+00  6.75D-01  3.40D-01
 E= -1615.55522018235     Delta-E=       -0.046670814517 Rises=F Damp=F
 DIIS: error= 1.10D-03 at cycle   5 NSaved=   5.
 NSaved= 5 IEnMin= 5 EnMin= -1615.55522018235     IErMin= 5 ErrMin= 1.10D-03
 ErrMax= 1.10D-03  0.00D+00 EMaxC= 1.00D-01 BMatC= 3.65D-03 BMatP= 1.73D-01
 IDIUse=3 WtCom= 9.89D-01 WtEn= 1.10D-02
 Coeff-Com: -0.356D-01 0.536D-01 0.157D+00 0.256D+00 0.568D+00
 Coeff-En:   0.000D+00 0.000D+00 0.000D+00 0.000D+00 0.100D+01
 Coeff:     -0.352D-01 0.530D-01 0.156D+00 0.253D+00 0.573D+00
 Gap=     0.083 Goal=   None    Shift=    0.000
 Gap=     0.155 Goal=   None    Shift=    0.000
 RMSDP=1.03D-03 MaxDP=1.18D-01 DE=-4.67D-02 OVMax= 1.11D-02

 Cycle   6  Pass 1  IDiag  1:
 RMSU=  6.96D-04    CP:  6.39D-01  2.01D+00  6.79D-01  3.52D-01  7.89D-01
 E= -1615.55610120915     Delta-E=       -0.000881026800 Rises=F Damp=F
 DIIS: error= 6.17D-04 at cycle   6 NSaved=   6.
 NSaved= 6 IEnMin= 6 EnMin= -1615.55610120915     IErMin= 6 ErrMin= 6.17D-04
 ErrMax= 6.17D-04  0.00D+00 EMaxC= 1.00D-01 BMatC= 5.07D-04 BMatP= 3.65D-03
 IDIUse=3 WtCom= 9.94D-01 WtEn= 6.17D-03
 Coeff-Com:  0.295D-02-0.551D-02 0.259D-01 0.538D-01 0.295D+00 0.628D+00
 Coeff-En:   0.000D+00 0.000D+00 0.000D+00 0.000D+00 0.547D-01 0.945D+00
 Coeff:      0.293D-02-0.548D-02 0.257D-01 0.535D-01 0.293D+00 0.630D+00
 Gap=     0.084 Goal=   None    Shift=    0.000
 Gap=     0.154 Goal=   None    Shift=    0.000
 RMSDP=4.58D-04 MaxDP=6.76D-02 DE=-8.81D-04 OVMax= 5.87D-03

 Cycle   7  Pass 1  IDiag  1:
 RMSU=  2.43D-04    CP:  6.44D-01  2.01D+00  6.84D-01  3.79D-01  8.46D-01
                    CP:  7.52D-01
 E= -1615.55626395699     Delta-E=       -0.000162747839 Rises=F Damp=F
 DIIS: error= 2.69D-04 at cycle   7 NSaved=   7.
 NSaved= 7 IEnMin= 7 EnMin= -1615.55626395699     IErMin= 7 ErrMin= 2.69D-04
 ErrMax= 2.69D-04  0.00D+00 EMaxC= 1.00D-01 BMatC= 7.98D-05 BMatP= 5.07D-04
 IDIUse=3 WtCom= 9.97D-01 WtEn= 2.69D-03
 Coeff-Com:  0.522D-02-0.831D-02-0.703D-02-0.752D-02 0.690D-01 0.313D+00
 Coeff-Com:  0.636D+00
 Coeff-En:   0.000D+00 0.000D+00 0.000D+00 0.000D+00 0.000D+00 0.000D+00
 Coeff-En:   0.100D+01
 Coeff:      0.521D-02-0.828D-02-0.701D-02-0.750D-02 0.688D-01 0.312D+00
 Coeff:      0.636D+00
 Gap=     0.084 Goal=   None    Shift=    0.000
 Gap=     0.155 Goal=   None    Shift=    0.000
 RMSDP=1.67D-04 MaxDP=2.11D-02 DE=-1.63D-04 OVMax= 2.61D-03

 Cycle   8  Pass 1  IDiag  1:
 RMSU=  9.60D-05    CP:  6.43D-01  2.01D+00  6.80D-01  3.71D-01  8.57D-01
                    CP:  8.90D-01  1.04D+00
 E= -1615.55630301301     Delta-E=       -0.000039056013 Rises=F Damp=F
 DIIS: error= 1.53D-04 at cycle   8 NSaved=   8.
 NSaved= 8 IEnMin= 8 EnMin= -1615.55630301301     IErMin= 8 ErrMin= 1.53D-04
 ErrMax= 1.53D-04  0.00D+00 EMaxC= 1.00D-01 BMatC= 1.62D-05 BMatP= 7.98D-05
 IDIUse=3 WtCom= 9.98D-01 WtEn= 1.53D-03
 Coeff-Com:  0.114D-02-0.157D-02-0.115D-01-0.214D-01-0.664D-01-0.691D-01
 Coeff-Com:  0.223D+00 0.945D+00
 Coeff-En:   0.000D+00 0.000D+00 0.000D+00 0.000D+00 0.000D+00 0.000D+00
 Coeff-En:   0.000D+00 0.100D+01
 Coeff:      0.113D-02-0.157D-02-0.114D-01-0.214D-01-0.663D-01-0.690D-01
 Coeff:      0.223D+00 0.945D+00
 Gap=     0.084 Goal=   None    Shift=    0.000
 Gap=     0.156 Goal=   None    Shift=    0.000
 RMSDP=1.34D-04 MaxDP=1.82D-02 DE=-3.91D-05 OVMax= 3.10D-03

 Cycle   9  Pass 1  IDiag  1:
 RMSU=  4.94D-05    CP:  6.43D-01  2.01D+00  6.80D-01  3.76D-01  8.68D-01
                    CP:  9.32D-01  1.43D+00  1.69D+00
 E= -1615.55632402122     Delta-E=       -0.000021008211 Rises=F Damp=F
 DIIS: error= 6.93D-05 at cycle   9 NSaved=   9.
 NSaved= 9 IEnMin= 9 EnMin= -1615.55632402122     IErMin= 9 ErrMin= 6.93D-05
 ErrMax= 6.93D-05  0.00D+00 EMaxC= 1.00D-01 BMatC= 4.98D-06 BMatP= 1.62D-05
 IDIUse=1 WtCom= 1.00D+00 WtEn= 0.00D+00
 Coeff-Com: -0.836D-03 0.137D-02-0.135D-02-0.327D-02-0.358D-01-0.105D+00
 Coeff-Com: -0.148D+00 0.260D+00 0.103D+01
 Coeff:     -0.836D-03 0.137D-02-0.135D-02-0.327D-02-0.358D-01-0.105D+00
 Coeff:     -0.148D+00 0.260D+00 0.103D+01
 Gap=     0.084 Goal=   None    Shift=    0.000
 Gap=     0.156 Goal=   None    Shift=    0.000
 RMSDP=1.18D-04 MaxDP=1.40D-02 DE=-2.10D-05 OVMax= 2.25D-03

 Cycle  10  Pass 1  IDiag  1:
 RMSU=  3.06D-05    CP:  6.43D-01  2.02D+00  6.81D-01  3.78D-01  8.72D-01
                    CP:  9.88D-01  1.71D+00  2.34D+00  1.93D+00
 E= -1615.55633246919     Delta-E=       -0.000008447975 Rises=F Damp=F
 DIIS: error= 4.19D-05 at cycle  10 NSaved=  10.
 NSaved=10 IEnMin=10 EnMin= -1615.55633246919     IErMin=10 ErrMin= 4.19D-05
 ErrMax= 4.19D-05  0.00D+00 EMaxC= 1.00D-01 BMatC= 1.86D-06 BMatP= 4.98D-06
 IDIUse=1 WtCom= 1.00D+00 WtEn= 0.00D+00
 Coeff-Com: -0.911D-03 0.138D-02 0.343D-02 0.653D-02 0.526D-02-0.301D-01
 Coeff-Com: -0.167D+00-0.207D+00 0.526D+00 0.862D+00
 Coeff:     -0.911D-03 0.138D-02 0.343D-02 0.653D-02 0.526D-02-0.301D-01
 Coeff:     -0.167D+00-0.207D+00 0.526D+00 0.862D+00
 Gap=     0.084 Goal=   None    Shift=    0.000
 Gap=     0.156 Goal=   None    Shift=    0.000
 RMSDP=9.47D-05 MaxDP=1.68D-02 DE=-8.45D-06 OVMax= 1.56D-03

 Cycle  11  Pass 1  IDiag  1:
 RMSU=  2.40D-05    CP:  6.43D-01  2.02D+00  6.82D-01  3.83D-01  8.80D-01
                    CP:  1.00D+00  1.91D+00  2.86D+00  2.76D+00  1.95D+00
 E= -1615.55633515368     Delta-E=       -0.000002684489 Rises=F Damp=F
 DIIS: error= 2.22D-05 at cycle  11 NSaved=  11.
 NSaved=11 IEnMin=11 EnMin= -1615.55633515368     IErMin=11 ErrMin= 2.22D-05
 ErrMax= 2.22D-05  0.00D+00 EMaxC= 1.00D-01 BMatC= 4.30D-07 BMatP= 1.86D-06
 IDIUse=1 WtCom= 1.00D+00 WtEn= 0.00D+00
 Coeff-Com: -0.270D-03 0.395D-03 0.182D-02 0.381D-02 0.865D-02 0.358D-02
 Coeff-Com: -0.524D-01-0.138D+00 0.679D-01 0.400D+00 0.704D+00
 Coeff:     -0.270D-03 0.395D-03 0.182D-02 0.381D-02 0.865D-02 0.358D-02
 Coeff:     -0.524D-01-0.138D+00 0.679D-01 0.400D+00 0.704D+00
 Gap=     0.084 Goal=   None    Shift=    0.000
 Gap=     0.156 Goal=   None    Shift=    0.000
 RMSDP=4.59D-05 MaxDP=7.80D-03 DE=-2.68D-06 OVMax= 6.55D-04

 Cycle  12  Pass 1  IDiag  1:
 RMSU=  1.33D-05    CP:  6.43D-01  2.02D+00  6.82D-01  3.84D-01  8.83D-01
                    CP:  1.00D+00  1.98D+00  3.00D+00  3.00D+00  2.69D+00
                    CP:  1.70D+00
 E= -1615.55633559313     Delta-E=       -0.000000439451 Rises=F Damp=F
 DIIS: error= 1.07D-05 at cycle  12 NSaved=  12.
 NSaved=12 IEnMin=12 EnMin= -1615.55633559313     IErMin=12 ErrMin= 1.07D-05
 ErrMax= 1.07D-05  0.00D+00 EMaxC= 1.00D-01 BMatC= 1.12D-07 BMatP= 4.30D-07
 IDIUse=1 WtCom= 1.00D+00 WtEn= 0.00D+00
 Coeff-Com:  0.217D-03-0.331D-03-0.630D-03-0.980D-03 0.166D-02 0.144D-01
 Coeff-Com:  0.492D-01 0.258D-01-0.207D+00-0.189D+00 0.292D+00 0.102D+01
 Coeff:      0.217D-03-0.331D-03-0.630D-03-0.980D-03 0.166D-02 0.144D-01
 Coeff:      0.492D-01 0.258D-01-0.207D+00-0.189D+00 0.292D+00 0.102D+01
 Gap=     0.084 Goal=   None    Shift=    0.000
 Gap=     0.156 Goal=   None    Shift=    0.000
 RMSDP=5.94D-05 MaxDP=1.09D-02 DE=-4.39D-07 OVMax= 6.03D-04

 Cycle  13  Pass 1  IDiag  1:
 RMSU=  2.78D-05    CP:  6.43D-01  2.02D+00  6.83D-01  3.86D-01  8.86D-01
                    CP:  1.00D+00  2.07D+00  3.00D+00  3.00D+00  3.00D+00
                    CP:  2.64D+00  3.00D+00
 E= -1615.55633579152     Delta-E=       -0.000000198391 Rises=F Damp=F
 DIIS: error= 3.40D-06 at cycle  13 NSaved=  13.
 NSaved=13 IEnMin=13 EnMin= -1615.55633579152     IErMin=13 ErrMin= 3.40D-06
 ErrMax= 3.40D-06  0.00D+00 EMaxC= 1.00D-01 BMatC= 2.21D-08 BMatP= 1.12D-07
 IDIUse=1 WtCom= 1.00D+00 WtEn= 0.00D+00
 Coeff-Com:  0.101D-03-0.154D-03-0.510D-03-0.945D-03-0.106D-02 0.318D-02
 Coeff-Com:  0.213D-01 0.303D-01-0.653D-01-0.116D+00-0.650D-01 0.292D+00
 Coeff-Com:  0.903D+00
 Coeff:      0.101D-03-0.154D-03-0.510D-03-0.945D-03-0.106D-02 0.318D-02
 Coeff:      0.213D-01 0.303D-01-0.653D-01-0.116D+00-0.650D-01 0.292D+00
 Coeff:      0.903D+00
 Gap=     0.084 Goal=   None    Shift=    0.000
 Gap=     0.156 Goal=   None    Shift=    0.000
 RMSDP=3.28D-05 MaxDP=5.97D-03 DE=-1.98D-07 OVMax= 1.97D-04

 Cycle  14  Pass 1  IDiag  1:
 RMSU=  1.54D-05    CP:  6.43D-01  2.02D+00  6.83D-01  3.88D-01  8.88D-01
                    CP:  1.00D+00  2.12D+00  3.00D+00  3.00D+00  3.00D+00
                    CP:  3.00D+00  3.00D+00  1.78D+00
 E= -1615.55633581956     Delta-E=       -0.000000028042 Rises=F Damp=F
 DIIS: error= 1.20D-06 at cycle  14 NSaved=  14.
 NSaved=14 IEnMin=14 EnMin= -1615.55633581956     IErMin=14 ErrMin= 1.20D-06
 ErrMax= 1.20D-06  0.00D+00 EMaxC= 1.00D-01 BMatC= 8.55D-09 BMatP= 2.21D-08
 IDIUse=1 WtCom= 1.00D+00 WtEn= 0.00D+00
 Coeff-Com: -0.291D-04 0.426D-04-0.296D-04-0.117D-03-0.101D-02-0.317D-02
 Coeff-Com: -0.620D-02 0.475D-02 0.357D-01 0.746D-02-0.123D+00-0.176D+00
 Coeff-Com:  0.408D+00 0.854D+00
 Coeff:     -0.291D-04 0.426D-04-0.296D-04-0.117D-03-0.101D-02-0.317D-02
 Coeff:     -0.620D-02 0.475D-02 0.357D-01 0.746D-02-0.123D+00-0.176D+00
 Coeff:      0.408D+00 0.854D+00
 Gap=     0.084 Goal=   None    Shift=    0.000
 Gap=     0.156 Goal=   None    Shift=    0.000
 RMSDP=2.51D-05 MaxDP=4.58D-03 DE=-2.80D-08 OVMax= 9.11D-05

 Cycle  15  Pass 1  IDiag  1:
 RMSU=  6.25D-06    CP:  6.43D-01  2.02D+00  6.84D-01  3.88D-01  8.90D-01
                    CP:  1.00D+00  2.16D+00  3.00D+00  3.00D+00  3.00D+00
                    CP:  3.00D+00  3.00D+00  2.37D+00  1.91D+00
 E= -1615.55633582827     Delta-E=       -0.000000008709 Rises=F Damp=F
 DIIS: error= 9.60D-07 at cycle  15 NSaved=  15.
 NSaved=15 IEnMin=15 EnMin= -1615.55633582827     IErMin=15 ErrMin= 9.60D-07
 ErrMax= 9.60D-07  0.00D+00 EMaxC= 1.00D-01 BMatC= 2.61D-09 BMatP= 8.55D-09
 IDIUse=1 WtCom= 1.00D+00 WtEn= 0.00D+00
 Coeff-Com: -0.272D-04 0.425D-04 0.147D-03 0.255D-03 0.984D-04-0.161D-02
 Coeff-Com: -0.750D-02-0.889D-02 0.268D-01 0.373D-01 0.673D-02-0.127D+00
 Coeff-Com: -0.227D+00 0.120D+00 0.118D+01
 Coeff:     -0.272D-04 0.425D-04 0.147D-03 0.255D-03 0.984D-04-0.161D-02
 Coeff:     -0.750D-02-0.889D-02 0.268D-01 0.373D-01 0.673D-02-0.127D+00
 Coeff:     -0.227D+00 0.120D+00 0.118D+01
 Gap=     0.084 Goal=   None    Shift=    0.000
 Gap=     0.156 Goal=   None    Shift=    0.000
 RMSDP=2.28D-05 MaxDP=4.17D-03 DE=-8.71D-09 OVMax= 3.18D-05

 Cycle  16  Pass 1  IDiag  1:
 RMSU=  9.51D-07    CP:  6.43D-01  2.02D+00  6.84D-01  3.89D-01  8.91D-01
                    CP:  1.00D+00  2.19D+00  3.00D+00  3.00D+00  3.00D+00
                    CP:  3.00D+00  3.00D+00  2.90D+00  2.72D+00  1.86D+00
 E= -1615.55633583213     Delta-E=       -0.000000003854 Rises=F Damp=F
 DIIS: error= 4.71D-07 at cycle  16 NSaved=  16.
 NSaved=16 IEnMin=16 EnMin= -1615.55633583213     IErMin=16 ErrMin= 4.71D-07
 ErrMax= 4.71D-07  0.00D+00 EMaxC= 1.00D-01 BMatC= 1.24D-09 BMatP= 2.61D-09
 IDIUse=1 WtCom= 1.00D+00 WtEn= 0.00D+00
 Coeff-Com:  0.187D-05-0.125D-05 0.709D-04 0.141D-03 0.419D-03 0.592D-03
 Coeff-Com: -0.483D-03-0.502D-02-0.349D-02 0.104D-01 0.501D-01 0.146D-01
 Coeff-Com: -0.216D+00-0.261D+00 0.419D+00 0.991D+00
 Coeff:      0.187D-05-0.125D-05 0.709D-04 0.141D-03 0.419D-03 0.592D-03
 Coeff:     -0.483D-03-0.502D-02-0.349D-02 0.104D-01 0.501D-01 0.146D-01
 Coeff:     -0.216D+00-0.261D+00 0.419D+00 0.991D+00
 Gap=     0.084 Goal=   None    Shift=    0.000
 Gap=     0.156 Goal=   None    Shift=    0.000
 RMSDP=1.52D-05 MaxDP=2.80D-03 DE=-3.85D-09 OVMax= 1.61D-05

 Cycle  17  Pass 1  IDiag  1:
 RMSU=  8.11D-06    CP:  6.43D-01  2.02D+00  6.84D-01  3.90D-01  8.92D-01
                    CP:  1.00D+00  2.22D+00  3.00D+00  3.00D+00  3.00D+00
                    CP:  3.00D+00  3.00D+00  3.00D+00  3.00D+00  2.41D+00
                    CP:  1.93D+00
 E= -1615.55633583366     Delta-E=       -0.000000001531 Rises=F Damp=F
 DIIS: error= 4.84D-07 at cycle  17 NSaved=  17.
 NSaved=17 IEnMin=17 EnMin= -1615.55633583366     IErMin=16 ErrMin= 4.71D-07
 ErrMax= 4.84D-07  0.00D+00 EMaxC= 1.00D-01 BMatC= 5.62D-10 BMatP= 1.24D-09
 IDIUse=1 WtCom= 1.00D+00 WtEn= 0.00D+00
 Coeff-Com:  0.139D-04-0.210D-04-0.367D-04-0.555D-04 0.218D-03 0.127D-02
 Coeff-Com:  0.391D-02 0.245D-02-0.169D-01-0.153D-01 0.240D-01 0.761D-01
 Coeff-Com:  0.119D-01-0.214D+00-0.441D+00 0.506D+00 0.106D+01
 Coeff:      0.139D-04-0.210D-04-0.367D-04-0.555D-04 0.218D-03 0.127D-02
 Coeff:      0.391D-02 0.245D-02-0.169D-01-0.153D-01 0.240D-01 0.761D-01
 Coeff:      0.119D-01-0.214D+00-0.441D+00 0.506D+00 0.106D+01
 Gap=     0.084 Goal=   None    Shift=    0.000
 Gap=     0.156 Goal=   None    Shift=    0.000
 RMSDP=1.44D-05 MaxDP=2.65D-03 DE=-1.53D-09 OVMax= 1.86D-05

 Cycle  18  Pass 1  IDiag  1:
 RMSU=  2.35D-06    CP:  6.43D-01  2.02D+00  6.84D-01  3.90D-01  8.93D-01
                    CP:  1.00D+00  2.24D+00  3.00D+00  3.00D+00  3.00D+00
                    CP:  3.00D+00  3.00D+00  3.00D+00  3.00D+00  2.94D+00
                    CP:  2.96D+00  2.46D+00
 E= -1615.55633583458     Delta-E=       -0.000000000922 Rises=F Damp=F
 DIIS: error= 2.09D-07 at cycle  18 NSaved=  18.
 NSaved=18 IEnMin=18 EnMin= -1615.55633583458     IErMin=18 ErrMin= 2.09D-07
 ErrMax= 2.09D-07  0.00D+00 EMaxC= 1.00D-01 BMatC= 1.39D-10 BMatP= 5.62D-10
 IDIUse=1 WtCom= 1.00D+00 WtEn= 0.00D+00
 Coeff-Com:  0.986D-06-0.241D-05-0.314D-04-0.527D-04-0.489D-04 0.130D-03
 Coeff-Com:  0.104D-02 0.220D-02-0.318D-02-0.675D-02-0.968D-02 0.163D-01
 Coeff-Com:  0.704D-01 0.227D-01-0.256D+00-0.181D+00 0.293D+00 0.105D+01
 Coeff:      0.986D-06-0.241D-05-0.314D-04-0.527D-04-0.489D-04 0.130D-03
 Coeff:      0.104D-02 0.220D-02-0.318D-02-0.675D-02-0.968D-02 0.163D-01
 Coeff:      0.704D-01 0.227D-01-0.256D+00-0.181D+00 0.293D+00 0.105D+01
 Gap=     0.084 Goal=   None    Shift=    0.000
 Gap=     0.156 Goal=   None    Shift=    0.000
 RMSDP=7.11D-06 MaxDP=1.33D-03 DE=-9.22D-10 OVMax= 1.08D-05

 Cycle  19  Pass 1  IDiag  1:
 RMSU=  1.96D-06    CP:  6.43D-01  2.02D+00  6.84D-01  3.90D-01  8.94D-01
                    CP:  1.00D+00  2.25D+00  3.00D+00  3.00D+00  3.00D+00
                    CP:  3.00D+00  3.00D+00  3.00D+00  3.00D+00  3.00D+00
                    CP:  3.00D+00  3.00D+00  1.49D+00
 E= -1615.55633583491     Delta-E=       -0.000000000325 Rises=F Damp=F
 DIIS: error= 1.22D-07 at cycle  19 NSaved=  19.
 NSaved=19 IEnMin=19 EnMin= -1615.55633583491     IErMin=19 ErrMin= 1.22D-07
 ErrMax= 1.22D-07  0.00D+00 EMaxC= 1.00D-01 BMatC= 6.43D-11 BMatP= 1.39D-10
 IDIUse=1 WtCom= 1.00D+00 WtEn= 0.00D+00
 Coeff-Com: -0.333D-05 0.439D-05-0.100D-04-0.165D-04-0.920D-04-0.296D-03
 Coeff-Com: -0.481D-03 0.627D-03 0.278D-02 0.354D-03-0.126D-01-0.106D-01
 Coeff-Com:  0.358D-01 0.746D-01-0.203D-01-0.245D+00-0.152D+00 0.618D+00
 Coeff-Com:  0.709D+00
 Coeff:     -0.333D-05 0.439D-05-0.100D-04-0.165D-04-0.920D-04-0.296D-03
 Coeff:     -0.481D-03 0.627D-03 0.278D-02 0.354D-03-0.126D-01-0.106D-01
 Coeff:      0.358D-01 0.746D-01-0.203D-01-0.245D+00-0.152D+00 0.618D+00
 Coeff:      0.709D+00
 Gap=     0.084 Goal=   None    Shift=    0.000
 Gap=     0.156 Goal=   None    Shift=    0.000
 RMSDP=2.60D-06 MaxDP=4.88D-04 DE=-3.25D-10 OVMax= 4.77D-06

 Cycle  20  Pass 1  IDiag  1:
 RMSU=  1.03D-06    CP:  6.43D-01  2.02D+00  6.84D-01  3.90D-01  8.94D-01
                    CP:  1.00D+00  2.26D+00  3.00D+00  3.00D+00  3.00D+00
                    CP:  3.00D+00  3.00D+00  3.00D+00  3.00D+00  3.00D+00
                    CP:  3.00D+00  3.00D+00  1.67D+00  2.00D+00
 E= -1615.55633583488     Delta-E=        0.000000000027 Rises=F Damp=F
 DIIS: error= 5.15D-08 at cycle  20 NSaved=  20.
 NSaved=20 IEnMin=19 EnMin= -1615.55633583491     IErMin=20 ErrMin= 5.15D-08
 ErrMax= 5.15D-08  0.00D+00 EMaxC= 1.00D-01 BMatC= 1.47D-11 BMatP= 6.43D-11
 IDIUse=1 WtCom= 1.00D+00 WtEn= 0.00D+00
 Coeff-Com: -0.164D-05 0.231D-05-0.795D-06-0.272D-06-0.427D-04-0.183D-03
 Coeff-Com: -0.413D-03-0.534D-04 0.194D-02 0.136D-02-0.491D-02-0.775D-02
 Coeff-Com:  0.457D-02 0.355D-01 0.359D-01-0.887D-01-0.142D+00 0.125D+00
 Coeff-Com:  0.380D+00 0.660D+00
 Coeff:     -0.164D-05 0.231D-05-0.795D-06-0.272D-06-0.427D-04-0.183D-03
 Coeff:     -0.413D-03-0.534D-04 0.194D-02 0.136D-02-0.491D-02-0.775D-02
 Coeff:      0.457D-02 0.355D-01 0.359D-01-0.887D-01-0.142D+00 0.125D+00
 Coeff:      0.380D+00 0.660D+00
 Gap=     0.084 Goal=   None    Shift=    0.000
 Gap=     0.156 Goal=   None    Shift=    0.000
 RMSDP=7.02D-07 MaxDP=1.33D-04 DE= 2.73D-11 OVMax= 2.14D-06

 Cycle  21  Pass 1  IDiag  1:
 Restarting incremental Fock formation.
 E= -1615.55633583491     Delta-E=       -0.000000000030 Rises=F Damp=F
 DIIS: error= 4.23D-08 at cycle  21 NSaved=  20.
 NSaved=20 IEnMin=20 EnMin= -1615.55633583491     IErMin=20 ErrMin= 4.23D-08
 ErrMax= 4.23D-08  0.00D+00 EMaxC= 1.00D-01 BMatC= 5.03D-12 BMatP= 1.47D-11
 IDIUse=1 WtCom= 1.00D+00 WtEn= 0.00D+00
 Coeff-Com:  0.149D-06 0.276D-05 0.530D-05 0.365D-05-0.137D-04-0.791D-04
 Coeff-Com: -0.239D-03 0.218D-03 0.711D-03 0.114D-02-0.790D-03-0.996D-02
[...]
 
              Baa    -0.0046    -0.616    -0.220    -0.205  0.0717  0.1590  0.9847
     6 C(13)  Bbb     0.0007     0.097     0.035     0.032 -0.4321  0.8947 -0.1130
              Bcc     0.0039     0.519     0.185     0.173  0.8990  0.4174 -0.1328
 
              Baa    -0.0006    -0.080    -0.029    -0.027  0.7639  0.0988 -0.6377
     7 C(13)  Bbb    -0.0001    -0.019    -0.007    -0.006  0.6303  0.0978  0.7702
              Bcc     0.0007     0.099     0.035     0.033 -0.1385  0.9903 -0.0125
 
              Baa    -0.0003    -0.176    -0.063    -0.059  0.1031 -0.0256  0.9943
     8 H(1)   Bbb    -0.0003    -0.171    -0.061    -0.057  0.9829  0.1560 -0.0978
              Bcc     0.0007     0.347     0.124     0.116 -0.1526  0.9874  0.0413
 
              Baa    -0.0412    -5.531    -1.974    -1.845  0.9935  0.0986 -0.0569
     9 C(13)  Bbb     0.0163     2.187     0.780     0.729 -0.1126  0.7750 -0.6219
              Bcc     0.0249     3.344     1.193     1.116 -0.0172  0.6243  0.7810
 
              Baa    -0.0006    -0.080    -0.029    -0.027  0.7642 -0.0974 -0.6376
    10 C(13)  Bbb    -0.0001    -0.019    -0.007    -0.006  0.6300 -0.0995  0.7702
              Bcc     0.0007     0.099     0.035     0.033  0.1385  0.9903  0.0146
 
              Baa    -0.0003    -0.176    -0.063    -0.059  0.1033  0.0235  0.9944
    11 H(1)   Bbb    -0.0003    -0.171    -0.061    -0.057  0.9829 -0.1558 -0.0984
              Bcc     0.0007     0.347     0.124     0.116  0.1526  0.9875 -0.0392
 
              Baa    -0.0013    -0.179    -0.064    -0.060  0.9885  0.0422  0.1449
    12 C(13)  Bbb     0.0002     0.021     0.007     0.007 -0.0958 -0.5664  0.8185
              Bcc     0.0012     0.158     0.056     0.053 -0.1166  0.8230  0.5559
 
              Baa    -0.0046    -0.616    -0.220    -0.205  0.0717 -0.1610  0.9843
    13 C(13)  Bbb     0.0007     0.097     0.035     0.032  0.4322  0.8945  0.1148
              Bcc     0.0039     0.519     0.185     0.173  0.8989 -0.4172 -0.1337
 
              Baa    -0.0379    -5.082    -1.813    -1.695  0.0438  0.7762  0.6290
    14 C(13)  Bbb    -0.0360    -4.836    -1.726    -1.613  0.0035 -0.6297  0.7768
              Bcc     0.0739     9.917     3.539     3.308  0.9990 -0.0318 -0.0302
 
              Baa    -0.0491    -6.594    -2.353    -2.200  0.9964 -0.0007 -0.0845
    15 C(13)  Bbb     0.0197     2.649     0.945     0.883  0.0355  0.9111  0.4107
              Bcc     0.0294     3.946     1.408     1.316  0.0767 -0.4122  0.9078
 
              Baa    -0.0230    -3.082    -1.100    -1.028  0.9946  0.1006 -0.0257
    16 C(13)  Bbb     0.0097     1.297     0.463     0.433 -0.1038  0.9618 -0.2533
              Bcc     0.0133     1.785     0.637     0.595 -0.0007  0.2546  0.9670
 
              Baa    -0.0017    -0.883    -0.315    -0.294  0.8722  0.4868 -0.0476
    17 H(1)   Bbb    -0.0005    -0.243    -0.087    -0.081 -0.4613  0.7865 -0.4107
              Bcc     0.0021     1.126     0.402     0.375 -0.1625  0.3801  0.9105
 
              Baa    -0.0034    -0.459    -0.164    -0.153  0.1959 -0.0600  0.9788
    18 C(13)  Bbb    -0.0014    -0.181    -0.065    -0.060  0.9721 -0.1193 -0.2018
              Bcc     0.0048     0.640     0.229     0.214  0.1289  0.9910  0.0349
 
              Baa    -0.0008    -0.408    -0.145    -0.136  0.1543  0.0310  0.9875
    19 H(1)   Bbb    -0.0006    -0.312    -0.111    -0.104  0.8819 -0.4550 -0.1236
              Bcc     0.0013     0.720     0.257     0.240  0.4455  0.8900 -0.0975
 
              Baa    -0.0427    -5.736    -2.047    -1.913  0.0588  0.9292  0.3648
    20 C(13)  Bbb    -0.0396    -5.313    -1.896    -1.772 -0.0649 -0.3611  0.9303
              Bcc     0.0823    11.050     3.943     3.686  0.9962 -0.0784  0.0391
 
              Baa    -0.0052    -0.700    -0.250    -0.234  0.9435  0.3297  0.0342
    21 C(13)  Bbb    -0.0042    -0.561    -0.200    -0.187  0.0875 -0.3471  0.9338
              Bcc     0.0094     1.262     0.450     0.421 -0.3197  0.8780  0.3563
 
              Baa    -0.0030    -1.586    -0.566    -0.529  0.3290  0.0698  0.9418
    22 H(1)   Bbb    -0.0021    -1.110    -0.396    -0.370  0.6522  0.7044 -0.2800
              Bcc     0.0051     2.696     0.962     0.899 -0.6830  0.7063  0.1862
 
              Baa    -0.0491    -6.594    -2.353    -2.200  0.9964  0.0010 -0.0845
    23 C(13)  Bbb     0.0197     2.649     0.945     0.883 -0.0356  0.9119 -0.4088
              Bcc     0.0294     3.945     1.408     1.316  0.0767  0.4103  0.9087
 
              Baa    -0.0427    -5.736    -2.047    -1.913 -0.0589  0.9300 -0.3629
    24 C(13)  Bbb    -0.0396    -5.313    -1.896    -1.772 -0.0650  0.3592  0.9310
              Bcc     0.0823    11.049     3.943     3.686  0.9961  0.0784  0.0392
 
              Baa    -0.0034    -0.459    -0.164    -0.153  0.1959  0.0579  0.9789
    25 C(13)  Bbb    -0.0014    -0.181    -0.065    -0.060  0.9721  0.1198 -0.2016
              Bcc     0.0048     0.640     0.229     0.214 -0.1289  0.9911 -0.0328
 
              Baa    -0.0008    -0.408    -0.145    -0.136  0.1544 -0.0331  0.9875
    26 H(1)   Bbb    -0.0006    -0.312    -0.111    -0.104  0.8819  0.4552 -0.1226
              Bcc     0.0013     0.720     0.257     0.240 -0.4455  0.8898  0.0995
 
              Baa    -0.0379    -5.082    -1.813    -1.695 -0.0439  0.7775 -0.6274
    27 C(13)  Bbb    -0.0360    -4.836    -1.726    -1.613  0.0034  0.6281  0.7781
              Bcc     0.0739     9.918     3.539     3.308  0.9990  0.0321 -0.0302
 
              Baa    -0.0364    -4.891    -1.745    -1.632 -0.1384  0.9898  0.0332
    28 C(13)  Bbb    -0.0349    -4.683    -1.671    -1.562  0.0324 -0.0290  0.9991
              Bcc     0.0713     9.574     3.416     3.194  0.9898  0.1393 -0.0281
 
              Baa    -0.0036    -1.911    -0.682    -0.637  0.2516  0.2443  0.9365
    29 H(1)   Bbb    -0.0006    -0.318    -0.114    -0.106  0.9573  0.0796 -0.2780
              Bcc     0.0042     2.229     0.795     0.744 -0.1425  0.9664 -0.2138
 
              Baa    -0.0285    -3.829    -1.366    -1.277 -0.0421  0.9682  0.2467
    30 C(13)  Bbb    -0.0264    -3.543    -1.264    -1.182  0.0920 -0.2421  0.9659
              Bcc     0.0549     7.372     2.630     2.459  0.9949  0.0633 -0.0789
 
              Baa    -0.0022    -1.178    -0.420    -0.393 -0.2678  0.0115  0.9634
    31 H(1)   Bbb    -0.0012    -0.631    -0.225    -0.210  0.9462  0.1917  0.2607
              Bcc     0.0034     1.809     0.645     0.603 -0.1817  0.9814 -0.0623
 
              Baa    -0.0415    -5.576    -1.989    -1.860 -0.1321  0.8616 -0.4901
    32 C(13)  Bbb    -0.0368    -4.933    -1.760    -1.645 -0.0128  0.4929  0.8700
              Bcc     0.0783    10.508     3.750     3.505  0.9912  0.1211 -0.0541
 
              Baa    -0.0062    -3.308    -1.180    -1.104 -0.0898  0.8715 -0.4821
    33 H(1)   Bbb    -0.0005    -0.249    -0.089    -0.083  0.9926  0.1179  0.0283
              Bcc     0.0067     3.557     1.269     1.187 -0.0815  0.4760  0.8757
 
              Baa    -0.0052    -0.700    -0.250    -0.234  0.9435 -0.3297  0.0335
    34 C(13)  Bbb    -0.0042    -0.562    -0.200    -0.187  0.0874  0.3450  0.9345
              Bcc     0.0094     1.262     0.450     0.421  0.3197  0.8788 -0.3543
 
              Baa    -0.0030    -1.587    -0.566    -0.529  0.3289 -0.0718  0.9416
    35 H(1)   Bbb    -0.0021    -1.110    -0.396    -0.370 -0.6522  0.7038  0.2815
              Bcc     0.0051     2.696     0.962     0.899  0.6830  0.7067 -0.1846
 
              Baa    -0.0261    -3.496    -1.248    -1.166  0.9994 -0.0351  0.0057
    36 C(13)  Bbb     0.0106     1.424     0.508     0.475  0.0350  0.9994  0.0081
              Bcc     0.0154     2.072     0.739     0.691 -0.0060 -0.0079  1.0000
 
              Baa    -0.0016    -0.866    -0.309    -0.289  0.6536  0.7558 -0.0405
    37 H(1)   Bbb    -0.0005    -0.278    -0.099    -0.093  0.7347 -0.6464 -0.2058
              Bcc     0.0021     1.144     0.408     0.382  0.1818 -0.1048  0.9777
 
              Baa    -0.0412    -5.531    -1.974    -1.845  0.9935 -0.0984 -0.0571
    38 C(13)  Bbb     0.0163     2.187     0.780     0.729  0.1125  0.7737  0.6235
              Bcc     0.0249     3.344     1.193     1.116 -0.0172 -0.6259  0.7797
 
              Baa    -0.0153    -2.054    -0.733    -0.685 -0.0296 -0.1395  0.9898
    39 C(13)  Bbb    -0.0141    -1.895    -0.676    -0.632 -0.0062  0.9902  0.1394
              Bcc     0.0294     3.949     1.409     1.317  0.9995  0.0020  0.0302
 
              Baa    -0.0027    -1.445    -0.516    -0.482 -0.0445 -0.2899  0.9560
    40 H(1)   Bbb    -0.0009    -0.502    -0.179    -0.167  0.9830  0.1578  0.0936
              Bcc     0.0036     1.947     0.695     0.649 -0.1780  0.9440  0.2780
 
              Baa    -0.0370    -4.970    -1.773    -1.658  0.0412  0.9796  0.1966
    41 C(13)  Bbb    -0.0322    -4.322    -1.542    -1.442  0.0024 -0.1969  0.9804
              Bcc     0.0692     9.291     3.315     3.099  0.9991 -0.0399 -0.0105
 
              Baa    -0.0056    -3.014    -1.076    -1.005  0.0063  0.9776  0.2102
    42 H(1)   Bbb    -0.0001    -0.043    -0.015    -0.014  0.9971  0.0100 -0.0761
              Bcc     0.0057     3.058     1.091     1.020  0.0765 -0.2100  0.9747
 
              Baa    -0.0045    -0.600    -0.214    -0.200  0.1576  0.9740 -0.1629
    43 C(13)  Bbb    -0.0037    -0.500    -0.178    -0.167  0.1037  0.1477  0.9836
              Bcc     0.0082     1.100     0.392     0.367  0.9820 -0.1719 -0.0777
 
              Baa    -0.0014    -0.728    -0.260    -0.243  0.7148  0.4996  0.4894
    44 H(1)   Bbb    -0.0010    -0.507    -0.181    -0.169 -0.6665  0.2747  0.6931
              Bcc     0.0023     1.234     0.440     0.412 -0.2119  0.8215 -0.5293
 
              Baa    -0.0261    -3.496    -1.247    -1.166  0.9994  0.0352  0.0057
    45 C(13)  Bbb     0.0106     1.424     0.508     0.475 -0.0351  0.9994 -0.0060
              Bcc     0.0154     2.072     0.739     0.691 -0.0059  0.0058  1.0000
 
              Baa    -0.0016    -0.866    -0.309    -0.289 -0.6536  0.7557  0.0421
    46 H(1)   Bbb    -0.0005    -0.278    -0.099    -0.093  0.7347  0.6468 -0.2046
              Bcc     0.0021     1.144     0.408     0.382  0.1818  0.1027  0.9779
 
              Baa    -0.0214    -2.867    -1.023    -0.956  0.9929  0.1180  0.0113
    47 C(13)  Bbb     0.0092     1.239     0.442     0.413 -0.0911  0.8203 -0.5646
              Bcc     0.0121     1.629     0.581     0.543 -0.0759  0.5596  0.8253
 
              Baa    -0.0009    -0.458    -0.164    -0.153  0.9336 -0.0881  0.3473
    48 H(1)   Bbb    -0.0000    -0.001    -0.000    -0.000  0.3027  0.7126 -0.6329
              Bcc     0.0009     0.459     0.164     0.153 -0.1917  0.6960  0.6919
 
              Baa    -0.0285    -3.829    -1.366    -1.277  0.0420  0.9687 -0.2446
    49 C(13)  Bbb    -0.0264    -3.544    -1.264    -1.182  0.0919  0.2400  0.9664
              Bcc     0.0549     7.373     2.631     2.459  0.9949 -0.0631 -0.0789
 
              Baa    -0.0022    -1.178    -0.420    -0.393 -0.2678 -0.0135  0.9634
    50 H(1)   Bbb    -0.0012    -0.631    -0.225    -0.210  0.9462 -0.1922  0.2603
              Bcc     0.0034     1.809     0.645     0.603  0.1816  0.9813  0.0643
 
              Baa    -0.0370    -4.969    -1.773    -1.658 -0.0413  0.9800 -0.1945
    51 C(13)  Bbb    -0.0322    -4.321    -1.542    -1.441  0.0025  0.1948  0.9808
              Bcc     0.0692     9.290     3.315     3.099  0.9991  0.0400 -0.0104
 
              Baa    -0.0056    -3.014    -1.075    -1.005 -0.0063  0.9781 -0.2081
    52 H(1)   Bbb    -0.0001    -0.043    -0.016    -0.014  0.9970 -0.0097 -0.0762
              Bcc     0.0057     3.057     1.091     1.020  0.0765  0.2080  0.9751
 
              Baa    -0.0230    -3.082    -1.100    -1.028  0.9946 -0.1004 -0.0259
    53 C(13)  Bbb     0.0097     1.297     0.463     0.433  0.1037  0.9613  0.2553
              Bcc     0.0133     1.785     0.637     0.595 -0.0007 -0.2566  0.9665
 
              Baa    -0.0017    -0.883    -0.315    -0.294  0.8723 -0.4866 -0.0486
    54 H(1)   Bbb    -0.0005    -0.243    -0.087    -0.081  0.4613  0.7856  0.4123
              Bcc     0.0021     1.126     0.402     0.375 -0.1625 -0.3820  0.9098
 
              Baa    -0.0266    -3.573    -1.275    -1.192  0.9974  0.0479 -0.0530
    55 C(13)  Bbb     0.0120     1.614     0.576     0.538 -0.0630  0.9399 -0.3356
              Bcc     0.0146     1.959     0.699     0.653  0.0337  0.3381  0.9405
 
              Baa    -0.0014    -0.731    -0.261    -0.244  0.8216  0.4362 -0.3670
    56 H(1)   Bbb    -0.0001    -0.050    -0.018    -0.017 -0.5615  0.7302 -0.3892
              Bcc     0.0015     0.781     0.279     0.260  0.0982  0.5259  0.8449
 
              Baa    -0.0415    -5.575    -1.989    -1.860  0.1320  0.8606  0.4918
    57 C(13)  Bbb    -0.0368    -4.933    -1.760    -1.645 -0.0127 -0.4947  0.8690
              Bcc     0.0783    10.508     3.750     3.505  0.9912 -0.1209 -0.0543
 
              Baa    -0.0062    -3.308    -1.180    -1.104  0.0897  0.8705  0.4839
    58 H(1)   Bbb    -0.0005    -0.249    -0.089    -0.083  0.9926 -0.1178  0.0280
              Bcc     0.0067     3.557     1.269     1.187 -0.0814 -0.4778  0.8747
 
              Baa    -0.0153    -2.054    -0.733    -0.685 -0.0297  0.1375  0.9901
    59 C(13)  Bbb    -0.0141    -1.895    -0.676    -0.632  0.0061  0.9905 -0.1374
              Bcc     0.0294     3.949     1.409     1.317  0.9995 -0.0019  0.0303
 
              Baa    -0.0027    -1.445    -0.516    -0.482 -0.0446  0.2879  0.9566
    60 H(1)   Bbb    -0.0009    -0.502    -0.179    -0.167  0.9830 -0.1579  0.0933
              Bcc     0.0036     1.947     0.695     0.649  0.1779  0.9445 -0.2760
 
              Baa    -0.0266    -3.573    -1.275    -1.192  0.9975 -0.0477 -0.0530
    61 C(13)  Bbb     0.0120     1.614     0.576     0.539  0.0629  0.9392  0.3376
              Bcc     0.0146     1.959     0.699     0.653  0.0337 -0.3401  0.9398
 
              Baa    -0.0014    -0.731    -0.261    -0.244  0.8216 -0.4354 -0.3679
    62 H(1)   Bbb    -0.0001    -0.050    -0.018    -0.017  0.5615  0.7294  0.3908
              Bcc     0.0015     0.781     0.279     0.260  0.0982 -0.5276  0.8438
 
              Baa    -0.0045    -0.600    -0.214    -0.200 -0.1578  0.9736  0.1648
    63 C(13)  Bbb    -0.0037    -0.500    -0.178    -0.167  0.1037 -0.1496  0.9833
              Bcc     0.0082     1.099     0.392     0.367  0.9820  0.1723 -0.0774
 
              Baa    -0.0014    -0.727    -0.260    -0.243  0.7148 -0.5006  0.4883
    64 H(1)   Bbb    -0.0009    -0.507    -0.181    -0.169 -0.6664 -0.2762  0.6925
              Bcc     0.0023     1.234     0.440     0.412  0.2118  0.8204  0.5310
 
              Baa    -0.0365    -4.891    -1.745    -1.632  0.1383  0.9899 -0.0312
    65 C(13)  Bbb    -0.0349    -4.683    -1.671    -1.562  0.0323  0.0270  0.9991
              Bcc     0.0713     9.574     3.416     3.194  0.9899 -0.1392 -0.0283
 
              Baa    -0.0036    -1.911    -0.682    -0.637  0.2516 -0.2462  0.9360
    66 H(1)   Bbb    -0.0006    -0.318    -0.114    -0.106  0.9573 -0.0789 -0.2781
              Bcc     0.0042     2.229     0.795     0.744  0.1423  0.9660  0.2158
 
              Baa    -0.0214    -2.868    -1.023    -0.957  0.9930 -0.1179  0.0111
    67 C(13)  Bbb     0.0092     1.239     0.442     0.413  0.0910  0.8191  0.5663
              Bcc     0.0121     1.629     0.581     0.543 -0.0758 -0.5613  0.8241
 
              Baa    -0.0009    -0.458    -0.164    -0.153  0.9335  0.0877  0.3476
    68 H(1)   Bbb    -0.0000    -0.000    -0.000    -0.000 -0.3030  0.7112  0.6343
              Bcc     0.0009     0.459     0.164     0.153  0.1916  0.6975 -0.6905
 

 ---------------------------------------------------------------------------------

 No NMR shielding tensors so no spin-rotation constants.
 Leave Link  601 at Fri Nov 15 15:56:28 2024, MaxMem=  3221225472 cpu:              50.4 elap:               2.0
 (Enter /home/szhao/Apps/g16/l9999.exe)
 1\1\GINC-NODE05\FOpt\UM062X\6-311+G(d,p)\C42H26(1+,2)\SZHAO\15-Nov-202
 4\0\\#p opt UM062X/6-311+G** nosymm int=superfine\\Title Card Required
 \\1,2\C,-1.69769539,0.,0.\C,1.69769539,0.,0.\C,0.0000047655,-2.0402961
 175,-0.0021812661\C,0.00000076,-3.4447936508,-0.0037300105\C,-1.132579
 9354,-4.2831465037,0.1839005157\C,-1.3366349985,-1.4614997512,0.152713
 9062\C,0.6650981636,-5.6758874919,-0.1198424223\H,1.3001574059,-6.5429
 490569,-0.2322584358\C,-1.693187918,0.7569853302,1.2256882402\C,-0.665
 112543,-5.6761338406,0.1074453236\H,-1.3001798867,-6.5434366729,0.2179
 378382\C,1.1325724607,-4.282737545,-0.193234024\C,1.3366468151,-1.4611
 715643,-0.1558226888\C,1.8116511296,2.1841599006,-1.3544780052\C,-1.80
 92176288,0.418804979,-1.3711822017\C,-1.8325492844,2.7544813501,2.6437
 914314\H,-1.9389175734,3.8305106164,2.7183307535\C,-2.3522064656,-3.70
 60870423,0.3939200795\H,-3.2519917444,-4.2878685776,0.5562167219\C,-1.
 8074341976,1.7698619437,-1.8561078184\C,2.4202890329,-2.2911809456,-0.
 3680308675\H,3.3933338227,-1.8231181027,-0.4798670826\C,1.8092108336,0
 .4159495498,1.3720618113\C,1.8073319021,1.7659976246,1.8597963366\C,2.
 3521950564,-3.7052245232,-0.4020301362\H,3.2519687724,-4.2866533349,-0
 .5656491985\C,-1.8117916731,2.1813226866,1.3590322845\C,-1.523488983,0
 .0272590581,2.4404218644\H,-1.3903258833,-1.0427188124,2.3971926824\C,
 1.8658779632,-0.6121505208,2.3665914624\H,1.8954302394,-1.6455113823,2
 .0566490252\C,-1.7142791307,2.0029904233,3.7943407716\H,-1.7426620498,
 2.4808871054,4.7660306387\C,-2.4202925055,-2.2919711114,0.3630262186\H
 ,-3.3933417745,-1.8241532704,0.4758411203\C,-1.8217970511,2.0028164019
 ,-3.2458109354\H,-1.8028938593,3.0311092182,-3.5877073704\C,1.69319241
 39,0.7595381765,-1.2240995456\C,-1.8396413724,3.1347484187,0.282038729
 8\H,-1.8704655315,4.1679756936,0.6137604022\C,-1.8741855433,0.98352446
 5,-4.1689307614\H,-1.9000892062,1.2055677477,-5.22888921\C,-1.80636187
 09,2.963023619,-1.0547422478\H,-1.8045557933,3.8794125241,-1.637092577
 8\C,1.8217348565,1.9960611873,3.2499812404\H,1.8027489835,3.023638589,
 3.5940168635\C,-1.539768197,0.6220846965,3.6815872717\H,-1.4158557842,
 0.0105207885,4.5670766631\C,-1.8657811799,-0.6072299173,-2.3678464013\
 H,-1.8952771586,-1.6412345419,-2.0600468264\C,1.8742571615,0.974857403
 5,4.170975827\H,1.9001926028,1.1947008413,5.2313922375\C,1.8323745907,
 2.7599858909,-2.6380449821\H,1.9386240755,3.8361788843,-2.7103508322\C
 ,1.9137066929,-0.3475296112,3.7132464793\H,1.9774803205,-1.1690874989,
 4.4163106609\C,1.7142074341,2.0108674798,-3.7901522484\H,1.7425540117,
 2.490781473,-4.7608484173\C,1.8393607476,3.1353423118,-0.2755006453\H,
 1.8700506695,4.169262618,-0.6050685158\C,-1.9135629945,-0.3398125371,-
 3.7139515465\H,-1.9772380928,-1.1599143927,-4.4187224812\C,1.806095122
 9,2.9608255464,1.0609195625\H,1.8041646234,3.875998547,1.6451792865\C,
 1.523617638,0.0323090357,-2.4403426855\H,1.3905860967,-1.0377746696,-2
 .3993128264\C,1.5398596487,0.6297066539,-3.6802704765\H,1.4160399274,0
 .0199678969,-4.5670307861\\Version=ES64L-G16RevA.03\HF=-1615.5708687\S
 2=0.768292\S2-1=0.\S2A=0.750292\RMSD=8.949e-09\RMSF=2.462e-06\Dipole=0
 .000013,1.1019579,0.0011482\Quadrupole=-22.9947681,12.1386279,10.85614
 03,-0.0026784,1.1224091,0.0028296\PG=C01 [X(C42H26)]\\@


 IT PROBABLY IS NOT POSSIBLE FOR A SCIENTIST TO INTERROGATE NATURE 
 FROM A WHOLLY DISINTERESTED VIEWPOINT.
 EVEN IF HE HAS NO PARTICULAR AXE TO GRIND, HE IS LIKELY TO HAVE 
 A DISTINCTIVE WAY OF VIEWING NATURE.

                                                   -- JOHN LOSEE
 Job cpu time:      12 days  0 hours  4 minutes 43.3 seconds.
 Elapsed time:       0 days 10 hours 21 minutes 19.9 seconds.
 File lengths (MBytes):  RWF=   1251 Int=      0 D2E=      0 Chk=    102 Scr=      2
 Normal termination of Gaussian 16 at Fri Nov 15 15:56:31 2024.
