 running on   28 total cores
 distrk:  each k-point on   28 cores,    1 groups
 distr:  one band on   14 cores,    2 groups
 vasp.6.3.1 04May22 (build Aug 04 2022 13:02:54) complex                        
  
 POSCAR found type information on POSCAR C 
 POSCAR found :  1 types and       2 ions
 scaLAPACK will be used
 -----------------------------------------------------------------------------
|                                                                             |
|           W    W    AA    RRRRR   N    N  II  N    N   GGGG   !!!           |
|           W    W   A  A   R    R  NN   N  II  NN   N  G    G  !!!           |
|           W    W  A    A  R    R  N N  N  II  N N  N  G       !!!           |
|           W WW W  AAAAAA  RRRRR   N  N N  II  N  N N  G  GGG   !            |
|           WW  WW  A    A  R   R   N   NN  II  N   NN  G    G                |
|           W    W  A    A  R    R  N    N  II  N    N   GGGG   !!!           |
|                                                                             |
|     For optimal performance we recommend to set                             |
|       NCORE = 2 up to number-of-cores-per-socket                            |
|     NCORE specifies how many cores store one orbital (NPAR=cpu/NCORE).      |
|     This setting can greatly improve the performance of VASP for DFT.       |
|     The default, NCORE=1 might be grossly inefficient on modern             |
|     multi-core architectures or massively parallel machines. Do your        |
|     own testing! More info at https://www.vasp.at/wiki/index.php/NCORE      |
|     Unfortunately you need to use the default for GW and RPA                |
|     calculations (for HF NCORE is supported but not extensively tested      |
|     yet).                                                                   |
|                                                                             |
 -----------------------------------------------------------------------------

 LDA part: xc-table for Pade appr. of Perdew
 POSCAR, INCAR and KPOINTS ok, starting setup
 FFT: planning ... GRIDC
 FFT: planning ... GRID_SOFT
 FFT: planning ... GRID
 WAVECAR not read
 WARNING: random wavefunctions but no delay for mixing, default for NELMDL
 entering main loop
       N       E                     dE             d eps       ncg     rms          rms(c)
DAV:   1     0.536012404912E+02    0.53601E+02   -0.41303E+03  3808   0.774E+02
DAV:   2    -0.165096275834E+02   -0.70111E+02   -0.59492E+02  4688   0.156E+02
DAV:   3    -0.194697982171E+02   -0.29602E+01   -0.29599E+01  5488   0.451E+01
DAV:   4    -0.194855395040E+02   -0.15741E-01   -0.15741E-01  5360   0.315E+00
DAV:   5    -0.194855695325E+02   -0.30028E-04   -0.30029E-04  5232   0.116E-01    0.958E+00
DAV:   6    -0.171407759169E+02    0.23448E+01   -0.22740E+00  5312   0.117E+01    0.574E+00
DAV:   7    -0.162566191858E+02    0.88416E+00   -0.28151E+00  5856   0.126E+01    0.180E+00
DAV:   8    -0.162366035027E+02    0.20016E-01   -0.22835E-02  5368   0.149E+00    0.152E-01
DAV:   9    -0.162312063062E+02    0.53972E-02   -0.29699E-03  4928   0.323E-01    0.117E-01
DAV:  10    -0.162231010517E+02    0.81053E-02   -0.84501E-03  4368   0.476E-01    0.571E-02
DAV:  11    -0.162242035728E+02   -0.11025E-02   -0.33741E-04  3928   0.120E-01    0.750E-02
DAV:  12    -0.162248197852E+02   -0.61621E-03   -0.83891E-05  4920   0.608E-02    0.175E-02
DAV:  13    -0.162258770151E+02   -0.10572E-02   -0.34494E-04  4880   0.789E-02    0.124E-02
DAV:  14    -0.162259634346E+02   -0.86420E-04   -0.78935E-06  4424   0.179E-02    0.480E-03
DAV:  15    -0.162261106749E+02   -0.14724E-03   -0.12259E-05  4072   0.156E-02    0.246E-03
DAV:  16    -0.162261234658E+02   -0.12791E-04   -0.44659E-07  4296   0.384E-03    0.665E-04
DAV:  17    -0.162261256858E+02   -0.22200E-05   -0.60614E-08  4088   0.124E-03    0.164E-04
DAV:  18    -0.162261260171E+02   -0.33130E-06   -0.55981E-09  4616   0.383E-04    0.131E-04
DAV:  19    -0.162261261206E+02   -0.10344E-06   -0.17419E-09  3904   0.198E-04    0.172E-05
DAV:  20    -0.162261261302E+02   -0.96070E-08   -0.72898E-11  4440   0.602E-05
   1 F= -.16396021E+02 E0= -.16395893E+02  d E =-.255866E-03
