Title Card Required                                                     
Force     UM062X                                                      6-311+G(d,p)        
Number of atoms                            I                6
Info1-9                                    I   N=           9
          15          15           0           0           0         100
           5          18        -502
Full Title                                 C   N=           2
Title Card Required     
Route                                      C   N=           4
#p UM062X/6-311+G** force int=superfine         
Charge                                     I                0
Multiplicity                               I                1
Number of electrons                        I               16
Number of alpha electrons                  I                8
Number of beta electrons                   I                8
Number of basis functions                  I               68
Number of independent functions            I               68
Number of point charges in /Mol/           I                0
Number of translation vectors              I                0
Atomic numbers                             I   N=           6
           6           6           1           1           1           1
Nuclear charges                            R   N=           6
  6.00000000E+00  6.00000000E+00  1.00000000E+00  1.00000000E+00  1.00000000E+00
  1.00000000E+00
Current cartesian coordinates              R   N=          18
  1.02273698E-21  1.10232827E+00  4.93038066E-32 -1.34997983E-16 -1.10232827E+00
  0.00000000E+00  1.71693713E+00  2.23515861E+00  4.93038066E-32 -1.71688799E+00
  2.23517751E+00  9.86076132E-32 -1.71693713E+00 -2.23515861E+00  0.00000000E+00
  1.71688799E+00 -2.23517751E+00  0.00000000E+00
Number of symbols in /Mol/                 I                0
Force Field                                I                0
Atom Types                                 C   N=           6
                                                            
            
Int Atom Types                             I   N=           6
           0           0           0           0           0           0
MM charges                                 R   N=           6
  0.00000000E+00  0.00000000E+00  0.00000000E+00  0.00000000E+00  0.00000000E+00
  0.00000000E+00
Integer atomic weights                     I   N=           6
          12          12           1           1           1           1
Real atomic weights                        R   N=           6
  1.20000000E+01  1.20000000E+01  1.00782504E+00  1.00782504E+00  1.00782504E+00
  1.00782504E+00
Atom fragment info                         I   N=           6
           0           0           0           0           0           0
Atom residue num                           I   N=           6
           0           0           0           0           0           0
Nuclear spins                              I   N=           6
           0           0           1           1           1           1
Nuclear ZEff                               R   N=           6
 -3.60000000E+00 -3.60000000E+00 -1.00000000E+00 -1.00000000E+00 -1.00000000E+00
 -1.00000000E+00
Nuclear ZNuc                               R   N=           6
  6.00000000E+00  6.00000000E+00  1.00000000E+00  1.00000000E+00  1.00000000E+00
  1.00000000E+00
Nuclear QMom                               R   N=           6
  0.00000000E+00  0.00000000E+00  0.00000000E+00  0.00000000E+00  0.00000000E+00
  0.00000000E+00
Nuclear GFac                               R   N=           6
  0.00000000E+00  0.00000000E+00  2.79284600E+00  2.79284600E+00  2.79284600E+00
  2.79284600E+00
MicOpt                                     I   N=           6
          -1          -1          -1          -1          -1          -1
Number of residues                         I                0
Number of secondary structures             I                0
SymInf integers                            I   N=          26
           2           4           1           1           1          -1
          -1           1           1           1          -1          -1
          -1          -1           0           0           0           0
           0           0           0           0           0           0
           0           0
RotTr to input orientation                 R   N=          12
 -6.75933838E-17 -1.00000000E+00 -8.32144014E-22 -1.00000000E+00  6.75930746E-17
 -1.22464680E-16  1.22464680E-16  8.32144014E-22 -1.00000000E+00  2.77555756E-17
  0.00000000E+00  0.00000000E+00
Number of contracted shells                I               28
Number of primitive shells                 I               50
Pure/Cartesian d shells                    I                0
Pure/Cartesian f shells                    I                0
Highest angular momentum                   I                2
Largest degree of contraction              I                6
Shell types                                I   N=          28
           0          -1          -1          -1          -1          -2
           0          -1          -1          -1          -1          -2
           0           0           0           1           0           0
           0           1           0           0           0           1
           0           0           0           1
Number of primitives per shell             I   N=          28
           6           3           1           1           1           1
           6           3           1           1           1           1
           3           1           1           1           3           1
           1           1           3           1           1           1
           3           1           1           1
Shell to atom map                          I   N=          28
           1           1           1           1           1           1
           2           2           2           2           2           2
           3           3           3           3           4           4
           4           4           5           5           5           5
           6           6           6           6
Primitive exponents                        R   N=          50
  4.56324000E+03  6.82024000E+02  1.54973000E+02  4.44553000E+01  1.30290000E+01
  1.82773000E+00  2.09642000E+01  4.80331000E+00  1.45933000E+00  4.83456000E-01
  1.45585000E-01  4.38000000E-02  6.26000000E-01  4.56324000E+03  6.82024000E+02
  1.54973000E+02  4.44553000E+01  1.30290000E+01  1.82773000E+00  2.09642000E+01
  4.80331000E+00  1.45933000E+00  4.83456000E-01  1.45585000E-01  4.38000000E-02
  6.26000000E-01  3.38650000E+01  5.09479000E+00  1.15879000E+00  3.25840000E-01
  1.02741000E-01  7.50000000E-01  3.38650000E+01  5.09479000E+00  1.15879000E+00
  3.25840000E-01  1.02741000E-01  7.50000000E-01  3.38650000E+01  5.09479000E+00
  1.15879000E+00  3.25840000E-01  1.02741000E-01  7.50000000E-01  3.38650000E+01
  5.09479000E+00  1.15879000E+00  3.25840000E-01  1.02741000E-01  7.50000000E-01
Contraction coefficients                   R   N=          50
  1.96665025E-03  1.52306019E-02  7.61269097E-02  2.60801033E-01  6.16462078E-01
  2.21006028E-01  1.14660081E-01  9.19999648E-01 -3.03068213E-03  1.00000000E+00
  1.00000000E+00  1.00000000E+00  1.00000000E+00  1.96665025E-03  1.52306019E-02
  7.61269097E-02  2.60801033E-01  6.16462078E-01  2.21006028E-01  1.14660081E-01
  9.19999648E-01 -3.03068213E-03  1.00000000E+00  1.00000000E+00  1.00000000E+00
  1.00000000E+00  2.54938145E-02  1.90373109E-01  8.52161486E-01  1.00000000E+00
  1.00000000E+00  1.00000000E+00  2.54938145E-02  1.90373109E-01  8.52161486E-01
  1.00000000E+00  1.00000000E+00  1.00000000E+00  2.54938145E-02  1.90373109E-01
  8.52161486E-01  1.00000000E+00  1.00000000E+00  1.00000000E+00  2.54938145E-02
  1.90373109E-01  8.52161486E-01  1.00000000E+00  1.00000000E+00  1.00000000E+00
P(S=P) Contraction coefficients            R   N=          50
  0.00000000E+00  0.00000000E+00  0.00000000E+00  0.00000000E+00  0.00000000E+00
  0.00000000E+00  4.02486927E-02  2.37593957E-01  8.15853851E-01  1.00000000E+00
  1.00000000E+00  1.00000000E+00  0.00000000E+00  0.00000000E+00  0.00000000E+00
  0.00000000E+00  0.00000000E+00  0.00000000E+00  0.00000000E+00  4.02486927E-02
  2.37593957E-01  8.15853851E-01  1.00000000E+00  1.00000000E+00  1.00000000E+00
  0.00000000E+00  0.00000000E+00  0.00000000E+00  0.00000000E+00  0.00000000E+00
  0.00000000E+00  0.00000000E+00  0.00000000E+00  0.00000000E+00  0.00000000E+00
  0.00000000E+00  0.00000000E+00  0.00000000E+00  0.00000000E+00  0.00000000E+00
  0.00000000E+00  0.00000000E+00  0.00000000E+00  0.00000000E+00  0.00000000E+00
  0.00000000E+00  0.00000000E+00  0.00000000E+00  0.00000000E+00  0.00000000E+00
Coordinates of each shell                  R   N=          84
  6.81824656E-22  1.10232827E+00  1.35872450E-32  6.81824656E-22  1.10232827E+00
  1.35872450E-32  6.81824656E-22  1.10232827E+00  1.35872450E-32  6.81824656E-22
  1.10232827E+00  1.35872450E-32  6.81824656E-22  1.10232827E+00  1.35872450E-32
  6.81824656E-22  1.10232827E+00  1.35872450E-32 -1.34997643E-16 -1.10232827E+00
  1.35872450E-32 -1.34997643E-16 -1.10232827E+00  1.35872450E-32 -1.34997643E-16
 -1.10232827E+00  1.35872450E-32 -1.34997643E-16 -1.10232827E+00  1.35872450E-32
 -1.34997643E-16 -1.10232827E+00  1.35872450E-32 -1.34997643E-16 -1.10232827E+00
  1.35872450E-32  1.71693713E+00  2.23515861E+00  2.75506992E-32  1.71693713E+00
  2.23515861E+00  2.75506992E-32  1.71693713E+00  2.23515861E+00  2.75506992E-32
  1.71693713E+00  2.23515861E+00  2.75506992E-32 -1.71688799E+00  2.23517751E+00
  2.75504477E-32 -1.71688799E+00  2.23517751E+00  2.75504477E-32 -1.71688799E+00
  2.23517751E+00  2.75504477E-32 -1.71688799E+00  2.23517751E+00  2.75504477E-32
 -1.71693713E+00 -2.23515861E+00  2.75508606E-32 -1.71693713E+00 -2.23515861E+00
  2.75508606E-32 -1.71693713E+00 -2.23515861E+00  2.75508606E-32 -1.71693713E+00
 -2.23515861E+00  2.75508606E-32  1.71688799E+00 -2.23517751E+00  2.75502863E-32
  1.71688799E+00 -2.23517751E+00  2.75502863E-32  1.71688799E+00 -2.23517751E+00
  2.75502863E-32  1.71688799E+00 -2.23517751E+00  2.75502863E-32
Num ILSW                                   I              100
ILSW                                       I   N=         100
           1           0           0           0           2           0
           0           0           0           0        4336          -1
           7           0           0           0           2           0
           0           0           0           0           1           0
           1           0           0           0           0           0
           0           0      100000           0          -1           0
           0           0           0           0           0           0
           0           0           0           1           0           0
           0 -2000000000           1           0           0           0
           0           0           4          52           0           0
           0           0          55           0           0           0
           0           0           0           6           0           1
           0           0           0           0           0           0
           0           0           0           0           0           0
           0           0           0           0           0           0
           0           0           0           0           0           0
           0           0           0           0
Num RLSW                                   I               52
RLSW                                       R   N=          52
  1.00000000E+00  1.00000000E+00  1.00000000E+00  1.00000000E+00  5.40000000E-01
  0.00000000E+00  0.00000000E+00  1.00000000E+00  0.00000000E+00  0.00000000E+00
  0.00000000E+00  0.00000000E+00  1.00000000E+00  0.00000000E+00  0.00000000E+00
  0.00000000E+00  0.00000000E+00  1.00000000E+00  0.00000000E+00  0.00000000E+00
  0.00000000E+00  0.00000000E+00  1.00000000E+00  0.00000000E+00  0.00000000E+00
  0.00000000E+00  0.00000000E+00  1.00000000E+00  0.00000000E+00  0.00000000E+00
  0.00000000E+00  0.00000000E+00  1.00000000E+00  0.00000000E+00  0.00000000E+00
  0.00000000E+00  0.00000000E+00  0.00000000E+00  1.00000000E+00  1.00000000E+00
  0.00000000E+00  1.00000000E+00  0.00000000E+00  0.00000000E+00  0.00000000E+00
  0.00000000E+00  0.00000000E+00  0.00000000E+00  0.00000000E+00  0.00000000E+00
  0.00000000E+00  0.00000000E+00
MxBond                                     I                3
NBond                                      I   N=           6
           3           3           1           1           1           1
IBond                                      I   N=          18
           2           3           4           1           5           6
           1           0           0           1           0           0
           2           0           0           2           0           0
RBond                                      R   N=          18
  3.00000000E+00  1.00000000E+00  1.00000000E+00  3.00000000E+00  1.00000000E+00
  1.00000000E+00  1.00000000E+00  0.00000000E+00  0.00000000E+00  1.00000000E+00
  0.00000000E+00  0.00000000E+00  1.00000000E+00  0.00000000E+00  0.00000000E+00
  1.00000000E+00  0.00000000E+00  0.00000000E+00
Virial Ratio                               R      1.996287873059553E+00
SCF Energy                                 R     -7.852432405448413E+01
Total Energy                               R     -7.852432405448413E+01
S**2                                       R     -1.065814103640150E-14
S**2 after annihilation                    R      1.421085471520190E-14
RMS Force                                  R      1.006864255192699E-01
RMS Density                                R      3.253812209588368E-09
Job Status                                 I                1
Nuclear derivative order                   I                1
External E-field                           R   N=          35
  0.00000000E+00  0.00000000E+00  0.00000000E+00  0.00000000E+00  0.00000000E+00
  0.00000000E+00  0.00000000E+00  0.00000000E+00  0.00000000E+00  0.00000000E+00
  0.00000000E+00  0.00000000E+00  0.00000000E+00  0.00000000E+00  0.00000000E+00
  0.00000000E+00  0.00000000E+00  0.00000000E+00  0.00000000E+00  0.00000000E+00
  0.00000000E+00  0.00000000E+00  0.00000000E+00  0.00000000E+00  0.00000000E+00
  0.00000000E+00  0.00000000E+00  0.00000000E+00  0.00000000E+00  0.00000000E+00
  0.00000000E+00  0.00000000E+00  0.00000000E+00  0.00000000E+00  0.00000000E+00
IOpCl                                      I                1
IROHF                                      I                0
Alpha Orbital Energies                     R   N=          68
 -1.05126733E+01 -1.05092352E+01 -9.01434246E-01 -6.46956051E-01 -5.57305944E-01
 -5.09319341E-01 -3.87025368E-01 -3.69302673E-01  3.38836854E-02  4.20036197E-02
  4.84206415E-02  5.16912218E-02  7.25794435E-02  8.48813307E-02  9.76783252E-02
  1.54506600E-01  1.61075874E-01  1.77422101E-01  1.92444798E-01  2.40651267E-01
  3.27100753E-01  3.93791037E-01  4.40144612E-01  4.55483681E-01  5.31516718E-01
  5.56567136E-01  5.95843325E-01  6.33517351E-01  6.66520798E-01  7.50421364E-01
  7.86046034E-01  7.95095943E-01  8.10168746E-01  1.03556114E+00  1.05193682E+00
  1.19698309E+00  1.21403693E+00  1.38778603E+00  1.50618940E+00  1.51172494E+00
  1.68049312E+00  1.69264195E+00  1.69330202E+00  1.69351614E+00  1.79276913E+00
  1.85527056E+00  2.04844265E+00  2.11942266E+00  2.20988251E+00  2.25171490E+00
  2.25209494E+00  2.34567842E+00  2.35769840E+00  2.52543916E+00  2.58877008E+00
  2.63656333E+00  2.67575328E+00  2.77851024E+00  2.81542547E+00  2.91769320E+00
  2.99032216E+00  3.34417310E+00  3.63052936E+00  3.80878978E+00  3.94311474E+00
  3.95875040E+00  2.37418918E+01  2.50811784E+01
Beta Orbital Energies                      R   N=          68
 -1.05126733E+01 -1.05092352E+01 -9.01434246E-01 -6.46956051E-01 -5.57305944E-01
 -5.09319341E-01 -3.87025368E-01 -3.69302673E-01  3.38836854E-02  4.20036197E-02
  4.84206415E-02  5.16912218E-02  7.25794435E-02  8.48813307E-02  9.76783252E-02
  1.54506600E-01  1.61075874E-01  1.77422101E-01  1.92444798E-01  2.40651267E-01
  3.27100753E-01  3.93791037E-01  4.40144612E-01  4.55483681E-01  5.31516718E-01
  5.56567136E-01  5.95843325E-01  6.33517351E-01  6.66520798E-01  7.50421364E-01
  7.86046034E-01  7.95095943E-01  8.10168746E-01  1.03556114E+00  1.05193682E+00
  1.19698309E+00  1.21403693E+00  1.38778603E+00  1.50618940E+00  1.51172494E+00
  1.68049312E+00  1.69264195E+00  1.69330202E+00  1.69351614E+00  1.79276913E+00
  1.85527056E+00  2.04844265E+00  2.11942266E+00  2.20988251E+00  2.25171490E+00
  2.25209494E+00  2.34567842E+00  2.35769840E+00  2.52543916E+00  2.58877008E+00
  2.63656333E+00  2.67575328E+00  2.77851024E+00  2.81542547E+00  2.91769320E+00
  2.99032216E+00  3.34417310E+00  3.63052936E+00  3.80878978E+00  3.94311474E+00
  3.95875040E+00  2.37418918E+01  2.50811784E+01
Alpha MO coefficients                      R   N=        4624
  3.98481370E-01  3.27943144E-01  2.03098054E-08 -4.77728289E-04  0.00000000E+00
  9.05540551E-03 -1.55435130E-07  1.57659032E-03  0.00000000E+00 -2.31865447E-03
 -1.33649097E-07  3.20484390E-04  0.00000000E+00 -5.95470803E-04  9.48985781E-08
 -8.97946382E-04  0.00000000E+00 -8.32081616E-04  0.00000000E+00  0.00000000E+00
  1.80829191E-04 -1.46816807E-07  3.98481370E-01  3.27943144E-01 -2.03098054E-08
  4.77728289E-04  0.00000000E+00  9.05540551E-03  1.55435130E-07 -1.57659032E-03
  0.00000000E+00 -2.31865447E-03  1.33649097E-07 -3.20484390E-04  0.00000000E+00
 -5.95470803E-04 -9.48985781E-08  8.97946382E-04  0.00000000E+00 -8.32081616E-04
  0.00000000E+00  0.00000000E+00  1.80829191E-04 -1.46816807E-07  2.06466821E-04
 -2.31074630E-03  1.56353843E-03  1.26735658E-03  5.83590388E-04  0.00000000E+00
  2.06422637E-04 -2.31117433E-03  1.56371176E-03 -1.26750519E-03  5.83708027E-04
  0.00000000E+00  2.06466821E-04 -2.31074630E-03  1.56353843E-03 -1.26735658E-03
 -5.83590388E-04  0.00000000E+00  2.06422637E-04 -2.31117433E-03  1.56371176E-03
  1.26750519E-03 -5.83708027E-04  0.00000000E+00  3.98988022E-01  3.27293808E-01
  1.41214611E-08  8.41950903E-04  0.00000000E+00  1.63473298E-02 -6.77531641E-08
 -1.23460634E-02  0.00000000E+00  6.72257770E-04  9.94590639E-09  1.04211305E-03
  0.00000000E+00 -2.77337293E-04  5.16134391E-09  7.73500457E-06  0.00000000E+00
 -2.65693157E-03  0.00000000E+00  0.00000000E+00 -4.74871090E-03 -3.45840405E-08
 -3.98988022E-01 -3.27293808E-01  1.41214611E-08  8.41950903E-04  0.00000000E+00
 -1.63473298E-02 -6.77531641E-08 -1.23460634E-02  0.00000000E+00 -6.72257770E-04
  9.94590639E-09  1.04211305E-03  0.00000000E+00  2.77337293E-04  5.16134391E-09
  7.73500457E-06  0.00000000E+00  2.65693157E-03  0.00000000E+00  0.00000000E+00
  4.74871090E-03  3.45840405E-08  5.80274105E-04 -2.92632370E-04 -2.31669386E-04
  1.70479314E-04 -2.94567374E-05  0.00000000E+00  5.80266943E-04 -2.92720347E-04
 -2.31635949E-04 -1.70561357E-04 -2.94380728E-05  0.00000000E+00 -5.80274105E-04
  2.92632370E-04  2.31669386E-04  1.70479314E-04 -2.94567374E-05  0.00000000E+00
 -5.80266943E-04  2.92720347E-04  2.31635949E-04 -1.70561357E-04 -2.94380728E-05
  0.00000000E+00 -9.10717126E-02 -1.45499597E-01 -4.47911724E-07 -7.70415063E-02
  0.00000000E+00  3.54447510E-01 -4.96314918E-07 -8.31064945E-02  0.00000000E+00
  1.69903768E-01 -4.29639645E-07 -2.06516587E-02  0.00000000E+00  3.21710518E-04
 -6.81472720E-08  9.21097826E-03  0.00000000E+00 -1.23211129E-02  0.00000000E+00
  0.00000000E+00 -1.21778199E-02 -4.04921248E-07 -9.10717126E-02 -1.45499597E-01
  4.47911724E-07  7.70415063E-02  0.00000000E+00  3.54447510E-01  4.96314918E-07
  8.31064945E-02  0.00000000E+00  1.69903768E-01  4.29639645E-07  2.06516587E-02
  0.00000000E+00  3.21710518E-04  6.81472720E-08 -9.21097826E-03  0.00000000E+00
 -1.23211129E-02  0.00000000E+00  0.00000000E+00 -1.21778199E-02 -4.04921248E-07
  4.58170582E-02  4.88136878E-02 -1.10043183E-03 -5.32348323E-03 -7.19575801E-03
  0.00000000E+00  4.58181166E-02  4.88140811E-02 -1.10066588E-03  5.32311088E-03
 -7.19589362E-03  0.00000000E+00  4.58170582E-02  4.88136878E-02 -1.10043183E-03
  5.32348323E-03  7.19575801E-03  0.00000000E+00  4.58181166E-02  4.88140811E-02
 -1.10066588E-03 -5.32311088E-03  7.19589362E-03  0.00000000E+00 -6.30493141E-02
 -1.02628886E-01 -4.38224619E-06  7.94404925E-02  0.00000000E+00  2.62309803E-01
 -5.35484365E-06  1.22899641E-01  0.00000000E+00  2.20360882E-01 -2.44548376E-06
  5.55132962E-02  0.00000000E+00 -1.16611484E-01 -9.17925591E-08  3.06403842E-02
  0.00000000E+00 -5.21959233E-03  0.00000000E+00  0.00000000E+00  9.20294531E-03
  3.52583529E-10  6.30493141E-02  1.02628886E-01 -4.38224619E-06  7.94404925E-02
  0.00000000E+00 -2.62309803E-01 -5.35484365E-06  1.22899641E-01  0.00000000E+00
 -2.20360882E-01 -2.44548376E-06  5.55132962E-02  0.00000000E+00  1.16611484E-01
 -9.17925591E-08  3.06403842E-02  0.00000000E+00  5.21959233E-03  0.00000000E+00
  0.00000000E+00 -9.20294531E-03 -3.52583529E-10  9.24945543E-02  1.15708206E-01
  1.97704697E-02 -1.24584114E-02 -4.27828009E-03  0.00000000E+00  9.25018632E-02
  1.15716655E-01  1.97713284E-02  1.24591248E-02 -4.27925251E-03  0.00000000E+00
 -9.24945543E-02 -1.15708206E-01 -1.97704697E-02 -1.24584114E-02 -4.27828009E-03
  0.00000000E+00 -9.25018632E-02 -1.15716655E-01 -1.97713284E-02  1.24591248E-02
 -4.27925251E-03  0.00000000E+00 -1.51503126E-06 -2.49133797E-06  1.54305511E-01
  1.46135788E-06  0.00000000E+00  6.33663235E-06  2.13938859E-01  4.09532090E-06
  0.00000000E+00  7.29234659E-06  1.20252215E-01  1.67620377E-06  0.00000000E+00
 -1.66013774E-06  6.06327065E-03  5.64027306E-07  0.00000000E+00 -7.86761491E-08
  0.00000000E+00  0.00000000E+00  7.83122232E-07 -9.52870678E-03  1.51503126E-06
  2.49133797E-06  1.54305511E-01  1.46135788E-06  0.00000000E+00 -6.33663235E-06
  2.13938859E-01  4.09532090E-06  0.00000000E+00 -7.29234659E-06  1.20252215E-01
  1.67620377E-06  0.00000000E+00  1.66013774E-06  6.06327065E-03  5.64027306E-07
  0.00000000E+00  7.86761491E-08  0.00000000E+00  0.00000000E+00 -7.83122232E-07
  9.52870678E-03  9.33287067E-02  1.28232121E-01  2.47564436E-02 -9.46396875E-03
 -1.10928995E-02  0.00000000E+00 -9.33237958E-02 -1.28224871E-01 -2.47541408E-02
 -9.46323819E-03  1.10931457E-02  0.00000000E+00 -9.33287067E-02 -1.28232121E-01
 -2.47564436E-02 -9.46396875E-03 -1.10928995E-02  0.00000000E+00  9.33237958E-02
  1.28224871E-01  2.47541408E-02 -9.46323819E-03  1.10931457E-02  0.00000000E+00
  6.91303225E-03  1.11842350E-02 -3.60442605E-06  2.01748769E-01  0.00000000E+00
 -2.10440659E-02 -4.06975111E-06  2.56971559E-01  0.00000000E+00  6.11038598E-02
 -3.15705291E-06  1.40917287E-01  0.00000000E+00  7.48602544E-03 -1.10031743E-06
  8.42337591E-04  0.00000000E+00  2.66464606E-03  0.00000000E+00  0.00000000E+00
  1.85172546E-02 -8.28029477E-07  6.91303225E-03  1.11842350E-02  3.60442605E-06
 -2.01748769E-01  0.00000000E+00 -2.10440659E-02  4.06975111E-06 -2.56971559E-01
  0.00000000E+00  6.11038598E-02  3.15705291E-06 -1.40917287E-01  0.00000000E+00
  7.48602544E-03  1.10031743E-06 -8.42337591E-04  0.00000000E+00  2.66464606E-03
  0.00000000E+00  0.00000000E+00  1.85172546E-02 -8.28029477E-07  8.15673092E-02
  1.15746316E-01  3.65705845E-02 -1.30256784E-02  2.43284436E-03  0.00000000E+00
  8.15754448E-02  1.15757248E-01  3.65725050E-02  1.30266698E-02  2.43194612E-03
  0.00000000E+00  8.15673092E-02  1.15746316E-01  3.65705845E-02  1.30256784E-02
 -2.43284436E-03  0.00000000E+00  8.15754448E-02  1.15757248E-01  3.65725050E-02
 -1.30266698E-02 -2.43194612E-03  0.00000000E+00  4.90461704E-07  7.88250391E-07
  1.31831992E-01  4.29391430E-06  0.00000000E+00 -1.99984746E-06  1.94468415E-01
  5.82994586E-06  0.00000000E+00  1.33622500E-06  1.83930986E-01  3.89999767E-06
  0.00000000E+00  8.50947961E-07  3.33228856E-02  1.82800013E-07  0.00000000E+00
  4.44226820E-08  0.00000000E+00  0.00000000E+00  9.65333738E-07  4.04070749E-02
  4.90461704E-07  7.88250391E-07 -1.31831992E-01 -4.29391430E-06  0.00000000E+00
 -1.99984746E-06 -1.94468415E-01 -5.82994586E-06  0.00000000E+00  1.33622500E-06
 -1.83930986E-01 -3.89999767E-06  0.00000000E+00  8.50947961E-07 -3.33228856E-02
 -1.82800013E-07  0.00000000E+00  4.44226820E-08  0.00000000E+00  0.00000000E+00
  9.65333738E-07  4.04070749E-02  1.19784266E-01  1.77545687E-01  9.36083773E-02
 -2.76220752E-03 -6.93439619E-03  0.00000000E+00 -1.19779514E-01 -1.77536567E-01
 -9.36031518E-02 -2.76109441E-03  6.93476378E-03  0.00000000E+00  1.19784266E-01
  1.77545687E-01  9.36083773E-02  2.76220752E-03  6.93439619E-03  0.00000000E+00
 -1.19779514E-01 -1.77536567E-01 -9.36031518E-02  2.76109441E-03 -6.93476378E-03
  0.00000000E+00  0.00000000E+00  0.00000000E+00  0.00000000E+00  0.00000000E+00
  1.84240717E-01  0.00000000E+00  0.00000000E+00  0.00000000E+00  2.87317209E-01
  0.00000000E+00  0.00000000E+00  0.00000000E+00  2.22561197E-01  0.00000000E+00
  0.00000000E+00  0.00000000E+00  1.83278208E-02  0.00000000E+00  8.56891809E-09
 -2.57499022E-02  0.00000000E+00  0.00000000E+00  0.00000000E+00  0.00000000E+00
  0.00000000E+00  0.00000000E+00  1.84240717E-01  0.00000000E+00  0.00000000E+00
  0.00000000E+00  2.87317209E-01  0.00000000E+00  0.00000000E+00  0.00000000E+00
  2.22561197E-01  0.00000000E+00  0.00000000E+00  0.00000000E+00  1.83278208E-02
  0.00000000E+00 -8.56891809E-09  2.57499022E-02  0.00000000E+00  0.00000000E+00
  0.00000000E+00  0.00000000E+00  0.00000000E+00  0.00000000E+00  0.00000000E+00
  1.22962370E-02  0.00000000E+00  0.00000000E+00  0.00000000E+00  0.00000000E+00
  0.00000000E+00  1.22965127E-02  0.00000000E+00  0.00000000E+00  0.00000000E+00
  0.00000000E+00  0.00000000E+00  1.22962370E-02  0.00000000E+00  0.00000000E+00
  0.00000000E+00  0.00000000E+00  0.00000000E+00  1.22965127E-02  1.58972326E-02
  2.73421150E-02 -6.33906228E-07 -4.20964691E-02  0.00000000E+00 -7.80819978E-02
  9.65929038E-07 -6.53628134E-02  0.00000000E+00 -2.66886272E-01 -1.55076583E-05
 -1.48134479E-01  0.00000000E+00  1.20734054E+00 -4.54536787E-05  7.61176503E-01
  0.00000000E+00  1.18028410E-02  0.00000000E+00  0.00000000E+00 -6.53614901E-03
  7.04405094E-07  1.58972326E-02  2.73421150E-02  6.33906228E-07  4.20964691E-02
  0.00000000E+00 -7.80819978E-02 -9.65929038E-07  6.53628134E-02  0.00000000E+00
 -2.66886272E-01  1.55076583E-05  1.48134479E-01  0.00000000E+00  1.20734054E+00
  4.54536787E-05 -7.61176503E-01  0.00000000E+00  1.18028410E-02  0.00000000E+00
  0.00000000E+00 -6.53614901E-03  7.04405094E-07 -2.28948822E-02  8.31277977E-02
 -4.11185903E-01  1.54667038E-03  2.35554243E-03  0.00000000E+00 -2.28951423E-02
  8.31302899E-02 -4.11230053E-01 -1.54612109E-03  2.35542987E-03  0.00000000E+00
 -2.28948822E-02  8.31277977E-02 -4.11185903E-01 -1.54667038E-03 -2.35554243E-03
  0.00000000E+00 -2.28951423E-02  8.31302899E-02 -4.11230053E-01  1.54612109E-03
 -2.35542987E-03  0.00000000E+00 -1.80065011E-02 -3.07566996E-02 -4.41801245E-07
  2.03088721E-02  0.00000000E+00  9.85390636E-02 -1.73359283E-06  5.05042425E-02
  0.00000000E+00 -2.78089123E-01  4.04687599E-07  2.64007472E-01  0.00000000E+00
  1.60164918E+01  1.51473984E-05 -4.58366930E+00  0.00000000E+00  3.63750734E-03
  0.00000000E+00  0.00000000E+00  1.62933164E-02 -5.34843401E-07  1.80065011E-02
  3.07566996E-02 -4.41801245E-07  2.03088721E-02  0.00000000E+00 -9.85390636E-02
 -1.73359283E-06  5.05042425E-02  0.00000000E+00  2.78089123E-01  4.04687599E-07
  2.64007472E-01  0.00000000E+00 -1.60164918E+01  1.51473984E-05 -4.58366930E+00
  0.00000000E+00 -3.63750734E-03  0.00000000E+00  0.00000000E+00 -1.62933164E-02
  5.34843401E-07  1.19855003E-02 -4.81777372E-02  1.97976804E-01 -1.60035741E-03
 -9.86242895E-03  0.00000000E+00  1.19866655E-02 -4.81824640E-02  1.98004923E-01
  1.60010339E-03 -9.86217459E-03  0.00000000E+00 -1.19855003E-02  4.81777372E-02
 -1.97976804E-01 -1.60035741E-03 -9.86242895E-03  0.00000000E+00 -1.19866655E-02
  4.81824640E-02 -1.98004923E-01  1.60010339E-03 -9.86217459E-03  0.00000000E+00
  5.24666613E-07  8.85438537E-07 -6.10269259E-02 -7.34759655E-07  0.00000000E+00
 -2.33527765E-06 -9.80473941E-02 -2.36853511E-08  0.00000000E+00  5.09220906E-06
 -1.60805716E-01 -9.70610942E-06  0.00000000E+00 -1.12093366E-04  8.01389711E-01
  4.07296685E-05  0.00000000E+00 -6.65405935E-08  0.00000000E+00  0.00000000E+00
 -2.10923144E-07  2.28323416E-03 -5.24666613E-07 -8.85438537E-07 -6.10269259E-02
 -7.34759655E-07  0.00000000E+00  2.33527765E-06 -9.80473941E-02 -2.36853511E-08
  0.00000000E+00 -5.09220906E-06 -1.60805716E-01 -9.70610942E-06  0.00000000E+00
  1.12093366E-04  8.01389711E-01  4.07296685E-05  0.00000000E+00  6.65405935E-08
  0.00000000E+00  0.00000000E+00  2.10923144E-07 -2.28323416E-03 -1.01675997E-02
  1.04574267E-01 -4.02359474E-01  5.88886096E-03  2.21168007E-03  0.00000000E+00
  1.01677556E-02 -1.04569612E-01  4.02348177E-01  5.88831387E-03 -2.21108613E-03
  0.00000000E+00  1.01675997E-02 -1.04574267E-01  4.02359474E-01  5.88886096E-03
  2.21168007E-03  0.00000000E+00 -1.01677556E-02  1.04569612E-01 -4.02348177E-01
  5.88831387E-03 -2.21108613E-03  0.00000000E+00  0.00000000E+00  0.00000000E+00
  0.00000000E+00  0.00000000E+00  1.10533656E-01  0.00000000E+00  0.00000000E+00
  0.00000000E+00  1.92555875E-01  0.00000000E+00  0.00000000E+00  0.00000000E+00
  2.96844191E-01  0.00000000E+00  0.00000000E+00  0.00000000E+00  1.51678897E+00
  0.00000000E+00  2.91834211E-08  2.89419820E-02  0.00000000E+00  0.00000000E+00
  0.00000000E+00  0.00000000E+00  0.00000000E+00  0.00000000E+00 -1.10533656E-01
  0.00000000E+00  0.00000000E+00  0.00000000E+00 -1.92555875E-01  0.00000000E+00
  0.00000000E+00  0.00000000E+00 -2.96844191E-01  0.00000000E+00  0.00000000E+00
  0.00000000E+00 -1.51678897E+00  0.00000000E+00  2.91834211E-08  2.89419820E-02