Title Card Required                                                     
Force     UM062X                                                      6-311+G(d,p)        
Number of atoms                            I                4
Info1-9                                    I   N=           9
          13          13           0           0           0         100
           5          18        -502
Full Title                                 C   N=           2
Title Card Required     
Route                                      C   N=           4
#p UM062X/6-311+G** force int=superfine         
Charge                                     I                1
Multiplicity                               I                2
Number of electrons                        I               13
Number of alpha electrons                  I                7
Number of beta electrons                   I                6
Number of basis functions                  I               56
Number of independent functions            I               56
Number of point charges in /Mol/           I                0
Number of translation vectors              I                0
Atomic numbers                             I   N=           4
           6           6           1           1
Nuclear charges                            R   N=           4
  6.00000000E+00  6.00000000E+00  1.00000000E+00  1.00000000E+00
Current cartesian coordinates              R   N=          12
  1.22349850E-22 -2.35485424E-22  1.36203306E+00  3.01168160E-22 -7.60120185E-23
 -1.36203360E+00 -1.77849567E-21  8.09341107E-22  3.41666992E+00 -1.50376621E-21
  1.00670387E-21 -3.41666668E+00
Number of symbols in /Mol/                 I                0
Force Field                                I                0
Atom Types                                 C   N=           4
                                                
Int Atom Types                             I   N=           4
           0           0           0           0
MM charges                                 R   N=           4
  0.00000000E+00  0.00000000E+00  0.00000000E+00  0.00000000E+00
Integer atomic weights                     I   N=           4
          12          12           1           1
Real atomic weights                        R   N=           4
  1.20000000E+01  1.20000000E+01  1.00782504E+00  1.00782504E+00
Atom fragment info                         I   N=           4
           0           0           0           0
Atom residue num                           I   N=           4
           0           0           0           0
Nuclear spins                              I   N=           4
           0           0           1           1
Nuclear ZEff                               R   N=           4
 -3.60000000E+00 -3.60000000E+00 -1.00000000E+00 -1.00000000E+00
Nuclear ZNuc                               R   N=           4
  6.00000000E+00  6.00000000E+00  1.00000000E+00  1.00000000E+00
Nuclear QMom                               R   N=           4
  0.00000000E+00  0.00000000E+00  0.00000000E+00  0.00000000E+00
Nuclear GFac                               R   N=           4
  0.00000000E+00  0.00000000E+00  2.79284600E+00  2.79284600E+00
MicOpt                                     I   N=           4
          -1          -1          -1          -1
Number of residues                         I                0
Number of secondary structures             I                0
SymInf integers                            I   N=          26
           1           4           1           1           1          -1
          -1           1          -1           1           1           1
          -1           1           0           0           0           0
           0           0           0           0           0           0
           0           0
RotTr to input orientation                 R   N=          12
  1.41562756E-07 -1.41562582E-07  1.00000000E+00 -1.41562582E-07  1.00000000E+00
  1.41562602E-07 -1.00000000E+00 -1.41562602E-07  1.41562736E-07 -2.69960875E-07
  2.56462831E-06 -2.29466744E-06
Number of contracted shells                I               20
Number of primitive shells                 I               38
Pure/Cartesian d shells                    I                0
Pure/Cartesian f shells                    I                0
Highest angular momentum                   I                2
Largest degree of contraction              I                6
Shell types                                I   N=          20
           0          -1          -1          -1          -1          -2
           0          -1          -1          -1          -1          -2
           0           0           0           1           0           0
           0           1
Number of primitives per shell             I   N=          20
           6           3           1           1           1           1
           6           3           1           1           1           1
           3           1           1           1           3           1
           1           1
Shell to atom map                          I   N=          20
           1           1           1           1           1           1
           2           2           2           2           2           2
           3           3           3           3           4           4
           4           4
Primitive exponents                        R   N=          38
  4.56324000E+03  6.82024000E+02  1.54973000E+02  4.44553000E+01  1.30290000E+01
  1.82773000E+00  2.09642000E+01  4.80331000E+00  1.45933000E+00  4.83456000E-01
  1.45585000E-01  4.38000000E-02  6.26000000E-01  4.56324000E+03  6.82024000E+02
  1.54973000E+02  4.44553000E+01  1.30290000E+01  1.82773000E+00  2.09642000E+01
  4.80331000E+00  1.45933000E+00  4.83456000E-01  1.45585000E-01  4.38000000E-02
  6.26000000E-01  3.38650000E+01  5.09479000E+00  1.15879000E+00  3.25840000E-01
  1.02741000E-01  7.50000000E-01  3.38650000E+01  5.09479000E+00  1.15879000E+00
  3.25840000E-01  1.02741000E-01  7.50000000E-01
Contraction coefficients                   R   N=          38
  1.96665025E-03  1.52306019E-02  7.61269097E-02  2.60801033E-01  6.16462078E-01
  2.21006028E-01  1.14660081E-01  9.19999648E-01 -3.03068213E-03  1.00000000E+00
  1.00000000E+00  1.00000000E+00  1.00000000E+00  1.96665025E-03  1.52306019E-02
  7.61269097E-02  2.60801033E-01  6.16462078E-01  2.21006028E-01  1.14660081E-01
  9.19999648E-01 -3.03068213E-03  1.00000000E+00  1.00000000E+00  1.00000000E+00
  1.00000000E+00  2.54938145E-02  1.90373109E-01  8.52161486E-01  1.00000000E+00
  1.00000000E+00  1.00000000E+00  2.54938145E-02  1.90373109E-01  8.52161486E-01
  1.00000000E+00  1.00000000E+00  1.00000000E+00
P(S=P) Contraction coefficients            R   N=          38
  0.00000000E+00  0.00000000E+00  0.00000000E+00  0.00000000E+00  0.00000000E+00
  0.00000000E+00  4.02486927E-02  2.37593957E-01  8.15853851E-01  1.00000000E+00
  1.00000000E+00  1.00000000E+00  0.00000000E+00  0.00000000E+00  0.00000000E+00
  0.00000000E+00  0.00000000E+00  0.00000000E+00  0.00000000E+00  4.02486927E-02
  2.37593957E-01  8.15853851E-01  1.00000000E+00  1.00000000E+00  1.00000000E+00
  0.00000000E+00  0.00000000E+00  0.00000000E+00  0.00000000E+00  0.00000000E+00
  0.00000000E+00  0.00000000E+00  0.00000000E+00  0.00000000E+00  0.00000000E+00
  0.00000000E+00  0.00000000E+00  0.00000000E+00
Coordinates of each shell                  R   N=          60
  2.11758237E-22 -1.05879118E-22  1.36203306E+00  2.11758237E-22 -1.05879118E-22
  1.36203306E+00  2.11758237E-22 -1.05879118E-22  1.36203306E+00  2.11758237E-22
 -1.05879118E-22  1.36203306E+00  2.11758237E-22 -1.05879118E-22  1.36203306E+00
  2.11758237E-22 -1.05879118E-22  1.36203306E+00  3.17637355E-22 -2.11758237E-22
 -1.36203360E+00  3.17637355E-22 -2.11758237E-22 -1.36203360E+00  3.17637355E-22
 -2.11758237E-22 -1.36203360E+00  3.17637355E-22 -2.11758237E-22 -1.36203360E+00
  3.17637355E-22 -2.11758237E-22 -1.36203360E+00  3.17637355E-22 -2.11758237E-22
 -1.36203360E+00 -1.69406589E-21  8.47032947E-22  3.41666992E+00 -1.69406589E-21
  8.47032947E-22  3.41666992E+00 -1.69406589E-21  8.47032947E-22  3.41666992E+00
 -1.69406589E-21  8.47032947E-22  3.41666992E+00 -1.69406589E-21  8.47032947E-22
 -3.41666668E+00 -1.69406589E-21  8.47032947E-22 -3.41666668E+00 -1.69406589E-21
  8.47032947E-22 -3.41666668E+00 -1.69406589E-21  8.47032947E-22 -3.41666668E+00
Num ILSW                                   I              100
ILSW                                       I   N=         100
           1           0           0           0           2           0
           0           0           0           0        4336          -1
           7           0           0           0           2           0
           0           0           0           0           1           0
           1           0           0           0           0           0
           0           0      100000           0          -1           0
           0           0           0           0           0           0
           0           0           0           1           0           0
           0 -2000000000           1           0           0           0
           0           0           4          52           0           0
           0           0          55           0           0           0
           0           0           0           4           0           1
           0           0           0           0           0           0
           0           0           0           0           0           0
           0           0           0           0           0           0
           0           0           0           0           0           0
           0           0           0           0
Num RLSW                                   I               52
RLSW                                       R   N=          52
  1.00000000E+00  1.00000000E+00  1.00000000E+00  1.00000000E+00  5.40000000E-01
  0.00000000E+00  0.00000000E+00  1.00000000E+00  0.00000000E+00  0.00000000E+00
  0.00000000E+00  0.00000000E+00  1.00000000E+00  0.00000000E+00  0.00000000E+00
  0.00000000E+00  0.00000000E+00  1.00000000E+00  0.00000000E+00  0.00000000E+00
  0.00000000E+00  0.00000000E+00  1.00000000E+00  0.00000000E+00  0.00000000E+00
  0.00000000E+00  0.00000000E+00  1.00000000E+00  0.00000000E+00  0.00000000E+00
  0.00000000E+00  0.00000000E+00  1.00000000E+00  0.00000000E+00  0.00000000E+00
  0.00000000E+00  0.00000000E+00  0.00000000E+00  1.00000000E+00  1.00000000E+00
  0.00000000E+00  1.00000000E+00  0.00000000E+00  0.00000000E+00  0.00000000E+00
  0.00000000E+00  0.00000000E+00  0.00000000E+00  0.00000000E+00  0.00000000E+00
  0.00000000E+00  0.00000000E+00
MxBond                                     I                2
NBond                                      I   N=           4
           2           2           1           1
IBond                                      I   N=           8
           2           3           1           4           1           0
           2           0
RBond                                      R   N=           8
  1.00000000E+00  1.00000000E+00  1.00000000E+00  1.00000000E+00  1.00000000E+00
  0.00000000E+00  1.00000000E+00  0.00000000E+00
Virial Ratio                               R      2.011063088814444E+00
SCF Energy                                 R     -7.685269877014788E+01
Total Energy                               R     -7.685269877014788E+01
S**2                                       R      7.522844296855071E-01
S**2 after annihilation                    R      7.500036314431108E-01
RMS Force                                  R      8.804437109878110E-02
RMS Density                                R      1.486954917794329E-09
Job Status                                 I                1
Nuclear derivative order                   I                1
External E-field                           R   N=          35
  0.00000000E+00  0.00000000E+00  0.00000000E+00  0.00000000E+00  0.00000000E+00
  0.00000000E+00  0.00000000E+00  0.00000000E+00  0.00000000E+00  0.00000000E+00
  0.00000000E+00  0.00000000E+00  0.00000000E+00  0.00000000E+00  0.00000000E+00
  0.00000000E+00  0.00000000E+00  0.00000000E+00  0.00000000E+00  0.00000000E+00
  0.00000000E+00  0.00000000E+00  0.00000000E+00  0.00000000E+00  0.00000000E+00
  0.00000000E+00  0.00000000E+00  0.00000000E+00  0.00000000E+00  0.00000000E+00
  0.00000000E+00  0.00000000E+00  0.00000000E+00  0.00000000E+00  0.00000000E+00
IOpCl                                      I                1
IROHF                                      I                0
Alpha Orbital Energies                     R   N=          56
 -1.09730441E+01 -1.09722752E+01 -1.16201533E+00 -9.82431320E-01 -8.76733430E-01
 -6.80364506E-01 -6.56719173E-01 -3.20519206E-01 -3.00330756E-01 -1.91873249E-01
 -1.43590620E-01 -1.11445360E-01 -9.69739915E-02 -9.45059590E-02 -9.36604526E-02
 -5.12622580E-02 -4.75871664E-02  2.06001652E-02  4.34027773E-02  1.14959258E-01
  2.04615374E-01  3.08885920E-01  3.21664488E-01  3.63863692E-01  3.69871792E-01
  4.57921086E-01  4.63237741E-01  4.97469764E-01  5.51230940E-01  7.12129934E-01
  7.26556669E-01  8.01094228E-01  8.97267002E-01  8.98869184E-01  1.12552008E+00
  1.13204822E+00  1.16340497E+00  1.16465805E+00  1.37436781E+00  1.45828324E+00
  1.46897632E+00  1.63901513E+00  1.98854446E+00  2.00732312E+00  2.23223883E+00
  2.38986441E+00  2.41765739E+00  2.43766349E+00  2.47620706E+00  2.52877267E+00
  2.56028120E+00  2.89942013E+00  2.92857958E+00  3.32763297E+00  2.32032447E+01
  2.39179077E+01
Beta Orbital Energies                      R   N=          56
 -1.09706673E+01 -1.09700742E+01 -1.11815535E+00 -9.65857322E-01 -8.70847227E-01
 -6.33987174E-01 -4.34366862E-01 -2.83440488E-01 -2.47280798E-01 -1.74508103E-01
 -1.54976504E-01 -1.14087095E-01 -1.00169971E-01 -9.78504455E-02 -9.33467927E-02
 -4.82697484E-02 -4.38472932E-02  1.50795684E-02  4.49734781E-02  1.20575645E-01
  2.13705394E-01  2.98395806E-01  3.21047924E-01  3.51898791E-01  3.68274905E-01
  4.37828061E-01  4.71627158E-01  5.09581791E-01  5.64117833E-01  7.45398839E-01
  7.52539114E-01  7.72462789E-01  9.33143704E-01  9.55323732E-01  1.14009105E+00
  1.15061727E+00  1.19205522E+00  1.21335897E+00  1.39142839E+00  1.47714823E+00
  1.48536963E+00  1.66116285E+00  2.01319547E+00  2.02118072E+00  2.25728420E+00
  2.42300914E+00  2.42973916E+00  2.45749539E+00  2.51604432E+00  2.56800066E+00
  2.57541320E+00  2.93194682E+00  3.01899721E+00  3.34061120E+00  2.32135427E+01
  2.39357452E+01
Alpha MO coefficients                      R   N=        3136
  3.99027024E-01  3.28202817E-01  0.00000000E+00  0.00000000E+00 -6.64047333E-04
  7.45546395E-03  0.00000000E+00  0.00000000E+00  2.03307652E-03 -3.24172260E-03
  0.00000000E+00  0.00000000E+00 -4.88097132E-04 -4.11401010E-04  0.00000000E+00
  0.00000000E+00 -1.53613593E-03  7.70001398E-04  0.00000000E+00  0.00000000E+00
  3.49806299E-05  0.00000000E+00  3.98951252E-01  3.28140574E-01  0.00000000E+00
  0.00000000E+00  6.64063582E-04  7.45380391E-03  0.00000000E+00  0.00000000E+00
 -2.03316982E-03 -3.24001780E-03  0.00000000E+00  0.00000000E+00  4.89856240E-04
 -4.10597882E-04  0.00000000E+00  0.00000000E+00  1.53636426E-03  7.69409595E-04
  0.00000000E+00  0.00000000E+00  3.49726710E-05  0.00000000E+00  1.48473148E-04
 -2.70980463E-03  2.90676343E-03  0.00000000E+00  0.00000000E+00  1.60333771E-03
  1.48467138E-04 -2.70884711E-03  2.90702905E-03  0.00000000E+00  0.00000000E+00
 -1.60292565E-03 -3.99073568E-01 -3.27805939E-01  0.00000000E+00  0.00000000E+00
 -8.12144447E-05 -8.84894887E-03  0.00000000E+00  0.00000000E+00  3.78422277E-04
  9.01201434E-03  0.00000000E+00  0.00000000E+00 -9.33169816E-03  4.68813849E-03
  0.00000000E+00  0.00000000E+00 -1.31526453E-03 -3.17247825E-03  0.00000000E+00
  0.00000000E+00 -4.18793611E-05  0.00000000E+00  3.99149316E-01  3.27868241E-01
  0.00000000E+00  0.00000000E+00 -8.10885681E-05  8.85038473E-03  0.00000000E+00
  0.00000000E+00  3.78012715E-04 -9.01260775E-03  0.00000000E+00  0.00000000E+00
 -9.33161300E-03 -4.68821899E-03  0.00000000E+00  0.00000000E+00 -1.31497448E-03
  3.17263530E-03  0.00000000E+00  0.00000000E+00  4.18859954E-05  0.00000000E+00
 -8.56541975E-06  5.21900300E-03  1.33105764E-03  0.00000000E+00  0.00000000E+00
 -2.24998595E-03  8.58568043E-06 -5.21955038E-03 -1.33050959E-03  0.00000000E+00
  0.00000000E+00 -2.25030432E-03 -8.84102112E-02 -1.43828558E-01  0.00000000E+00
  0.00000000E+00 -5.31420604E-02  4.02743906E-01  0.00000000E+00  0.00000000E+00
 -7.46087314E-02  2.21290773E-01  0.00000000E+00  0.00000000E+00 -1.45346869E-02
 -3.70696196E-03  0.00000000E+00  0.00000000E+00  2.03674661E-02  2.12509844E-02
  0.00000000E+00  0.00000000E+00  5.07770255E-03  0.00000000E+00 -8.84103177E-02
 -1.43828733E-01  0.00000000E+00  0.00000000E+00  5.31418732E-02  4.02744363E-01
  0.00000000E+00  0.00000000E+00  7.46085276E-02  2.21291126E-01  0.00000000E+00
  0.00000000E+00  1.45347180E-02 -3.70689781E-03  0.00000000E+00  0.00000000E+00
 -2.03674500E-02  2.12510274E-02  0.00000000E+00  0.00000000E+00  5.07770869E-03
  0.00000000E+00  4.64643701E-02  5.19286567E-02 -1.96220918E-02  0.00000000E+00
  0.00000000E+00 -6.29862114E-03  4.64646504E-02  5.19289105E-02 -1.96221271E-02
  0.00000000E+00  0.00000000E+00  6.29865133E-03 -6.88546944E-02 -1.13600538E-01
  0.00000000E+00  0.00000000E+00  9.26576753E-02  3.24953525E-01  0.00000000E+00
  0.00000000E+00  1.25103871E-01  2.65725065E-01  0.00000000E+00  0.00000000E+00
  3.15115789E-02 -2.37318697E-01  0.00000000E+00  0.00000000E+00  7.22236550E-02
  1.18318992E-02  0.00000000E+00  0.00000000E+00  3.81777435E-03  0.00000000E+00
  6.88546058E-02  1.13600384E-01  0.00000000E+00  0.00000000E+00  9.26588503E-02
 -3.24952992E-01  0.00000000E+00  0.00000000E+00  1.25105398E-01 -2.65724678E-01
  0.00000000E+00  0.00000000E+00  3.15119874E-02  2.37318675E-01  0.00000000E+00
  0.00000000E+00  7.22235788E-02 -1.18318481E-02  0.00000000E+00  0.00000000E+00
 -3.81776597E-03  0.00000000E+00  1.21448153E-01  1.54798119E-01 -5.55594692E-03
  0.00000000E+00  0.00000000E+00 -1.99846968E-02 -1.21448990E-01 -1.54798991E-01
  5.55587188E-03  0.00000000E+00  0.00000000E+00 -1.99848251E-02 -5.72695013E-03
 -9.03185977E-03  0.00000000E+00  0.00000000E+00  1.87152065E-01  2.05334097E-02
  0.00000000E+00  0.00000000E+00  2.63472833E-01  6.30566040E-02  0.00000000E+00
  0.00000000E+00  1.12035519E-01  7.77782354E-03  0.00000000E+00  0.00000000E+00
  5.02512217E-03 -5.77998367E-03  0.00000000E+00  0.00000000E+00 -3.04542869E-05
  0.00000000E+00 -5.72657943E-03 -9.03123675E-03  0.00000000E+00  0.00000000E+00
 -1.87151656E-01  2.05315339E-02  0.00000000E+00  0.00000000E+00 -2.63472076E-01
  6.30548078E-02  0.00000000E+00  0.00000000E+00 -1.12035121E-01  7.77995315E-03
  0.00000000E+00  0.00000000E+00 -5.02445267E-03 -5.78001199E-03  0.00000000E+00
  0.00000000E+00 -3.04772800E-05  0.00000000E+00  1.29136356E-01  1.77047076E-01
 -2.32374661E-04  0.00000000E+00  0.00000000E+00 -2.35027233E-02  1.29135888E-01
  1.77046216E-01 -2.32342181E-04  0.00000000E+00  0.00000000E+00  2.35026298E-02
  0.00000000E+00  0.00000000E+00  1.96741890E-01  0.00000000E+00  0.00000000E+00
  0.00000000E+00  3.24738687E-01  0.00000000E+00  0.00000000E+00  0.00000000E+00
  2.24439573E-01  0.00000000E+00  0.00000000E+00  0.00000000E+00 -5.50899522E-03
  0.00000000E+00  0.00000000E+00  0.00000000E+00 -2.98052385E-02  0.00000000E+00
  0.00000000E+00  0.00000000E+00  0.00000000E+00  0.00000000E+00  1.96741911E-01
  0.00000000E+00  0.00000000E+00  0.00000000E+00  3.24738746E-01  0.00000000E+00
  0.00000000E+00  0.00000000E+00  2.24439579E-01  0.00000000E+00  0.00000000E+00
  0.00000000E+00 -5.50900658E-03  0.00000000E+00  0.00000000E+00  0.00000000E+00
  2.98052311E-02  0.00000000E+00  0.00000000E+00  0.00000000E+00  0.00000000E+00
  0.00000000E+00  0.00000000E+00  1.33226646E-02  0.00000000E+00  0.00000000E+00
  0.00000000E+00  0.00000000E+00  0.00000000E+00  1.33227075E-02  0.00000000E+00
  0.00000000E+00  0.00000000E+00  0.00000000E+00  0.00000000E+00  1.95730310E-01
  0.00000000E+00  0.00000000E+00  0.00000000E+00  3.23673439E-01  0.00000000E+00
  0.00000000E+00  0.00000000E+00  2.23855948E-01  0.00000000E+00  0.00000000E+00
  0.00000000E+00 -1.67012723E-03  0.00000000E+00  0.00000000E+00  0.00000000E+00
 -2.91750262E-02  0.00000000E+00  0.00000000E+00  0.00000000E+00  0.00000000E+00
  0.00000000E+00  1.95730327E-01  0.00000000E+00  0.00000000E+00  0.00000000E+00
  3.23673484E-01  0.00000000E+00  0.00000000E+00  0.00000000E+00  2.23855949E-01
  0.00000000E+00  0.00000000E+00  0.00000000E+00 -1.67013938E-03  0.00000000E+00
  0.00000000E+00  0.00000000E+00  2.91750232E-02  0.00000000E+00  0.00000000E+00
  0.00000000E+00  0.00000000E+00  0.00000000E+00  0.00000000E+00  1.46996758E-02
  0.00000000E+00  0.00000000E+00  0.00000000E+00  0.00000000E+00  0.00000000E+00
  1.46997221E-02  0.00000000E+00  0.00000000E+00  0.00000000E+00  2.16940094E-01
  0.00000000E+00  0.00000000E+00  0.00000000E+00  3.49506532E-01  0.00000000E+00
  0.00000000E+00  0.00000000E+00  4.34392078E-01  0.00000000E+00  0.00000000E+00
  0.00000000E+00  1.13091328E-01  0.00000000E+00  0.00000000E+00  0.00000000E+00
  2.86410806E-02  0.00000000E+00  0.00000000E+00  0.00000000E+00  0.00000000E+00
  0.00000000E+00 -2.16940067E-01  0.00000000E+00  0.00000000E+00  0.00000000E+00
 -3.49506514E-01  0.00000000E+00  0.00000000E+00  0.00000000E+00 -4.34392016E-01
  0.00000000E+00  0.00000000E+00  0.00000000E+00 -1.13091288E-01  0.00000000E+00
  0.00000000E+00  0.00000000E+00  2.86410977E-02  0.00000000E+00  0.00000000E+00
  0.00000000E+00  0.00000000E+00  0.00000000E+00  0.00000000E+00  2.46805847E-02
  0.00000000E+00  0.00000000E+00  0.00000000E+00  0.00000000E+00  0.00000000E+00
 -2.46806017E-02  0.00000000E+00  0.00000000E+00  0.00000000E+00  0.00000000E+00
  0.00000000E+00  2.13334518E-01  0.00000000E+00  0.00000000E+00  0.00000000E+00
  3.39861178E-01  0.00000000E+00  0.00000000E+00  0.00000000E+00  4.43448440E-01
  0.00000000E+00  0.00000000E+00  0.00000000E+00  1.44339020E-01  0.00000000E+00
  0.00000000E+00  0.00000000E+00  3.02086486E-02  0.00000000E+00  0.00000000E+00
  0.00000000E+00  0.00000000E+00  0.00000000E+00 -2.13334497E-01  0.00000000E+00
  0.00000000E+00  0.00000000E+00 -3.39861162E-01  0.00000000E+00  0.00000000E+00
  0.00000000E+00 -4.43448390E-01  0.00000000E+00  0.00000000E+00  0.00000000E+00
 -1.44338973E-01  0.00000000E+00  0.00000000E+00  0.00000000E+00  3.02086605E-02
  0.00000000E+00  0.00000000E+00  0.00000000E+00  0.00000000E+00  0.00000000E+00
  0.00000000E+00  2.62270422E-02  0.00000000E+00  0.00000000E+00  0.00000000E+00
  0.00000000E+00  0.00000000E+00 -2.62270603E-02  0.00000000E+00  6.38398340E-02
  1.09583936E-01  0.00000000E+00  0.00000000E+00  4.08597609E-02 -3.41356124E-01
  0.00000000E+00  0.00000000E+00  5.41690712E-02 -1.02259046E+00  0.00000000E+00
  0.00000000E+00  1.25237392E-01 -3.99169867E+00  0.00000000E+00  0.00000000E+00
  1.32035952E+00  5.17725355E-02  0.00000000E+00  0.00000000E+00 -5.77749025E-03
  0.00000000E+00 -6.38396353E-02 -1.09583605E-01  0.00000000E+00  0.00000000E+00
  4.08608065E-02  3.41355217E-01  0.00000000E+00  0.00000000E+00  5.41706261E-02
  1.02258722E+00  0.00000000E+00  0.00000000E+00  1.25239357E-01  3.99170011E+00
  0.00000000E+00  0.00000000E+00  1.32035599E+00 -5.17723129E-02  0.00000000E+00
  0.00000000E+00  5.77747226E-03  0.00000000E+00  1.02576549E-01  2.96828365E-01
  4.74586874E-01  0.00000000E+00  0.00000000E+00  1.57074148E-02 -1.02575899E-01
 -2.96826281E-01 -4.74583461E-01  0.00000000E+00  0.00000000E+00  1.57072283E-02
  2.42090382E-02  4.23025989E-02  0.00000000E+00  0.00000000E+00 -3.33921832E-02
 -1.55907584E-01  0.00000000E+00  0.00000000E+00 -6.37460040E-02 -3.19828836E-01
  0.00000000E+00  0.00000000E+00 -6.50507836E-02  9.42650693E-01  0.00000000E+00
  0.00000000E+00  5.36948558E-01 -1.94459280E-02  0.00000000E+00  0.00000000E+00
  8.05071248E-04  0.00000000E+00  2.42092670E-02  4.23029995E-02  0.00000000E+00
  0.00000000E+00  3.33920467E-02 -1.55908905E-01  0.00000000E+00  0.00000000E+00
  6.37459299E-02 -3.19833301E-01  0.00000000E+00  0.00000000E+00  6.50490876E-02
  9.42634730E-01  0.00000000E+00  0.00000000E+00 -5.36955005E-01 -1.94458075E-02
  0.00000000E+00  0.00000000E+00  8.05052654E-04  0.00000000E+00 -2.12823400E-02
  4.58162511E-02 -2.57827052E-01  0.00000000E+00  0.00000000E+00  9.33700006E-03
 -2.12821018E-02  4.58172339E-02 -2.57826454E-01  0.00000000E+00  0.00000000E+00
 -9.33700748E-03 -1.35964867E-03 -1.62795432E-03  0.00000000E+00  0.00000000E+00
  9.70109920E-02 -2.99825175E-02  0.00000000E+00  0.00000000E+00  1.46722493E-01
  2.39930808E-01  0.00000000E+00  0.00000000E+00  2.70466593E-01  3.00755216E-01
  0.00000000E+00  0.00000000E+00 -7.66000766E-01 -4.58596510E-02  0.00000000E+00
  0.00000000E+00  3.49350581E-03  0.00000000E+00 -1.35990967E-03 -1.62840975E-03
  0.00000000E+00  0.00000000E+00 -9.70109134E-02 -2.99810212E-02  0.00000000E+00
  0.00000000E+00 -1.46722435E-01  2.39936504E-01  0.00000000E+00  0.00000000E+00
 -2.70465400E-01  3.00812550E-01  0.00000000E+00  0.00000000E+00  7.66024657E-01
 -4.58597371E-02  0.00000000E+00  0.00000000E+00  3.49352278E-03  0.00000000E+00
 -5.79675149E-02 -2.03224295E-01 -6.43927599E-01  0.00000000E+00  0.00000000E+00
 -2.30445824E-02 -5.79673681E-02 -2.03224768E-01 -6.43926698E-01  0.00000000E+00
  0.00000000E+00  2.30447396E-02  0.00000000E+00  0.00000000E+00 -7.09551531E-02
  0.00000000E+00  0.00000000E+00  0.00000000E+00 -8.38719842E-02  0.00000000E+00
  0.00000000E+00  0.00000000E+00 -2.12245862E-01  0.00000000E+00  0.00000000E+00
  0.00000000E+00  6.24171701E-01  0.00000000E+00  0.00000000E+00  0.00000000E+00
  1.64479574E-02  0.00000000E+00  0.00000000E+00  0.00000000E+00  0.00000000E+00
  0.00000000E+00 -7.09550554E-02  0.00000000E+00  0.00000000E+00  0.00000000E+00
 -8.38718451E-02  0.00000000E+00  0.00000000E+00  0.00000000E+00 -2.12245608E-01
  0.00000000E+00  0.00000000E+00  0.00000000E+00  6.24170135E-01  0.00000000E+00
  0.00000000E+00  0.00000000E+00 -1.64479493E-02  0.00000000E+00  0.00000000E+00
  0.00000000E+00  0.00000000E+00  0.00000000E+00  0.00000000E+00  7.09458329E-03
  0.00000000E+00  0.00000000E+00  0.00000000E+00  0.00000000E+00  0.00000000E+00
  7.09453743E-03  0.00000000E+00  0.00000000E+00  0.00000000E+00  0.00000000E+00
  0.00000000E+00 -7.05349075E-02  0.00000000E+00  0.00000000E+00  0.00000000E+00
 -9.11085544E-02  0.00000000E+00  0.00000000E+00  0.00000000E+00 -2.08914043E-01
  0.00000000E+00  0.00000000E+00  0.00000000E+00  6.22305470E-01  0.00000000E+00
  0.00000000E+00  0.00000000E+00  1.62575208E-02  0.00000000E+00  0.00000000E+00
  0.00000000E+00  0.00000000E+00  0.00000000E+00 -7.05348036E-02  0.00000000E+00
  0.00000000E+00  0.00000000E+00 -9.11084080E-02  0.00000000E+00  0.00000000E+00
  0.00000000E+00 -2.08913749E-01  0.00000000E+00  0.00000000E+00  0.00000000E+00
  6.22303814E-01  0.00000000E+00  0.00000000E+00  0.00000000E+00 -1.62575147E-02
  0.00000000E+00  0.00000000E+00  0.00000000E+00  0.00000000E+00  0.00000000E+00
  0.00000000E+00  6.53470179E-03  0.00000000E+00  0.00000000E+00  0.00000000E+00
  0.00000000E+00  0.00000000E+00  6.53465732E-03  0.00000000E+00  2.06248456E-02
  3.49264865E-02  0.00000000E+00  0.00000000E+00  7.61127881E-02 -9.08517007E-02
  0.00000000E+00  0.00000000E+00  1.22510554E-01 -5.06711737E-01  0.00000000E+00
  0.00000000E+00  7.42138997E-02  2.77037332E+00  0.00000000E+00  0.00000000E+00
 -1.75298667E+00  4.77513741E-02  0.00000000E+00  0.00000000E+00 -3.73412172E-03
  0.00000000E+00 -2.06248364E-02 -3.49264690E-02  0.00000000E+00  0.00000000E+00
  7.61122544E-02  9.08514123E-02  0.00000000E+00  0.00000000E+00  1.22509731E-01
  5.06713991E-01  0.00000000E+00  0.00000000E+00  7.42116898E-02 -2.77037381E+00
  0.00000000E+00  0.00000000E+00 -1.75297760E+00 -4.77516385E-02  0.00000000E+00
  0.00000000E+00  3.73414405E-03  0.00000000E+00  8.43692058E-02  1.78547159E-01
  7.59436364E-01  0.00000000E+00  0.00000000E+00 -6.73951139E-03 -8.43693847E-02
 -1.78548285E-01 -7.59439106E-01  0.00000000E+00  0.00000000E+00 -6.73930794E-03
  0.00000000E+00  0.00000000E+00 -8.22443664E-02  0.00000000E+00  0.00000000E+00
  0.00000000E+00 -1.06665662E-01  0.00000000E+00  0.00000000E+00  0.00000000E+00
 -3.07362255E-01  0.00000000E+00  0.00000000E+00  0.00000000E+00  2.02008731E+00
  0.00000000E+00  0.00000000E+00  0.00000000E+00  1.10594878E-03  0.00000000E+00
  0.00000000E+00  0.00000000E+00  0.00000000E+00  0.00000000E+00  8.22444098E-02
  0.00000000E+00  0.00000000E+00  0.00000000E+00  1.06665728E-01  0.00000000E+00
  0.00000000E+00  0.00000000E+00  3.07362419E-01  0.00000000E+00  0.00000000E+00
  0.00000000E+00 -2.02008782E+00  0.00000000E+00  0.00000000E+00  0.00000000E+00
  1.10593554E-03  0.00000000E+00  0.00000000E+00  0.00000000E+00  0.00000000E+00
  0.00000000E+00  0.00000000E+00  1.02054472E-02  0.00000000E+00  0.00000000E+00
  0.00000000E+00  0.00000000E+00  0.00000000E+00 -1.02054024E-02  0.00000000E+00
  0.00000000E+00  0.00000000E+00  0.00000000E+00  0.00000000E+00 -8.55283751E-02
  0.00000000E+00  0.00000000E+00  0.00000000E+00 -1.16808129E-01  0.00000000E+00
  0.00000000E+00  0.00000000E+00 -3.11757172E-01  0.00000000E+00  0.00000000E+00
  0.00000000E+00  2.01444782E+00  0.00000000E+00  0.00000000E+00  0.00000000E+00
 -9.35245250E-04  0.00000000E+00  0.00000000E+00  0.00000000E+00  0.00000000E+00
  0.00000000E+00  8.55284227E-02  0.00000000E+00  0.00000000E+00  0.00000000E+00
  1.16808212E-01  0.00000000E+00  0.00000000E+00  0.00000000E+00  3.11757329E-01
  0.00000000E+00  0.00000000E+00  0.00000000E+00 -2.01444835E+00  0.00000000E+00
  0.00000000E+00  0.00000000E+00 -9.35256071E-04  0.00000000E+00  0.00000000E+00
  0.00000000E+00  0.00000000E+00  0.00000000E+00  0.00000000E+00  8.66751683E-03