 Entering Gaussian System, Link 0=g16
 Initial command:
 /home/szhao/Apps/g16/l1.exe "/home/szhao/tmp/Gau-47595.inp" -scrdir="/home/szhao/tmp/"
 Default is to use a total of  16 processors:
                               16 via shared-memory
                                1 via Linda
 Entering Link 1 = /home/szhao/Apps/g16/l1.exe PID=     47596.
  
 Copyright (c) 1988,1990,1992,1993,1995,1998,2003,2009,2016,
            Gaussian, Inc.  All Rights Reserved.
  
 This is part of the Gaussian(R) 16 program.  It is based on
 the Gaussian(R) 09 system (copyright 2009, Gaussian, Inc.),
 the Gaussian(R) 03 system (copyright 2003, Gaussian, Inc.),
 the Gaussian(R) 98 system (copyright 1998, Gaussian, Inc.),
 the Gaussian(R) 94 system (copyright 1995, Gaussian, Inc.),
 the Gaussian 92(TM) system (copyright 1992, Gaussian, Inc.),
 the Gaussian 90(TM) system (copyright 1990, Gaussian, Inc.),
 the Gaussian 88(TM) system (copyright 1988, Gaussian, Inc.),
 the Gaussian 86(TM) system (copyright 1986, Carnegie Mellon
 University), and the Gaussian 82(TM) system (copyright 1983,
 Carnegie Mellon University). Gaussian is a federally registered
 trademark of Gaussian, Inc.
  
 This software contains proprietary and confidential information,
 including trade secrets, belonging to Gaussian, Inc.
  
 This software is provided under written license and may be
 used, copied, transmitted, or stored only in accord with that
 written license.
  
 The following legend is applicable only to US Government
 contracts under FAR:
  
                    RESTRICTED RIGHTS LEGEND
  
 Use, reproduction and disclosure by the US Government is
 subject to restrictions as set forth in subparagraphs (a)
 and (c) of the Commercial Computer Software - Restricted
 Rights clause in FAR 52.227-19.
  
 Gaussian, Inc.
 340 Quinnipiac St., Bldg. 40, Wallingford CT 06492
  
  
 ---------------------------------------------------------------
 Warning -- This program may not be used in any manner that
 competes with the business of Gaussian, Inc. or will provide
 assistance to any competitor of Gaussian, Inc.  The licensee
 of this program is prohibited from giving any competitor of
 Gaussian, Inc. access to this program.  By using this program,
 the user acknowledges that Gaussian, Inc. is engaged in the
 business of creating and licensing software in the field of
 computational chemistry and represents and warrants to the
 licensee that it is not a competitor of Gaussian, Inc. and that
 it will not use this program in any manner prohibited above.
 ---------------------------------------------------------------
  

 Cite this work as:
 Gaussian 16, Revision A.03,
 M. J. Frisch, G. W. Trucks, H. B. Schlegel, G. E. Scuseria, 
 M. A. Robb, J. R. Cheeseman, G. Scalmani, V. Barone, 
 G. A. Petersson, H. Nakatsuji, X. Li, M. Caricato, A. V. Marenich, 
 J. Bloino, B. G. Janesko, R. Gomperts, B. Mennucci, H. P. Hratchian, 
 J. V. Ortiz, A. F. Izmaylov, J. L. Sonnenberg, D. Williams-Young, 
 F. Ding, F. Lipparini, F. Egidi, J. Goings, B. Peng, A. Petrone, 
 T. Henderson, D. Ranasinghe, V. G. Zakrzewski, J. Gao, N. Rega, 
 G. Zheng, W. Liang, M. Hada, M. Ehara, K. Toyota, R. Fukuda, 
 J. Hasegawa, M. Ishida, T. Nakajima, Y. Honda, O. Kitao, H. Nakai, 
 T. Vreven, K. Throssell, J. A. Montgomery, Jr., J. E. Peralta, 
 F. Ogliaro, M. J. Bearpark, J. J. Heyd, E. N. Brothers, K. N. Kudin, 
 V. N. Staroverov, T. A. Keith, R. Kobayashi, J. Normand, 
 K. Raghavachari, A. P. Rendell, J. C. Burant, S. S. Iyengar, 
 J. Tomasi, M. Cossi, J. M. Millam, M. Klene, C. Adamo, R. Cammi, 
 J. W. Ochterski, R. L. Martin, K. Morokuma, O. Farkas, 
 J. B. Foresman, and D. J. Fox, Gaussian, Inc., Wallingford CT, 2016.
 
 ******************************************
 Gaussian 16:  ES64L-G16RevA.03 25-Dec-2016
                21-Apr-2025 
 ******************************************
 %chk=opt.chk
 %mem=4GB
 %nprocshared=8
 Will use up to    8 processors via shared memory.
 --------------------------------------------
 #p opt UM062X/6-311+G** nosymm int=superfine
 --------------------------------------------
 1/18=20,19=15,26=5,38=1/1,3;
 2/9=110,12=2,15=1,17=6,18=5,40=1/2;
 3/5=4,6=6,7=111,11=2,25=1,30=1,71=1,74=-55,75=-7,116=2/1,2,3;
 4//1;
 5/5=2,38=5/2;
 6/7=2,8=2,9=2,10=2,28=1/1;
 7/30=1/1,2,3,16;
 1/18=20,19=15,26=5/3(2);
 2/9=110,15=1/2;
 99//99;
 2/9=110,15=1/2;
 3/5=4,6=6,7=111,11=2,25=1,30=1,71=1,74=-55,75=-7,116=2/1,2,3;
 4/5=5,16=3,69=1/1;
 5/5=2,38=5/2;
 7/30=1/1,2,3,16;
 1/18=20,19=15,26=5/3(-5);
 2/9=110,15=1/2;
 6/7=2,8=2,9=2,10=2,19=2,28=1/1;
 99/9=1/99;
 Leave Link    1 at Mon Apr 21 19:25:53 2025, MaxMem=   536870912 cpu:               0.7 elap:               0.1
 (Enter /home/szhao/Apps/g16/l101.exe)
 -------------------
 Title Card Required
 -------------------
 Symbolic Z-matrix:
 Charge =  1 Multiplicity = 2
 C                    -1   -1.69443   0.        0. 
 P                    -1    1.69443   0.        0. 
 H                    0    -2.77918   0.        0. 
 
 Add virtual bond connecting atoms P2         and C1         Dist= 6.40D+00.
 ITRead=  2  2  0
 MicOpt= -2 -2 -1
 NAtoms=      3 NQM=        1 NQMF=       2 NMMI=      0 NMMIF=      0
                NMic=       0 NMicF=      0.
                    Isotopes and Nuclear Properties:
 (Nuclear quadrupole moments (NQMom) in fm**2, nuclear magnetic moments (NMagM)
  in nuclear magnetons)

  Atom         1           2           3
 IAtWgt=          12          31           1
 AtmWgt=  12.0000000  30.9737634   1.0078250
 NucSpn=           0           1           1
 AtZEff=  -0.0000000  -0.0000000  -0.0000000
 NQMom=    0.0000000   0.0000000   0.0000000
 NMagM=    0.0000000   1.1316000   2.7928460
 AtZNuc=   6.0000000  15.0000000   1.0000000
 Leave Link  101 at Mon Apr 21 19:25:54 2025, MaxMem=   536870912 cpu:               3.2 elap:               0.4
 (Enter /home/szhao/Apps/g16/l103.exe)

 GradGradGradGradGradGradGradGradGradGradGradGradGradGradGradGradGradGrad
 Berny optimization.
 Initialization pass.
                           ----------------------------
                           !    Initial Parameters    !
                           ! (Angstroms and Degrees)  !
 --------------------------                            --------------------------
 ! Name  Definition              Value          Derivative Info.                !
 --------------------------------------------------------------------------------
 ! X1    R(1,-1)                -1.6944         Frozen                          !
 ! Y1    R(1,-2)                 0.0            Frozen                          !
 ! Z1    R(1,-3)                 0.0            Frozen                          !
 ! X2    R(2,-1)                 1.6944         Frozen                          !
 ! Y2    R(2,-2)                 0.0            Frozen                          !
 ! Z2    R(2,-3)                 0.0            Frozen                          !
 ! R1    R(1,3)                  1.0848         estimate D2E/DX2                !
 ! A1    L(2,1,3,-2,-1)        180.0            estimate D2E/DX2                !
 ! A2    L(2,1,3,-3,-2)        180.0            estimate D2E/DX2                !
 --------------------------------------------------------------------------------
 Trust Radius=3.00D-01 FncErr=1.00D-07 GrdErr=1.00D-07 EigMax=2.50D+02 EigMin=1.00D-04
 Number of steps in this run=     20 maximum allowed number of steps=    100.
 GradGradGradGradGradGradGradGradGradGradGradGradGradGradGradGradGradGrad

 Leave Link  103 at Mon Apr 21 19:25:54 2025, MaxMem=   536870912 cpu:               0.2 elap:               0.1
 (Enter /home/szhao/Apps/g16/l202.exe)
                          Input orientation:                          
 ---------------------------------------------------------------------
 Center     Atomic      Atomic             Coordinates (Angstroms)
 Number     Number       Type             X           Y           Z
 ---------------------------------------------------------------------
      1          6           0       -1.694427    0.000000    0.000000
      2         15           0        1.694427    0.000000    0.000000
      3          1           0       -2.779184    0.000000    0.000000
 ---------------------------------------------------------------------
                    Distance matrix (angstroms):
                    1          2          3
     1  C    0.000000
     2  P    3.388854   0.000000
     3  H    1.084757   4.473611   0.000000
 Symmetry turned off by external request.
 Stoichiometry    CHP(1+,2)
 Framework group  C*V[C*(HCP)]
 Deg. of freedom     2
 Full point group                 C*V     NOp   4
 Rotational constants (GHZ):           0.0000000           4.5292463           4.5292463
 Leave Link  202 at Mon Apr 21 19:25:54 2025, MaxMem=   536870912 cpu:               0.2 elap:               0.0
 (Enter /home/szhao/Apps/g16/l301.exe)
 Standard basis: 6-311+G(d,p) (5D, 7F)
 Ernie: Thresh=  0.10000D-02 Tol=  0.10000D-05 Strict=F.
    58 basis functions,    94 primitive gaussians,    60 cartesian basis functions
    11 alpha electrons       10 beta electrons
       nuclear repulsion energy        18.7550136230 Hartrees.
 IExCor= 4336 DFT=T Ex+Corr=M062X ExCW=0 ScaHFX=  0.540000
 ScaDFX=  1.000000  1.000000  1.000000  1.000000 ScalE2=  1.000000  1.000000
 IRadAn=      7 IRanWt=     -1 IRanGd=            0 ICorTp=0 IEmpDi=  4
 NAtoms=    3 NActive=    3 NUniq=    3 SFac= 1.00D+00 NAtFMM=   60 NAOKFM=F Big=F
 Integral buffers will be    131072 words long.
 Raffenetti 2 integral format.
 Two-electron integral symmetry is turned off.
 Leave Link  301 at Mon Apr 21 19:25:54 2025, MaxMem=   536870912 cpu:               0.8 elap:               0.1
 (Enter /home/szhao/Apps/g16/l302.exe)
 NPDir=0 NMtPBC=     1 NCelOv=     1 NCel=       1 NClECP=     1 NCelD=      1
         NCelK=      1 NCelE2=     1 NClLst=     1 CellRange=     0.0.
 One-electron integrals computed using PRISM.
 NBasis=    58 RedAO= T EigKep=  1.61D-02  NBF=    58
 NBsUse=    58 1.00D-06 EigRej= -1.00D+00 NBFU=    58
 Precomputing XC quadrature grid using
 IXCGrd= 4 IRadAn=           7 IRanWt=          -1 IRanGd=           0 AccXCQ= 0.00D+00.
 Generated NRdTot=       0 NPtTot=           0 NUsed=           0 NTot=          32
 NSgBfM=    59    59    59    59    59 MxSgAt=     3 MxSgA2=     3.
 Leave Link  302 at Mon Apr 21 19:25:55 2025, MaxMem=   536870912 cpu:               2.3 elap:               0.3
 (Enter /home/szhao/Apps/g16/l303.exe)
 DipDrv:  MaxL=1.
 Leave Link  303 at Mon Apr 21 19:25:55 2025, MaxMem=   536870912 cpu:               0.8 elap:               0.2
 (Enter /home/szhao/Apps/g16/l401.exe)
 ExpMin= 3.48D-02 ExpMax= 7.75D+04 ExpMxC= 2.65D+03 IAcc=3 IRadAn=         7 AccDes= 0.00D+00
 Harris functional with IExCor= 1009 and IRadAn=       7 diagonalized for initial guess.
 HarFok:  IExCor= 1009 AccDes= 0.00D+00 IRadAn=         7 IDoV= 1 UseB2=F ITyADJ=14
 ICtDFT=  3500011 ScaDFX=  1.000000  1.000000  1.000000  1.000000
 FoFCou: FMM=F IPFlag=           0 FMFlag=      100000 FMFlg1=           0
         NFxFlg=           0 DoJE=T BraDBF=F KetDBF=T FulRan=T
         wScrn=  0.000000 ICntrl=       500 IOpCl=  0 I1Cent=   200000004 NGrid=           0
         NMat0=    1 NMatS0=      1 NMatT0=    0 NMatD0=    1 NMtDS0=    0 NMtDT0=    0
 Symmetry not used in FoFCou.
 Harris En= -379.279538799611    
 JPrj=0 DoOrth=F DoCkMO=F.
 Initial guess <Sx>= 0.0000 <Sy>= 0.0000 <Sz>= 0.5000 <S**2>= 0.7500 S= 0.5000
 Leave Link  401 at Mon Apr 21 19:25:56 2025, MaxMem=   536870912 cpu:               2.3 elap:               0.3
 (Enter /home/szhao/Apps/g16/l502.exe)
 Keep R1 and R2 ints in memory in canonical form, NReq=10036953.
 FoFCou: FMM=F IPFlag=           0 FMFlag=           0 FMFlg1=           0
         NFxFlg=           0 DoJE=F BraDBF=F KetDBF=F FulRan=T
         wScrn=  0.000000 ICntrl=       600 IOpCl=  0 I1Cent=           0 NGrid=           0
         NMat0=    1 NMatS0=   1711 NMatT0=    0 NMatD0=    1 NMtDS0=    0 NMtDT0=    0
 Symmetry not used in FoFCou.
 Two-electron integral symmetry not used.
 UHF open shell SCF:
 Using DIIS extrapolation, IDIIS=  1040.
 NGot=   536870912 LenX=   533933447 LenY=   533929406
 Requested convergence on RMS density matrix=1.00D-08 within 128 cycles.
 Requested convergence on MAX density matrix=1.00D-06.
 Requested convergence on             energy=1.00D-06.
 No special actions if energy rises.

 Cycle   1  Pass 1  IDiag  1:
 E= -378.119612075155    
 DIIS: error= 1.16D-01 at cycle   1 NSaved=   1.
 NSaved= 1 IEnMin= 1 EnMin= -378.119612075155     IErMin= 1 ErrMin= 1.16D-01
 ErrMax= 1.16D-01  0.00D+00 EMaxC= 1.00D-01 BMatC= 1.68D+00 BMatP= 1.68D+00
 IDIUse=3 WtCom= 0.00D+00 WtEn= 1.00D+00
 Coeff-Com:  0.100D+01
 Coeff-En:   0.100D+01
 Coeff:      0.100D+01
 Gap=    -0.753 Goal=   None    Shift=    0.000
 Gap=     0.197 Goal=   None    Shift=    0.000
 GapD=   -0.753 DampG=0.250 DampE=0.250 DampFc=0.2500 IDamp=-1.
 Damping current iteration by 2.50D-01
 RMSDP=3.39D-02 MaxDP=1.01D+00              OVMax= 1.00D+00

 Cycle   2  Pass 1  IDiag  1:
 E= -378.705044193085     Delta-E=       -0.585432117930 Rises=F Damp=T
 DIIS: error= 1.93D-02 at cycle   2 NSaved=   2.
 NSaved= 2 IEnMin= 2 EnMin= -378.705044193085     IErMin= 2 ErrMin= 1.93D-02
 ErrMax= 1.93D-02  0.00D+00 EMaxC= 1.00D-01 BMatC= 1.06D-01 BMatP= 1.68D+00
 IDIUse=3 WtCom= 8.07D-01 WtEn= 1.93D-01
 Coeff-Com: -0.138D+00 0.114D+01
 Coeff-En:   0.917D-01 0.908D+00
 Coeff:     -0.938D-01 0.109D+01
 Gap=    -0.225 Goal=   None    Shift=    0.000
 Gap=     0.314 Goal=   None    Shift=    0.000
 RMSDP=1.26D-02 MaxDP=2.57D-01 DE=-5.85D-01 OVMax= 9.99D-01

 Cycle   3  Pass 1  IDiag  1:
 E= -379.087298529471     Delta-E=       -0.382254336386 Rises=F Damp=F
 DIIS: error= 5.00D-02 at cycle   3 NSaved=   3.
 NSaved= 3 IEnMin= 3 EnMin= -379.087298529471     IErMin= 2 ErrMin= 1.93D-02
 ErrMax= 5.00D-02  0.00D+00 EMaxC= 1.00D-01 BMatC= 4.41D-01 BMatP= 1.06D-01
 IDIUse=2 WtCom= 0.00D+00 WtEn= 1.00D+00
 Coeff-En:   0.247D+00 0.000D+00 0.753D+00
 Coeff:      0.247D+00 0.000D+00 0.753D+00
 Gap=     0.089 Goal=   None    Shift=    0.000
 Gap=     0.132 Goal=   None    Shift=    0.000
 RMSDP=7.68D-03 MaxDP=1.50D-01 DE=-3.82D-01 OVMax= 3.90D-01

 Cycle   4  Pass 1  IDiag  1:
 E= -379.227415851759     Delta-E=       -0.140117322288 Rises=F Damp=F
 DIIS: error= 4.37D-02 at cycle   4 NSaved=   4.
 NSaved= 4 IEnMin= 4 EnMin= -379.227415851759     IErMin= 2 ErrMin= 1.93D-02
 ErrMax= 4.37D-02  0.00D+00 EMaxC= 1.00D-01 BMatC= 1.66D-01 BMatP= 1.06D-01
 IDIUse=2 WtCom= 0.00D+00 WtEn= 1.00D+00
 Coeff-En:   0.000D+00 0.000D+00 0.307D+00 0.693D+00
 Coeff:      0.000D+00 0.000D+00 0.307D+00 0.693D+00
 Gap=     0.079 Goal=   None    Shift=    0.000
 Gap=     0.122 Goal=   None    Shift=    0.000
 RMSDP=5.49D-03 MaxDP=1.22D-01 DE=-1.40D-01 OVMax= 3.35D-01

 Cycle   5  Pass 1  IDiag  1:
 E= -379.265984513775     Delta-E=       -0.038568662017 Rises=F Damp=F
 DIIS: error= 2.12D-02 at cycle   5 NSaved=   5.
 NSaved= 5 IEnMin= 5 EnMin= -379.265984513775     IErMin= 2 ErrMin= 1.93D-02
 ErrMax= 2.12D-02  0.00D+00 EMaxC= 1.00D-01 BMatC= 6.38D-02 BMatP= 1.06D-01
 IDIUse=3 WtCom= 7.88D-01 WtEn= 2.12D-01
 Coeff-Com:  0.141D-01 0.103D-01-0.179D+00 0.245D+00 0.910D+00
 Coeff-En:   0.000D+00 0.000D+00 0.000D+00 0.373D+00 0.627D+00
 Coeff:      0.111D-01 0.808D-02-0.141D+00 0.272D+00 0.850D+00
 Gap=     0.068 Goal=   None    Shift=    0.000
 Gap=     0.130 Goal=   None    Shift=    0.000
 RMSDP=2.66D-03 MaxDP=5.34D-02 DE=-3.86D-02 OVMax= 1.89D-01

 Cycle   6  Pass 1  IDiag  1:
 E= -379.301612352732     Delta-E=       -0.035627838957 Rises=F Damp=F
 DIIS: error= 3.51D-03 at cycle   6 NSaved=   6.
 NSaved= 6 IEnMin= 6 EnMin= -379.301612352732     IErMin= 6 ErrMin= 3.51D-03
 ErrMax= 3.51D-03  0.00D+00 EMaxC= 1.00D-01 BMatC= 8.80D-04 BMatP= 6.38D-02
 IDIUse=3 WtCom= 9.65D-01 WtEn= 3.51D-02
 Coeff-Com: -0.819D-02 0.196D-01-0.424D-01 0.301D-01 0.129D+00 0.871D+00
 Coeff-En:   0.000D+00 0.000D+00 0.000D+00 0.000D+00 0.000D+00 0.100D+01
 Coeff:     -0.790D-02 0.189D-01-0.409D-01 0.291D-01 0.125D+00 0.876D+00
 Gap=     0.079 Goal=   None    Shift=    0.000
 Gap=     0.106 Goal=   None    Shift=    0.000
 RMSDP=1.42D-03 MaxDP=3.10D-02 DE=-3.56D-02 OVMax= 1.18D-01

 Cycle   7  Pass 1  IDiag  1:
 E= -379.306795015041     Delta-E=       -0.005182662309 Rises=F Damp=F
 DIIS: error= 6.48D-03 at cycle   7 NSaved=   7.
 NSaved= 7 IEnMin= 7 EnMin= -379.306795015041     IErMin= 6 ErrMin= 3.51D-03
 ErrMax= 6.48D-03  0.00D+00 EMaxC= 1.00D-01 BMatC= 2.10D-03 BMatP= 8.80D-04
 IDIUse=3 WtCom= 9.65D-01 WtEn= 3.51D-02
 Coeff-Com: -0.868D-02 0.198D-01-0.449D-01 0.347D-01 0.131D+00 0.950D+00
 Coeff-Com: -0.822D-01
 Coeff-En:   0.000D+00 0.000D+00 0.000D+00 0.000D+00 0.000D+00 0.000D+00
 Coeff-En:   0.100D+01
 Coeff:     -0.838D-02 0.191D-01-0.433D-01 0.335D-01 0.127D+00 0.916D+00
 Coeff:     -0.442D-01
 Gap=     0.081 Goal=   None    Shift=    0.000
 Gap=     0.106 Goal=   None    Shift=    0.000
 RMSDP=1.28D-04 MaxDP=2.74D-03 DE=-5.18D-03 OVMax= 1.17D-02

 Cycle   8  Pass 1  IDiag  1:
 E= -379.306314377918     Delta-E=        0.000480637123 Rises=F Damp=F
 DIIS: error= 6.11D-03 at cycle   8 NSaved=   8.
 NSaved= 8 IEnMin= 7 EnMin= -379.306795015041     IErMin= 6 ErrMin= 3.51D-03
 ErrMax= 6.11D-03  0.00D+00 EMaxC= 1.00D-01 BMatC= 1.81D-03 BMatP= 8.80D-04
 IDIUse=3 WtCom= 9.65D-01 WtEn= 3.51D-02
 Large coefficients: NSaved=  8 BigCof=   18.81 CofMax=   10.00 Det=-7.77D-07
 Inversion failed.  Reducing to  7 matrices.
 Large coefficients: NSaved=  7 BigCof=   19.12 CofMax=   10.00 Det=-8.59D-07
 Inversion failed.  Reducing to  6 matrices.
 Large coefficients: NSaved=  6 BigCof=   18.85 CofMax=   10.00 Det=-8.63D-07
 Inversion failed.  Reducing to  5 matrices.
 Large coefficients: NSaved=  5 BigCof=   17.63 CofMax=   10.00 Det=-1.36D-06
 Inversion failed.  Reducing to  4 matrices.
 Large coefficients: NSaved=  4 BigCof=   14.04 CofMax=   10.00 Det=-1.64D-06
 Inversion failed.  Reducing to  3 matrices.
 Rare condition: small coef for last iteration:  0.000D+00
 Coeff-Com:  0.474D+00-0.469D+01 0.522D+01
 Coeff-En:   0.000D+00 0.000D+00 0.100D+01
 Coeff:      0.474D+00-0.469D+01 0.522D+01
 Gap=     0.083 Goal=   None    Shift=    0.000
 Gap=     0.106 Goal=   None    Shift=    0.000
 RMSDP=4.71D-04 MaxDP=1.04D-02 DE= 4.81D-04 OVMax= 4.22D-02

 Cycle   9  Pass 1  IDiag  1:
 E= -379.307510810466     Delta-E=       -0.001196432548 Rises=F Damp=F
 DIIS: error= 7.92D-03 at cycle   9 NSaved=   4.
 NSaved= 4 IEnMin= 4 EnMin= -379.307510810466     IErMin= 1 ErrMin= 3.51D-03
 ErrMax= 7.92D-03  0.00D+00 EMaxC= 1.00D-01 BMatC= 3.71D-03 BMatP= 8.80D-04
 IDIUse=3 WtCom= 9.65D-01 WtEn= 3.51D-02
 Large coefficients: NSaved=  4 BigCof=   28.24 CofMax=   10.00 Det=-7.67D-07
 Inversion failed.  Reducing to  3 matrices.
 Large coefficients: NSaved=  3 BigCof=   30.98 CofMax=   10.00 Det=-8.15D-07
 Inversion failed.  Reducing to  2 matrices.
 Coeff-Com:  0.207D+01-0.107D+01
 Coeff-En:   0.000D+00 0.100D+01
 Coeff:      0.200D+01-0.998D+00
 Gap=     0.091 Goal=   None    Shift=    0.000
 Gap=     0.122 Goal=   None    Shift=    0.000
 RMSDP=1.23D-03 MaxDP=2.27D-02 DE=-1.20D-03 OVMax= 8.65D-02

 Cycle  10  Pass 1  IDiag  1:
 E= -379.314788095517     Delta-E=       -0.007277285051 Rises=F Damp=F
 DIIS: error= 8.17D-03 at cycle  10 NSaved=   3.
 NSaved= 3 IEnMin= 3 EnMin= -379.314788095517     IErMin= 1 ErrMin= 6.11D-03
 ErrMax= 8.17D-03  0.00D+00 EMaxC= 1.00D-01 BMatC= 4.05D-03 BMatP= 1.81D-03
 IDIUse=3 WtCom= 9.65D-01 WtEn= 3.51D-02
 Coeff-Com:  0.229D+01 0.471D+00-0.176D+01
 Coeff-En:   0.000D+00 0.000D+00 0.100D+01
 Coeff:      0.221D+01 0.454D+00-0.167D+01
 Gap=     0.085 Goal=   None    Shift=    0.000
 Gap=     0.079 Goal=   None    Shift=    0.000
 RMSDP=3.75D-03 MaxDP=6.54D-02 DE=-7.28D-03 OVMax= 2.57D-01

 Cycle  11  Pass 1  IDiag  1:
 E= -379.298255074506     Delta-E=        0.016533021012 Rises=F Damp=F
 DIIS: error= 1.07D-02 at cycle  11 NSaved=   4.
 NSaved= 4 IEnMin= 3 EnMin= -379.314788095517     IErMin= 1 ErrMin= 6.11D-03
 ErrMax= 1.07D-02  0.00D+00 EMaxC= 1.00D-01 BMatC= 6.61D-03 BMatP= 1.81D-03
 IDIUse=2 WtCom= 0.00D+00 WtEn= 1.00D+00
 Rare condition: small coef for last iteration:  0.000D+00
 Coeff-En:   0.000D+00 0.000D+00 0.000D+00 0.100D+01
 Coeff:      0.000D+00 0.000D+00 0.000D+00 0.100D+01
 Gap=     0.121 Goal=   None    Shift=    0.000
 Gap=     0.120 Goal=   None    Shift=    0.000
 RMSDP=3.08D-03 MaxDP=5.91D-02 DE= 1.65D-02 OVMax= 1.89D-01

 Cycle  12  Pass 1  IDiag  1:
 E= -379.278507165491     Delta-E=        0.019747909015 Rises=F Damp=F
 DIIS: error= 1.90D-02 at cycle  12 NSaved=   5.
 NSaved= 5 IEnMin= 3 EnMin= -379.314788095517     IErMin= 1 ErrMin= 6.11D-03
 ErrMax= 1.90D-02  0.00D+00 EMaxC= 1.00D-01 BMatC= 4.22D-02 BMatP= 1.81D-03
 IDIUse=2 WtCom= 0.00D+00 WtEn= 1.00D+00
 Coeff-En:   0.000D+00 0.000D+00 0.000D+00 0.790D+00 0.210D+00
 Coeff:      0.000D+00 0.000D+00 0.000D+00 0.790D+00 0.210D+00
 Gap=     0.125 Goal=   None    Shift=    0.000
 Gap=     0.127 Goal=   None    Shift=    0.000
 RMSDP=1.76D-03 MaxDP=2.89D-02 DE= 1.97D-02 OVMax= 1.18D-01

 Cycle  13  Pass 1  IDiag  1:
 E= -379.302131683736     Delta-E=       -0.023624518245 Rises=F Damp=F
 DIIS: error= 8.17D-03 at cycle  13 NSaved=   6.
 NSaved= 6 IEnMin= 3 EnMin= -379.314788095517     IErMin= 1 ErrMin= 6.11D-03
 ErrMax= 8.17D-03  0.00D+00 EMaxC= 1.00D-01 BMatC= 3.82D-03 BMatP= 1.81D-03
 IDIUse=3 WtCom= 9.65D-01 WtEn= 3.51D-02
 Coeff-Com:  0.480D+00 0.107D+01-0.111D+01-0.218D-01-0.141D+00 0.719D+00
 Coeff-En:   0.000D+00 0.000D+00 0.000D+00 0.190D+00 0.000D+00 0.810D+00
 Coeff:      0.463D+00 0.103D+01-0.107D+01-0.144D-01-0.136D+00 0.722D+00
 Gap=     0.095 Goal=   None    Shift=    0.000
 Gap=     0.082 Goal=   None    Shift=    0.000
 RMSDP=1.55D-03 MaxDP=3.33D-02 DE=-2.36D-02 OVMax= 1.45D-01

 Cycle  14  Pass 1  IDiag  1:
 E= -379.303076501460     Delta-E=       -0.000944817724 Rises=F Damp=F
 DIIS: error= 9.60D-03 at cycle  14 NSaved=   7.
 NSaved= 7 IEnMin= 3 EnMin= -379.314788095517     IErMin= 1 ErrMin= 6.11D-03
 ErrMax= 9.60D-03  0.00D+00 EMaxC= 1.00D-01 BMatC= 6.44D-03 BMatP= 1.81D-03
 IDIUse=3 WtCom= 9.65D-01 WtEn= 3.51D-02
 Coeff-Com:  0.504D+00 0.959D+00-0.884D+00-0.505D+00-0.692D-01 0.523D+00
 Coeff-Com:  0.473D+00
 Coeff-En:   0.000D+00 0.000D+00 0.000D+00 0.000D+00 0.000D+00 0.430D+00
 Coeff-En:   0.570D+00
 Coeff:      0.486D+00 0.925D+00-0.853D+00-0.487D+00-0.667D-01 0.519D+00
 Coeff:      0.477D+00
 Gap=     0.099 Goal=   None    Shift=    0.000
 Gap=     0.085 Goal=   None    Shift=    0.000
 RMSDP=7.31D-04 MaxDP=1.06D-02 DE=-9.45D-04 OVMax= 6.90D-02

 Cycle  15  Pass 1  IDiag  1:
 E= -379.305731621147     Delta-E=       -0.002655119687 Rises=F Damp=F
 DIIS: error= 6.63D-03 at cycle  15 NSaved=   8.
 NSaved= 8 IEnMin= 3 EnMin= -379.314788095517     IErMin= 1 ErrMin= 6.11D-03
 ErrMax= 6.63D-03  0.00D+00 EMaxC= 1.00D-01 BMatC= 2.92D-03 BMatP= 1.81D-03
 IDIUse=3 WtCom= 9.65D-01 WtEn= 3.51D-02
 Coeff-Com:  0.672D+00-0.140D+00-0.321D+00 0.374D+00 0.491D-01-0.225D+00
 Coeff-Com: -0.223D+01 0.282D+01
 Coeff-En:   0.000D+00 0.000D+00 0.000D+00 0.000D+00 0.000D+00 0.522D-01
 Coeff-En:   0.000D+00 0.948D+00
 Coeff:      0.649D+00-0.135D+00-0.310D+00 0.360D+00 0.474D-01-0.216D+00
 Coeff:     -0.215D+01 0.276D+01
 Gap=     0.093 Goal=   None    Shift=    0.000
 Gap=     0.091 Goal=   None    Shift=    0.000
 RMSDP=1.17D-03 MaxDP=1.57D-02 DE=-2.66D-03 OVMax= 8.91D-02

 Cycle  16  Pass 1  IDiag  1:
 E= -379.307456776450     Delta-E=       -0.001725155303 Rises=F Damp=F
 DIIS: error= 2.09D-03 at cycle  16 NSaved=   9.
 NSaved= 9 IEnMin= 3 EnMin= -379.314788095517     IErMin= 9 ErrMin= 2.09D-03
 ErrMax= 2.09D-03  0.00D+00 EMaxC= 1.00D-01 BMatC= 1.79D-04 BMatP= 1.81D-03
 IDIUse=3 WtCom= 9.79D-01 WtEn= 2.09D-02
 Coeff-Com:  0.450D-01-0.365D+00 0.602D-01 0.230D+00-0.230D-02-0.144D+00
 Coeff-Com:  0.868D-02-0.669D+00 0.184D+01
 Coeff-En:   0.000D+00 0.000D+00 0.000D+00 0.000D+00 0.000D+00 0.000D+00
 Coeff-En:   0.000D+00 0.000D+00 0.100D+01
 Coeff:      0.441D-01-0.357D+00 0.590D-01 0.225D+00-0.225D-02-0.141D+00
 Coeff:      0.850D-02-0.655D+00 0.182D+01
 Gap=     0.093 Goal=   None    Shift=    0.000
 Gap=     0.093 Goal=   None    Shift=    0.000
 RMSDP=7.00D-04 MaxDP=1.11D-02 DE=-1.73D-03 OVMax= 6.34D-02

 Cycle  17  Pass 1  IDiag  1:
 E= -379.307722806340     Delta-E=       -0.000266029889 Rises=F Damp=F
 DIIS: error= 2.67D-03 at cycle  17 NSaved=  10.
 NSaved=10 IEnMin= 3 EnMin= -379.314788095517     IErMin= 9 ErrMin= 2.09D-03
 ErrMax= 2.67D-03  0.00D+00 EMaxC= 1.00D-01 BMatC= 2.98D-04 BMatP= 1.79D-04
 IDIUse=3 WtCom= 9.79D-01 WtEn= 2.09D-02
 Coeff-Com:  0.107D-01 0.448D-01-0.967D-01 0.244D+00-0.315D-01 0.193D+00
 Coeff-Com: -0.259D+00-0.150D+00 0.350D+00 0.694D+00
 Coeff-En:   0.000D+00 0.000D+00 0.000D+00 0.000D+00 0.000D+00 0.000D+00
 Coeff-En:   0.000D+00 0.000D+00 0.000D+00 0.100D+01
 Coeff:      0.105D-01 0.439D-01-0.947D-01 0.239D+00-0.308D-01 0.189D+00
 Coeff:     -0.254D+00-0.147D+00 0.343D+00 0.701D+00
 Gap=     0.092 Goal=   None    Shift=    0.000
 Gap=     0.093 Goal=   None    Shift=    0.000
 RMSDP=4.30D-04 MaxDP=6.38D-03 DE=-2.66D-04 OVMax= 2.88D-02

 Cycle  18  Pass 1  IDiag  1:
 E= -379.307758289321     Delta-E=       -0.000035482981 Rises=F Damp=F
 DIIS: error= 1.23D-03 at cycle  18 NSaved=  11.
 NSaved=11 IEnMin= 3 EnMin= -379.314788095517     IErMin=11 ErrMin= 1.23D-03
 ErrMax= 1.23D-03  0.00D+00 EMaxC= 1.00D-01 BMatC= 5.50D-05 BMatP= 1.79D-04
 IDIUse=3 WtCom= 9.88D-01 WtEn= 1.23D-02
 Coeff-Com:  0.683D-01-0.121D-01-0.939D-01 0.188D+00-0.567D-02-0.128D+00
 Coeff-Com: -0.313D+00 0.473D-01 0.181D+00 0.197D+00 0.871D+00
 Coeff-En:   0.000D+00 0.000D+00 0.000D+00 0.000D+00 0.000D+00 0.000D+00
 Coeff-En:   0.000D+00 0.000D+00 0.000D+00 0.386D+00 0.614D+00
 Coeff:      0.674D-01-0.119D-01-0.927D-01 0.186D+00-0.560D-02-0.126D+00
 Coeff:     -0.309D+00 0.467D-01 0.179D+00 0.199D+00 0.867D+00
 Gap=     0.093 Goal=   None    Shift=    0.000
 Gap=     0.093 Goal=   None    Shift=    0.000
 RMSDP=2.88D-04 MaxDP=3.87D-03 DE=-3.55D-05 OVMax= 2.24D-02

 Cycle  19  Pass 1  IDiag  1:
 E= -379.307838680443     Delta-E=       -0.000080391122 Rises=F Damp=F
 DIIS: error= 9.46D-04 at cycle  19 NSaved=  12.
 NSaved=12 IEnMin= 3 EnMin= -379.314788095517     IErMin=12 ErrMin= 9.46D-04
 ErrMax= 9.46D-04  0.00D+00 EMaxC= 1.00D-01 BMatC= 3.48D-05 BMatP= 5.50D-05
 IDIUse=3 WtCom= 9.91D-01 WtEn= 9.46D-03
 Coeff-Com:  0.661D-01-0.526D-02-0.729D-01 0.145D+00-0.254D-02-0.799D-01
 Coeff-Com: -0.273D+00 0.121D+00 0.424D-01-0.276D+00 0.310D+00 0.102D+01
 Coeff-En:   0.000D+00 0.000D+00 0.000D+00 0.000D+00 0.000D+00 0.000D+00
 Coeff-En:   0.000D+00 0.000D+00 0.000D+00 0.000D+00 0.000D+00 0.100D+01
 Coeff:      0.655D-01-0.521D-02-0.722D-01 0.144D+00-0.252D-02-0.791D-01
 Coeff:     -0.270D+00 0.120D+00 0.420D-01-0.273D+00 0.307D+00 0.102D+01
 Gap=     0.093 Goal=   None    Shift=    0.000
 Gap=     0.093 Goal=   None    Shift=    0.000
 RMSDP=5.91D-05 MaxDP=1.35D-03 DE=-8.04D-05 OVMax= 5.90D-03

 Cycle  20  Pass 1  IDiag  1:
 E= -379.307841113654     Delta-E=       -0.000002433211 Rises=F Damp=F
 DIIS: error= 3.93D-04 at cycle  20 NSaved=  13.
 NSaved=13 IEnMin= 3 EnMin= -379.314788095517     IErMin=13 ErrMin= 3.93D-04
 ErrMax= 3.93D-04  0.00D+00 EMaxC= 1.00D-01 BMatC= 6.88D-06 BMatP= 3.48D-05
 IDIUse=3 WtCom= 9.96D-01 WtEn= 3.93D-03
 Coeff-Com: -0.251D-01 0.415D-01-0.203D-01-0.234D-01-0.945D-04 0.935D-02
 Coeff-Com:  0.748D-01-0.804D-01 0.728D-01 0.863D-01-0.440D+00-0.198D+01
 Coeff-Com:  0.329D+01
 Coeff-En:   0.000D+00 0.000D+00 0.000D+00 0.000D+00 0.000D+00 0.000D+00
 Coeff-En:   0.000D+00 0.000D+00 0.000D+00 0.000D+00 0.000D+00 0.000D+00
 Coeff-En:   0.100D+01
 Coeff:     -0.250D-01 0.413D-01-0.202D-01-0.233D-01-0.941D-04 0.931D-02
 Coeff:      0.745D-01-0.801D-01 0.725D-01 0.859D-01-0.438D+00-0.198D+01
 Coeff:      0.328D+01
 Gap=     0.092 Goal=   None    Shift=    0.000
 Gap=     0.093 Goal=   None    Shift=    0.000
 RMSDP=6.53D-05 MaxDP=8.87D-04 DE=-2.43D-06 OVMax= 4.56D-03

 Cycle  21  Pass 1  IDiag  1:
 E= -379.307836388191     Delta-E=        0.000004725463 Rises=F Damp=F
 DIIS: error= 3.33D-04 at cycle  21 NSaved=  14.
 NSaved=14 IEnMin= 3 EnMin= -379.314788095517     IErMin=14 ErrMin= 3.33D-04
 ErrMax= 3.33D-04  0.00D+00 EMaxC= 1.00D-01 BMatC= 4.25D-06 BMatP= 6.88D-06
 IDIUse=3 WtCom= 9.97D-01 WtEn= 3.33D-03
 Rare condition: small coef for last iteration:  0.000D+00
 Coeff-Com: -0.697D-02 0.145D-01-0.493D-02-0.330D-02-0.106D-02 0.152D-01
 Coeff-Com:  0.328D-01-0.530D-01 0.185D-01 0.117D+00-0.634D-02-0.900D+00
 Coeff-Com:  0.824D+00 0.954D+00
 Coeff-En:   0.000D+00 0.000D+00 0.000D+00 0.000D+00 0.000D+00 0.000D+00
 Coeff-En:   0.000D+00 0.000D+00 0.000D+00 0.000D+00 0.000D+00 0.000D+00
 Coeff-En:   0.000D+00 0.100D+01
 Coeff:     -0.697D-02 0.145D-01-0.493D-02-0.330D-02-0.106D-02 0.152D-01
 Coeff:      0.328D-01-0.530D-01 0.185D-01 0.117D+00-0.634D-02-0.900D+00
 Coeff:      0.824D+00 0.954D+00
 Gap=     0.092 Goal=   None    Shift=    0.000
 Gap=     0.093 Goal=   None    Shift=    0.000
 RMSDP=4.46D-05 MaxDP=9.15D-04 DE= 4.73D-06 OVMax= 4.02D-03

 Cycle  22  Pass 1  IDiag  1:
 E= -379.307837445117     Delta-E=       -0.000001056926 Rises=F Damp=F
 DIIS: error= 6.21D-05 at cycle  22 NSaved=  15.
 NSaved=15 IEnMin= 3 EnMin= -379.314788095517     IErMin=15 ErrMin= 6.21D-05
 ErrMax= 6.21D-05  0.00D+00 EMaxC= 1.00D-01 BMatC= 1.47D-07 BMatP= 4.25D-06
 IDIUse=1 WtCom= 1.00D+00 WtEn= 0.00D+00
 Coeff-Com:  0.163D-02-0.219D-02-0.412D-03 0.268D-02 0.199D-03-0.218D-02
 Coeff-Com: -0.264D-02-0.548D-03 0.370D-03 0.716D-03-0.441D-01 0.212D+00
 Coeff-Com: -0.205D+00-0.287D+00 0.133D+01
 Coeff:      0.163D-02-0.219D-02-0.412D-03 0.268D-02 0.199D-03-0.218D-02
 Coeff:     -0.264D-02-0.548D-03 0.370D-03 0.716D-03-0.441D-01 0.212D+00
 Coeff:     -0.205D+00-0.287D+00 0.133D+01
 Gap=     0.092 Goal=   None    Shift=    0.000
 Gap=     0.093 Goal=   None    Shift=    0.000
 RMSDP=1.23D-05 MaxDP=1.67D-04 DE=-1.06D-06 OVMax= 9.10D-04

 Cycle  23  Pass 1  IDiag  1:
 E= -379.307837610524     Delta-E=       -0.000000165407 Rises=F Damp=F
 DIIS: error= 1.63D-05 at cycle  23 NSaved=  16.
 NSaved=16 IEnMin= 3 EnMin= -379.314788095517     IErMin=16 ErrMin= 1.63D-05
 ErrMax= 1.63D-05  0.00D+00 EMaxC= 1.00D-01 BMatC= 1.03D-08 BMatP= 1.47D-07
 IDIUse=1 WtCom= 1.00D+00 WtEn= 0.00D+00
 Coeff-Com:  0.207D-03-0.100D-02 0.701D-03 0.564D-03-0.531D-04 0.918D-03
 Coeff-Com: -0.142D-03-0.452D-04-0.470D-03-0.166D-03 0.504D-03-0.242D-02
 Coeff-Com: -0.104D-01-0.212D-01-0.408D-01 0.107D+01
 Coeff:      0.207D-03-0.100D-02 0.701D-03 0.564D-03-0.531D-04 0.918D-03
 Coeff:     -0.142D-03-0.452D-04-0.470D-03-0.166D-03 0.504D-03-0.242D-02
 Coeff:     -0.104D-01-0.212D-01-0.408D-01 0.107D+01
 Gap=     0.092 Goal=   None    Shift=    0.000
 Gap=     0.093 Goal=   None    Shift=    0.000
 RMSDP=3.37D-06 MaxDP=7.64D-05 DE=-1.65D-07 OVMax= 3.19D-04

 Cycle  24  Pass 1  IDiag  1:
 E= -379.307837607540     Delta-E=        0.000000002984 Rises=F Damp=F
 DIIS: error= 1.28D-05 at cycle  24 NSaved=  17.
 NSaved=17 IEnMin= 3 EnMin= -379.314788095517     IErMin=17 ErrMin= 1.28D-05
 ErrMax= 1.28D-05  0.00D+00 EMaxC= 1.00D-01 BMatC= 7.32D-09 BMatP= 1.03D-08
 IDIUse=1 WtCom= 1.00D+00 WtEn= 0.00D+00
 Coeff-Com: -0.272D-05 0.203D-03-0.243D-03 0.193D-03 0.774D-04-0.115D-02
 Coeff-Com: -0.176D-02 0.237D-02-0.331D-03 0.106D-03 0.346D-02-0.118D-02
 Coeff-Com:  0.104D-01 0.501D-01-0.148D+00-0.583D+00 0.167D+01
 Coeff:     -0.272D-05 0.203D-03-0.243D-03 0.193D-03 0.774D-04-0.115D-02
 Coeff:     -0.176D-02 0.237D-02-0.331D-03 0.106D-03 0.346D-02-0.118D-02
 Coeff:      0.104D-01 0.501D-01-0.148D+00-0.583D+00 0.167D+01
 Gap=     0.092 Goal=   None    Shift=    0.000
 Gap=     0.093 Goal=   None    Shift=    0.000
 RMSDP=2.34D-06 MaxDP=3.50D-05 DE= 2.98D-09 OVMax= 1.82D-04

 Cycle  25  Pass 1  IDiag  1:
 E= -379.307837610474     Delta-E=       -0.000000002934 Rises=F Damp=F
 DIIS: error= 6.55D-06 at cycle  25 NSaved=  18.
 NSaved=18 IEnMin= 3 EnMin= -379.314788095517     IErMin=18 ErrMin= 6.55D-06
 ErrMax= 6.55D-06  0.00D+00 EMaxC= 1.00D-01 BMatC= 2.38D-09 BMatP= 7.32D-09
 IDIUse=1 WtCom= 1.00D+00 WtEn= 0.00D+00
 Coeff-Com: -0.325D-04 0.207D-03-0.205D-03 0.751D-05-0.481D-04 0.209D-03
 Coeff-Com:  0.220D-03-0.605D-03 0.167D-03 0.489D-03 0.340D-02-0.455D-02
 Coeff-Com: -0.122D-02-0.102D-01 0.640D-01-0.842D-01-0.380D+00 0.141D+01
 Coeff:     -0.325D-04 0.207D-03-0.205D-03 0.751D-05-0.481D-04 0.209D-03
 Coeff:      0.220D-03-0.605D-03 0.167D-03 0.489D-03 0.340D-02-0.455D-02
 Coeff:     -0.122D-02-0.102D-01 0.640D-01-0.842D-01-0.380D+00 0.141D+01
 Gap=     0.092 Goal=   None    Shift=    0.000
 Gap=     0.093 Goal=   None    Shift=    0.000
 RMSDP=1.07D-06 MaxDP=1.57D-05 DE=-2.93D-09 OVMax= 7.62D-05

 Cycle  26  Pass 1  IDiag  1:
 E= -379.307837612579     Delta-E=       -0.000000002105 Rises=F Damp=F
 DIIS: error= 1.46D-06 at cycle  26 NSaved=  19.
 NSaved=19 IEnMin= 3 EnMin= -379.314788095517     IErMin=19 ErrMin= 1.46D-06
 ErrMax= 1.46D-06  0.00D+00 EMaxC= 1.00D-01 BMatC= 1.10D-10 BMatP= 2.38D-09
 IDIUse=1 WtCom= 1.00D+00 WtEn= 0.00D+00
 Coeff-Com:  0.338D-04 0.644D-04-0.825D-04-0.748D-05-0.215D-04 0.135D-03
 Coeff-Com:  0.179D-03-0.408D-03 0.232D-03 0.514D-04-0.109D-02-0.219D-02
 Coeff-Com:  0.224D-02-0.922D-02 0.232D-01 0.327D-01-0.199D+00 0.165D+00
 Coeff-Com:  0.988D+00
 Coeff:      0.338D-04 0.644D-04-0.825D-04-0.748D-05-0.215D-04 0.135D-03
 Coeff:      0.179D-03-0.408D-03 0.232D-03 0.514D-04-0.109D-02-0.219D-02
 Coeff:      0.224D-02-0.922D-02 0.232D-01 0.327D-01-0.199D+00 0.165D+00
 Coeff:      0.988D+00
 Gap=     0.092 Goal=   None    Shift=    0.000
 Gap=     0.093 Goal=   None    Shift=    0.000
 RMSDP=3.08D-07 MaxDP=7.24D-06 DE=-2.10D-09 OVMax= 2.75D-05

 Cycle  27  Pass 1  IDiag  1:
 E= -379.307837612664     Delta-E=       -0.000000000085 Rises=F Damp=F
 DIIS: error= 7.58D-07 at cycle  27 NSaved=  20.
 NSaved=20 IEnMin= 3 EnMin= -379.314788095517     IErMin=20 ErrMin= 7.58D-07
 ErrMax= 7.58D-07  0.00D+00 EMaxC= 1.00D-01 BMatC= 2.46D-11 BMatP= 1.10D-10
 IDIUse=1 WtCom= 1.00D+00 WtEn= 0.00D+00
 Coeff-Com:  0.136D-03 0.487D-04-0.118D-03-0.362D-04-0.393D-04 0.324D-03
 Coeff-Com:  0.417D-03-0.830D-03 0.520D-03-0.572D-03-0.535D-02-0.198D-02
 Coeff-Com:  0.546D-02-0.262D-01 0.441D-01 0.165D+00-0.446D+00-0.303D+00
 Coeff-Com:  0.372D+01-0.215D+01
 Coeff:      0.136D-03 0.487D-04-0.118D-03-0.362D-04-0.393D-04 0.324D-03
 Coeff:      0.417D-03-0.830D-03 0.520D-03-0.572D-03-0.535D-02-0.198D-02
 Coeff:      0.546D-02-0.262D-01 0.441D-01 0.165D+00-0.446D+00-0.303D+00
 Coeff:      0.372D+01-0.215D+01
 Gap=     0.092 Goal=   None    Shift=    0.000
 Gap=     0.093 Goal=   None    Shift=    0.000
 RMSDP=3.53D-07 MaxDP=4.74D-06 DE=-8.53D-11 OVMax= 3.07D-05

 Cycle  28  Pass 1  IDiag  1:
 E= -379.307837612432     Delta-E=        0.000000000232 Rises=F Damp=F
 DIIS: error= 1.17D-06 at cycle  28 NSaved=  20.
 NSaved=20 IEnMin= 3 EnMin= -379.314788095517     IErMin=19 ErrMin= 7.58D-07
 ErrMax= 1.17D-06  0.00D+00 EMaxC= 1.00D-01 BMatC= 6.74D-11 BMatP= 2.46D-11
 IDIUse=1 WtCom= 1.00D+00 WtEn= 0.00D+00
 Coeff-Com: -0.134D-03 0.157D-03-0.216D-04-0.101D-03 0.146D-04 0.659D-03
 Coeff-Com: -0.117D-02 0.715D-03 0.262D-02 0.274D-03-0.121D-01 0.865D-02
 Coeff-Com:  0.840D-02-0.902D-02 0.318D-01-0.214D+00 0.425D+00-0.162D+01
 Coeff-Com: -0.427D+01 0.664D+01
 Coeff:     -0.134D-03 0.157D-03-0.216D-04-0.101D-03 0.146D-04 0.659D-03
 Coeff:     -0.117D-02 0.715D-03 0.262D-02 0.274D-03-0.121D-01 0.865D-02
 Coeff:      0.840D-02-0.902D-02 0.318D-01-0.214D+00 0.425D+00-0.162D+01
 Coeff:     -0.427D+01 0.664D+01
 Gap=     0.092 Goal=   None    Shift=    0.000
 Gap=     0.093 Goal=   None    Shift=    0.000
 RMSDP=1.48D-06 MaxDP=1.78D-05 DE= 2.32D-10 OVMax= 1.36D-04

 Cycle  29  Pass 1  IDiag  1:
 E= -379.307837611959     Delta-E=        0.000000000473 Rises=F Damp=F
 DIIS: error= 6.32D-07 at cycle  29 NSaved=  20.
 NSaved=20 IEnMin= 3 EnMin= -379.314788095517     IErMin=20 ErrMin= 6.32D-07
 ErrMax= 6.32D-07  0.00D+00 EMaxC= 1.00D-01 BMatC= 2.42D-11 BMatP= 2.46D-11
 IDIUse=1 WtCom= 1.00D+00 WtEn= 0.00D+00
 Coeff-Com:  0.360D-04-0.255D-04 0.279D-05 0.221D-04-0.955D-04 0.232D-03
 Coeff-Com: -0.185D-03-0.504D-03 0.915D-04 0.213D-02-0.952D-03 0.760D-03
 Coeff-Com: -0.608D-03-0.325D-01 0.109D+00-0.131D+00 0.113D+00 0.108D+01
 Coeff-Com: -0.157D+01 0.143D+01
 Coeff:      0.360D-04-0.255D-04 0.279D-05 0.221D-04-0.955D-04 0.232D-03
 Coeff:     -0.185D-03-0.504D-03 0.915D-04 0.213D-02-0.952D-03 0.760D-03
 Coeff:     -0.608D-03-0.325D-01 0.109D+00-0.131D+00 0.113D+00 0.108D+01
 Coeff:     -0.157D+01 0.143D+01
 Gap=     0.092 Goal=   None    Shift=    0.000
 Gap=     0.093 Goal=   None    Shift=    0.000
 RMSDP=2.71D-07 MaxDP=3.62D-06 DE= 4.73D-10 OVMax= 2.17D-05

 Cycle  30  Pass 1  IDiag  1:
 E= -379.307837611958     Delta-E=        0.000000000001 Rises=F Damp=F
 DIIS: error= 4.27D-07 at cycle  30 NSaved=  20.
 NSaved=20 IEnMin= 3 EnMin= -379.314788095517     IErMin=20 ErrMin= 4.27D-07
 ErrMax= 4.27D-07  0.00D+00 EMaxC= 1.00D-01 BMatC= 1.12D-11 BMatP= 2.42D-11
 IDIUse=1 WtCom= 1.00D+00 WtEn= 0.00D+00
 Coeff-Com: -0.172D-04 0.867D-05 0.363D-05 0.420D-04-0.868D-04 0.475D-04
 Coeff-Com:  0.130D-03-0.172D-03-0.351D-03-0.656D-04-0.133D-02 0.121D-02
 Coeff-Com:  0.249D-01-0.661D-01 0.575D-01 0.983D-01-0.243D+00 0.292D+00
 Coeff-Com: -0.869D+00 0.171D+01
 Coeff:     -0.172D-04 0.867D-05 0.363D-05 0.420D-04-0.868D-04 0.475D-04
 Coeff:      0.130D-03-0.172D-03-0.351D-03-0.656D-04-0.133D-02 0.121D-02
 Coeff:      0.249D-01-0.661D-01 0.575D-01 0.983D-01-0.243D+00 0.292D+00
 Coeff:     -0.869D+00 0.171D+01
 Gap=     0.092 Goal=   None    Shift=    0.000
 Gap=     0.093 Goal=   None    Shift=    0.000
 RMSDP=1.89D-07 MaxDP=4.57D-06 DE= 1.36D-12 OVMax= 1.45D-05

 Cycle  31  Pass 1  IDiag  1:
 E= -379.307837612017     Delta-E=       -0.000000000059 Rises=F Damp=F
 DIIS: error= 4.24D-07 at cycle  31 NSaved=  20.
 NSaved=20 IEnMin= 3 EnMin= -379.314788095517     IErMin=20 ErrMin= 4.24D-07
 ErrMax= 4.24D-07  0.00D+00 EMaxC= 1.00D-01 BMatC= 6.16D-12 BMatP= 1.12D-11
 IDIUse=1 WtCom= 1.00D+00 WtEn= 0.00D+00
 Large coefficients: NSaved= 20 BigCof=    0.00 CofMax=   10.00 Det=-2.90D-15
 Inversion failed.  Reducing to 19 matrices.
 Large coefficients: NSaved= 19 BigCof=    0.00 CofMax=   10.00 Det=-2.94D-15
 Inversion failed.  Reducing to 18 matrices.
 Large coefficients: NSaved= 18 BigCof=    0.00 CofMax=   10.00 Det=-3.07D-15
 Inversion failed.  Reducing to 17 matrices.
 Large coefficients: NSaved= 17 BigCof=    0.00 CofMax=   10.00 Det=-3.57D-15
 Inversion failed.  Reducing to 16 matrices.
 Large coefficients: NSaved= 16 BigCof=    0.00 CofMax=   10.00 Det=-3.60D-15
 Inversion failed.  Reducing to 15 matrices.
 Coeff-Com:  0.191D-05 0.330D-03-0.625D-03 0.201D-03 0.135D-02 0.287D-02
 Coeff-Com: -0.203D-01 0.250D-01 0.492D-02-0.393D+00-0.586D+00 0.101D+01
 Coeff-Com:  0.688D+00-0.498D+01 0.524D+01
 Coeff:      0.191D-05 0.330D-03-0.625D-03 0.201D-03 0.135D-02 0.287D-02
 Coeff:     -0.203D-01 0.250D-01 0.492D-02-0.393D+00-0.586D+00 0.101D+01
 Coeff:      0.688D+00-0.498D+01 0.524D+01
 Gap=     0.092 Goal=   None    Shift=    0.000
 Gap=     0.093 Goal=   None    Shift=    0.000
 RMSDP=7.96D-07 MaxDP=1.84D-05 DE=-5.92D-11 OVMax= 6.37D-05

 Cycle  32  Pass 1  IDiag  1:
 E= -379.307837612258     Delta-E=       -0.000000000241 Rises=F Damp=F
 DIIS: error= 4.20D-07 at cycle  32 NSaved=  16.
 NSaved=16 IEnMin= 1 EnMin= -379.314788095517     IErMin=16 ErrMin= 4.20D-07
 ErrMax= 4.20D-07  0.00D+00 EMaxC= 1.00D-01 BMatC= 6.00D-12 BMatP= 6.16D-12
 IDIUse=1 WtCom= 1.00D+00 WtEn= 0.00D+00
 Large coefficients: NSaved= 16 BigCof=    0.00 CofMax=   10.00 Det=-2.20D-15
 Inversion failed.  Reducing to 15 matrices.
 Coeff-Com: -0.735D-05 0.900D-03-0.791D-03-0.922D-03 0.274D-05 0.915D-02
 Coeff-Com: -0.107D-01 0.236D-01 0.284D-01 0.398D+00-0.569D+00 0.240D+00
 Coeff-Com:  0.233D+01-0.587D+01 0.442D+01
 Coeff:     -0.735D-05 0.900D-03-0.791D-03-0.922D-03 0.274D-05 0.915D-02
 Coeff:     -0.107D-01 0.236D-01 0.284D-01 0.398D+00-0.569D+00 0.240D+00
 Coeff:      0.233D+01-0.587D+01 0.442D+01
 Gap=     0.092 Goal=   None    Shift=    0.000
 Gap=     0.093 Goal=   None    Shift=    0.000
 RMSDP=2.36D-06 MaxDP=5.40D-05 DE=-2.41D-10 OVMax= 1.90D-04

 Cycle  33  Pass 1  IDiag  1:
 E= -379.307837612967     Delta-E=       -0.000000000709 Rises=F Damp=F
 DIIS: error= 4.12D-07 at cycle  33 NSaved=  16.
 NSaved=16 IEnMin= 1 EnMin= -379.314788095517     IErMin=16 ErrMin= 4.12D-07
 ErrMax= 4.12D-07  0.00D+00 EMaxC= 1.00D-01 BMatC= 7.01D-12 BMatP= 6.00D-12
 IDIUse=1 WtCom= 1.00D+00 WtEn= 0.00D+00
 Large coefficients: NSaved= 16 BigCof=    0.00 CofMax=   10.00 Det=-2.42D-15
 Inversion failed.  Reducing to 15 matrices.
 Coeff-Com: -0.875D-06-0.211D-03 0.387D-03-0.752D-03-0.554D-02 0.585D-02
 Coeff-Com:  0.174D-01-0.153D-01 0.127D+00-0.133D+00-0.149D+00 0.632D+00
 Coeff-Com: -0.359D+00-0.509D+00 0.139D+01
 Coeff:     -0.875D-06-0.211D-03 0.387D-03-0.752D-03-0.554D-02 0.585D-02
 Coeff:      0.174D-01-0.153D-01 0.127D+00-0.133D+00-0.149D+00 0.632D+00
 Coeff:     -0.359D+00-0.509D+00 0.139D+01
 Gap=     0.092 Goal=   None    Shift=    0.000
 Gap=     0.093 Goal=   None    Shift=    0.000
 RMSDP=8.56D-07 MaxDP=1.94D-05 DE=-7.09D-10 OVMax= 6.86D-05

 Cycle  34  Pass 1  IDiag  1:
 E= -379.307837613225     Delta-E=       -0.000000000258 Rises=F Damp=F
 DIIS: error= 4.10D-07 at cycle  34 NSaved=  16.
 NSaved=16 IEnMin= 1 EnMin= -379.314788095517     IErMin=16 ErrMin= 4.10D-07
 ErrMax= 4.10D-07  0.00D+00 EMaxC= 1.00D-01 BMatC= 5.51D-12 BMatP= 6.00D-12
 IDIUse=1 WtCom= 1.00D+00 WtEn= 0.00D+00
 Large coefficients: NSaved= 16 BigCof=    0.00 CofMax=   10.00 Det=-1.16D-15
 Inversion failed.  Reducing to 15 matrices.
 Coeff-Com: -0.107D-05-0.153D-03 0.319D-03-0.770D-02 0.778D-02 0.182D-01
 Coeff-Com: -0.283D-01 0.117D+00-0.114D+00-0.109D+00 0.442D+00-0.151D+00
 Coeff-Com: -0.561D+00 0.133D+01 0.544D-01
 Coeff:     -0.107D-05-0.153D-03 0.319D-03-0.770D-02 0.778D-02 0.182D-01
 Coeff:     -0.283D-01 0.117D+00-0.114D+00-0.109D+00 0.442D+00-0.151D+00
 Coeff:     -0.561D+00 0.133D+01 0.544D-01
 Gap=     0.092 Goal=   None    Shift=    0.000
 Gap=     0.093 Goal=   None    Shift=    0.000
 RMSDP=2.17D-08 MaxDP=4.75D-07 DE=-2.58D-10 OVMax= 1.74D-06

 Cycle  35  Pass 1  IDiag  1:
 E= -379.307837613232     Delta-E=       -0.000000000007 Rises=F Damp=F
 DIIS: error= 4.10D-07 at cycle  35 NSaved=  16.
 NSaved=16 IEnMin= 1 EnMin= -379.314788095517     IErMin=16 ErrMin= 4.10D-07
 ErrMax= 4.10D-07  0.00D+00 EMaxC= 1.00D-01 BMatC= 5.53D-12 BMatP= 5.51D-12
 IDIUse=1 WtCom= 1.00D+00 WtEn= 0.00D+00
 Large coefficients: NSaved= 16 BigCof=    0.00 CofMax=   10.00 Det=-9.36D-18
 Inversion failed.  Reducing to 15 matrices.
 Large coefficients: NSaved= 15 BigCof=   20.90 CofMax=   10.00 Det=-2.11D-17
 Inversion failed.  Reducing to 14 matrices.
 Large coefficients: NSaved= 14 BigCof=   19.93 CofMax=   10.00 Det=-2.93D-17
 Inversion failed.  Reducing to 13 matrices.
 Large coefficients: NSaved= 13 BigCof=   18.97 CofMax=   10.00 Det=-3.26D-17
 Inversion failed.  Reducing to 12 matrices.
 Large coefficients: NSaved= 12 BigCof=   18.60 CofMax=   10.00 Det=-3.29D-17
 Inversion failed.  Reducing to 11 matrices.
 Large coefficients: NSaved= 11 BigCof=   18.83 CofMax=   10.00 Det=-3.31D-17
 Inversion failed.  Reducing to 10 matrices.
 Large coefficients: NSaved= 10 BigCof=   17.73 CofMax=   10.00 Det=-3.59D-17
 Inversion failed.  Reducing to  9 matrices.
 Large coefficients: NSaved=  9 BigCof=   15.78 CofMax=   10.00 Det=-3.67D-17
 Inversion failed.  Reducing to  8 matrices.
 Large coefficients: NSaved=  8 BigCof=   14.65 CofMax=   10.00 Det=-3.91D-17
 Inversion failed.  Reducing to  7 matrices.
 Large coefficients: NSaved=  7 BigCof=   14.22 CofMax=   10.00 Det=-4.22D-17
 Inversion failed.  Reducing to  6 matrices.
 Large coefficients: NSaved=  6 BigCof=   14.27 CofMax=   10.00 Det=-4.22D-17
 Inversion failed.  Reducing to  5 matrices.
 Large coefficients: NSaved=  5 BigCof=   14.07 CofMax=   10.00 Det=-4.24D-17
 Inversion failed.  Reducing to  4 matrices.
 Coeff-Com:  0.235D-06 0.601D-05 0.447D+01-0.347D+01
 Coeff:      0.235D-06 0.601D-05 0.447D+01-0.347D+01
 Gap=     0.092 Goal=   None    Shift=    0.000
 Gap=     0.093 Goal=   None    Shift=    0.000
 RMSDP=2.49D-08 MaxDP=3.71D-07 DE=-6.93D-12 OVMax= 2.24D-06

 Cycle  36  Pass 1  IDiag  1:
 E= -379.307837613236     Delta-E=       -0.000000000004 Rises=F Damp=F
 DIIS: error= 4.12D-07 at cycle  36 NSaved=   5.
 NSaved= 5 IEnMin= 1 EnMin= -379.314788095517     IErMin= 4 ErrMin= 4.10D-07
 ErrMax= 4.12D-07  0.00D+00 EMaxC= 1.00D-01 BMatC= 5.52D-12 BMatP= 5.51D-12
 IDIUse=1 WtCom= 1.00D+00 WtEn= 0.00D+00
 Large coefficients: NSaved=  5 BigCof=   10.12 CofMax=   10.00 Det=-2.45D-16
 Inversion failed.  Reducing to  4 matrices.
 Coeff-Com: -0.447D-06-0.509D-04 0.973D+00 0.274D-01
 Coeff:     -0.447D-06-0.509D-04 0.973D+00 0.274D-01
 Gap=     0.092 Goal=   None    Shift=    0.000
 Gap=     0.093 Goal=   None    Shift=    0.000
 RMSDP=9.78D-08 MaxDP=2.11D-06 DE=-3.98D-12 OVMax= 7.81D-06

 Cycle  37  Pass 1  IDiag  1:
 E= -379.307837613266     Delta-E=       -0.000000000030 Rises=F Damp=F
 DIIS: error= 4.12D-07 at cycle  37 NSaved=   5.
 NSaved= 5 IEnMin= 1 EnMin= -379.314788095517     IErMin= 3 ErrMin= 4.10D-07
 ErrMax= 4.12D-07  0.00D+00 EMaxC= 1.00D-01 BMatC= 5.58D-12 BMatP= 5.52D-12
 IDIUse=1 WtCom= 1.00D+00 WtEn= 0.00D+00
 Coeff-Com:  0.149D-05-0.453D-04 0.207D+01-0.242D+01 0.135D+01
 Coeff:      0.149D-05-0.453D-04 0.207D+01-0.242D+01 0.135D+01
 Gap=     0.092 Goal=   None    Shift=    0.000
 Gap=     0.093 Goal=   None    Shift=    0.000
 RMSDP=1.24D-07 MaxDP=3.02D-06 DE=-3.00D-11 OVMax= 9.78D-06

 Cycle  38  Pass 1  IDiag  1:
 E= -379.307837613301     Delta-E=       -0.000000000035 Rises=F Damp=F
 DIIS: error= 4.10D-07 at cycle  38 NSaved=   6.
 NSaved= 6 IEnMin= 1 EnMin= -379.314788095517     IErMin= 6 ErrMin= 4.10D-07
 ErrMax= 4.10D-07  0.00D+00 EMaxC= 1.00D-01 BMatC= 5.76D-12 BMatP= 5.52D-12
 IDIUse=1 WtCom= 1.00D+00 WtEn= 0.00D+00
 Coeff-Com: -0.173D-05 0.746D-05 0.152D+01 0.620D+00-0.285D+01 0.172D+01
 Coeff:     -0.173D-05 0.746D-05 0.152D+01 0.620D+00-0.285D+01 0.172D+01
 Gap=     0.092 Goal=   None    Shift=    0.000
 Gap=     0.093 Goal=   None    Shift=    0.000
 RMSDP=4.07D-08 MaxDP=5.62D-07 DE=-3.53D-11 OVMax= 3.67D-06

 Cycle  39  Pass 1  IDiag  1:
 E= -379.307837613291     Delta-E=        0.000000000010 Rises=F Damp=F
 DIIS: error= 4.08D-07 at cycle  39 NSaved=   7.
 NSaved= 7 IEnMin= 1 EnMin= -379.314788095517     IErMin= 7 ErrMin= 4.08D-07
 ErrMax= 4.08D-07  0.00D+00 EMaxC= 1.00D-01 BMatC= 5.56D-12 BMatP= 5.52D-12
 IDIUse=1 WtCom= 1.00D+00 WtEn= 0.00D+00
 Coeff-Com: -0.169D-05 0.517D-05 0.800D+00 0.785D+00-0.275D+01 0.167D+01
 Coeff-Com:  0.492D+00
 Coeff:     -0.169D-05 0.517D-05 0.800D+00 0.785D+00-0.275D+01 0.167D+01
 Coeff:      0.492D+00
 Gap=     0.092 Goal=   None    Shift=    0.000
 Gap=     0.093 Goal=   None    Shift=    0.000
 RMSDP=1.01D-07 MaxDP=2.22D-06 DE= 1.02D-11 OVMax= 7.94D-06

 Cycle  40  Pass 1  IDiag  1:
 E= -379.307837613321     Delta-E=       -0.000000000030 Rises=F Damp=F
 DIIS: error= 4.07D-07 at cycle  40 NSaved=   8.
 NSaved= 8 IEnMin= 1 EnMin= -379.314788095517     IErMin= 8 ErrMin= 4.07D-07
 ErrMax= 4.07D-07  0.00D+00 EMaxC= 1.00D-01 BMatC= 5.55D-12 BMatP= 5.52D-12
 IDIUse=1 WtCom= 1.00D+00 WtEn= 0.00D+00
 Coeff-Com: -0.155D-05 0.356D-05 0.182D+01-0.944D-01-0.293D+01 0.205D+01
 Coeff-Com:  0.559D+01-0.543D+01
 Coeff:     -0.155D-05 0.356D-05 0.182D+01-0.944D-01-0.293D+01 0.205D+01
 Coeff:      0.559D+01-0.543D+01
 Gap=     0.092 Goal=   None    Shift=    0.000
 Gap=     0.093 Goal=   None    Shift=    0.000
 RMSDP=5.55D-07 MaxDP=1.20D-05 DE=-3.04D-11 OVMax= 4.37D-05

 Cycle  41  Pass 1  IDiag  1:
 E= -379.307837613153     Delta-E=        0.000000000168 Rises=F Damp=F
 DIIS: error= 4.10D-07 at cycle  41 NSaved=   9.
 NSaved= 9 IEnMin= 1 EnMin= -379.314788095517     IErMin= 8 ErrMin= 4.07D-07
 ErrMax= 4.10D-07  0.00D+00 EMaxC= 1.00D-01 BMatC= 5.53D-12 BMatP= 5.52D-12
 IDIUse=1 WtCom= 1.00D+00 WtEn= 0.00D+00
 Coeff-Com: -0.196D-07-0.520D-05-0.365D+01 0.162D+01-0.150D+00 0.488D-01
 Coeff-Com: -0.444D+01 0.395D+01 0.362D+01
 Coeff:     -0.196D-07-0.520D-05-0.365D+01 0.162D+01-0.150D+00 0.488D-01
 Coeff:     -0.444D+01 0.395D+01 0.362D+01
 Gap=     0.092 Goal=   None    Shift=    0.000
 Gap=     0.093 Goal=   None    Shift=    0.000
 RMSDP=2.54D-07 MaxDP=5.50D-06 DE= 1.68D-10 OVMax= 1.96D-05

 Cycle  42  Pass 1  IDiag  1:
 E= -379.307837613077     Delta-E=        0.000000000076 Rises=F Damp=F
 DIIS: error= 4.13D-07 at cycle  42 NSaved=  10.
 NSaved=10 IEnMin= 1 EnMin= -379.314788095517     IErMin= 8 ErrMin= 4.07D-07
 ErrMax= 4.13D-07  0.00D+00 EMaxC= 1.00D-01 BMatC= 5.47D-12 BMatP= 5.52D-12
 IDIUse=1 WtCom= 1.00D+00 WtEn= 0.00D+00
 Coeff-Com:  0.227D-07 0.191D-06-0.773D+00 0.646D-02-0.165D+00 0.196D+00
 Coeff-Com: -0.144D+01 0.178D+01 0.463D+00 0.933D+00
 Coeff:      0.227D-07 0.191D-06-0.773D+00 0.646D-02-0.165D+00 0.196D+00
 Coeff:     -0.144D+01 0.178D+01 0.463D+00 0.933D+00
 Gap=     0.092 Goal=   None    Shift=    0.000
 Gap=     0.093 Goal=   None    Shift=    0.000
 RMSDP=2.97D-07 MaxDP=6.37D-06 DE= 7.63D-11 OVMax= 2.36D-05

 Cycle  43  Pass 1  IDiag  1:
 E= -379.307837613167     Delta-E=       -0.000000000090 Rises=F Damp=F
 DIIS: error= 4.12D-07 at cycle  43 NSaved=  11.
 NSaved=11 IEnMin= 1 EnMin= -379.314788095517     IErMin= 8 ErrMin= 4.07D-07
 ErrMax= 4.12D-07  0.00D+00 EMaxC= 1.00D-01 BMatC= 5.47D-12 BMatP= 5.47D-12
 IDIUse=1 WtCom= 1.00D+00 WtEn= 0.00D+00
 Coeff-Com: -0.148D-07 0.924D-06-0.495D+00-0.988D-01-0.241D+00 0.249D+00
 Coeff-Com: -0.107D+01 0.145D+01 0.281D+00 0.350D+00 0.580D+00
 Coeff:     -0.148D-07 0.924D-06-0.495D+00-0.988D-01-0.241D+00 0.249D+00
 Coeff:     -0.107D+01 0.145D+01 0.281D+00 0.350D+00 0.580D+00
 Gap=     0.092 Goal=   None    Shift=    0.000
 Gap=     0.093 Goal=   None    Shift=    0.000
 RMSDP=1.96D-07 MaxDP=4.19D-06 DE=-8.99D-11 OVMax= 1.55D-05

 Cycle  44  Pass 1  IDiag  1:
 E= -379.307837613227     Delta-E=       -0.000000000060 Rises=F Damp=F
 DIIS: error= 4.12D-07 at cycle  44 NSaved=  12.
 NSaved=12 IEnMin= 1 EnMin= -379.314788095517     IErMin= 8 ErrMin= 4.07D-07
 ErrMax= 4.12D-07  0.00D+00 EMaxC= 1.00D-01 BMatC= 5.47D-12 BMatP= 5.47D-12
 IDIUse=1 WtCom= 1.00D+00 WtEn= 0.00D+00
 Coeff-Com: -0.408D-07 0.125D-05-0.336D+00-0.159D+00-0.274D+00 0.265D+00
 Coeff-Com: -0.904D+00 0.132D+01 0.127D+00 0.258D+00 0.111D+01-0.404D+00
 Coeff:     -0.408D-07 0.125D-05-0.336D+00-0.159D+00-0.274D+00 0.265D+00
 Coeff:     -0.904D+00 0.132D+01 0.127D+00 0.258D+00 0.111D+01-0.404D+00
 Gap=     0.092 Goal=   None    Shift=    0.000
 Gap=     0.093 Goal=   None    Shift=    0.000
 RMSDP=2.48D-08 MaxDP=5.31D-07 DE=-5.97D-11 OVMax= 1.96D-06

 Cycle  45  Pass 1  IDiag  1:
 E= -379.307837613219     Delta-E=        0.000000000008 Rises=F Damp=F
 DIIS: error= 4.12D-07 at cycle  45 NSaved=  13.
 NSaved=13 IEnMin= 1 EnMin= -379.314788095517     IErMin= 8 ErrMin= 4.07D-07
 ErrMax= 4.12D-07  0.00D+00 EMaxC= 1.00D-01 BMatC= 5.47D-12 BMatP= 5.47D-12
 IDIUse=1 WtCom= 1.00D+00 WtEn= 0.00D+00
 Coeff-Com: -0.108D-07 0.705D-07-0.583D+00-0.542D-01-0.147D+00 0.111D+00
 Coeff-Com: -0.121D+01 0.168D+01 0.225D+00 0.795D+00 0.119D+01 0.826D+01
 Coeff-Com: -0.927D+01
 Coeff:     -0.108D-07 0.705D-07-0.583D+00-0.542D-01-0.147D+00 0.111D+00
 Coeff:     -0.121D+01 0.168D+01 0.225D+00 0.795D+00 0.119D+01 0.826D+01
 Coeff:     -0.927D+01
 Gap=     0.092 Goal=   None    Shift=    0.000
 Gap=     0.093 Goal=   None    Shift=    0.000
 RMSDP=4.85D-08 MaxDP=1.05D-06 DE= 7.62D-12 OVMax= 3.91D-06

 Cycle  46  Pass 1  IDiag  1:
 E= -379.307837613204     Delta-E=        0.000000000015 Rises=F Damp=F
 DIIS: error= 4.12D-07 at cycle  46 NSaved=  14.
 NSaved=14 IEnMin= 1 EnMin= -379.314788095517     IErMin= 8 ErrMin= 4.07D-07
 ErrMax= 4.12D-07  0.00D+00 EMaxC= 1.00D-01 BMatC= 5.47D-12 BMatP= 5.47D-12
 IDIUse=1 WtCom= 1.00D+00 WtEn= 0.00D+00
 Large coefficients: NSaved= 14 BigCof=   83.26 CofMax=   10.00 Det=-1.92D-19
 Inversion failed.  Reducing to 13 matrices.
 Large coefficients: NSaved= 13 BigCof=   22.34 CofMax=   10.00 Det=-6.74D-19
 Inversion failed.  Reducing to 12 matrices.
 Large coefficients: NSaved= 12 BigCof=   14.60 CofMax=   10.00 Det=-7.51D-19
 Inversion failed.  Reducing to 11 matrices.
 Large coefficients: NSaved= 11 BigCof=   12.64 CofMax=   10.00 Det=-1.29D-18
 Inversion failed.  Reducing to 10 matrices.
 Coeff-Com:  0.147D-06-0.261D-05 0.932D-01-0.521D+00-0.107D+00 0.214D+00
 Coeff-Com: -0.595D+00 0.978D+00-0.591D+01 0.684D+01
 Coeff:      0.147D-06-0.261D-05 0.932D-01-0.521D+00-0.107D+00 0.214D+00
 Coeff:     -0.595D+00 0.978D+00-0.591D+01 0.684D+01
 Gap=     0.092 Goal=   None    Shift=    0.000
 Gap=     0.093 Goal=   None    Shift=    0.000
 RMSDP=3.48D-08 MaxDP=6.60D-07 DE= 1.48D-11 OVMax= 2.34D-06

 Cycle  47  Pass 1  IDiag  1:
 E= -379.307837613214     Delta-E=       -0.000000000010 Rises=F Damp=F
 DIIS: error= 4.10D-07 at cycle  47 NSaved=  11.
 NSaved=11 IEnMin= 1 EnMin= -379.314788095517     IErMin= 8 ErrMin= 4.07D-07
 ErrMax= 4.10D-07  0.00D+00 EMaxC= 1.00D-01 BMatC= 5.47D-12 BMatP= 5.47D-12
 IDIUse=1 WtCom= 1.00D+00 WtEn= 0.00D+00
 Coeff-Com:  0.144D-06-0.252D-05 0.905D-01-0.519D+00-0.110D+00 0.216D+00
 Coeff-Com: -0.583D+00 0.969D+00-0.578D+01 0.669D+01 0.266D-01
 Coeff:      0.144D-06-0.252D-05 0.905D-01-0.519D+00-0.110D+00 0.216D+00
 Coeff:     -0.583D+00 0.969D+00-0.578D+01 0.669D+01 0.266D-01
 Gap=     0.092 Goal=   None    Shift=    0.000
 Gap=     0.093 Goal=   None    Shift=    0.000
 RMSDP=6.72D-09 MaxDP=1.43D-07 DE=-1.01D-11 OVMax= 5.29D-07

 SCF Done:  E(UM062X) =  -379.307837613     A.U. after   47 cycles
            NFock= 47  Conv=0.67D-08     -V/T= 2.0015
 <Sx>= 0.0000 <Sy>= 0.0000 <Sz>= 0.5000 <S**2>= 0.7563 S= 0.5031
 <L.S>=  0.00000000000    
 KE= 3.787464458354D+02 PE=-9.328782343394D+02 EE= 1.560689372678D+02
 Annihilation of the first spin contaminant:
 S**2 before annihilation     0.7563,   after     0.7500
 Leave Link  502 at Mon Apr 21 19:26:12 2025, MaxMem=   536870912 cpu:             121.5 elap:              16.1
 (Enter /home/szhao/Apps/g16/l601.exe)
 Copying SCF densities to generalized density rwf, IOpCl= 1 IROHF=0.

 **********************************************************************

            Population analysis using the SCF density.

 **********************************************************************

 Alpha  occ. eigenvalues --  -78.34408 -10.96997  -7.15864  -5.27990  -5.27620
 Alpha  occ. eigenvalues --   -5.26631  -1.00311  -0.87288  -0.66094  -0.52803
 Alpha  occ. eigenvalues --   -0.47480
 Alpha virt. eigenvalues --   -0.38286  -0.35113  -0.35032  -0.13247  -0.09988
 Alpha virt. eigenvalues --   -0.08654  -0.08341  -0.06709  -0.05679  -0.05295
 Alpha virt. eigenvalues --   -0.01976   0.01531   0.15666   0.15880   0.16821
 Alpha virt. eigenvalues --    0.23557   0.31261   0.35998   0.36187   0.40413
 Alpha virt. eigenvalues --    0.43357   0.45653   0.45657   0.45749   0.54469
 Alpha virt. eigenvalues --    0.57128   0.88394   0.89114   1.06489   1.07331
 Alpha virt. eigenvalues --    1.29555   1.31533   1.33480   1.36431   1.63336
 Alpha virt. eigenvalues --    1.63909   2.18063   2.30363   2.44037   2.44301
 Alpha virt. eigenvalues --    2.97986   6.49347  13.67653  13.69972  13.71401
 Alpha virt. eigenvalues --   23.28962 162.72533
  Beta  occ. eigenvalues --  -78.33660 -10.96955  -7.15639  -5.27405  -5.26510
  Beta  occ. eigenvalues --   -5.25689  -1.00073  -0.82182  -0.65892  -0.46474
  Beta virt. eigenvalues --   -0.37160  -0.34941  -0.33716  -0.30285  -0.13780
  Beta virt. eigenvalues --   -0.10862  -0.08573  -0.08363  -0.06801  -0.05343
  Beta virt. eigenvalues --   -0.05048  -0.02415   0.01583   0.13331   0.15340
  Beta virt. eigenvalues --    0.15756   0.23575   0.32104   0.36063   0.36084
  Beta virt. eigenvalues --    0.41557   0.47632   0.49837   0.50017   0.52094
  Beta virt. eigenvalues --    0.55211   0.57597   0.88953   0.89791   1.06925
  Beta virt. eigenvalues --    1.07537   1.32353   1.33821   1.36416   1.37019
  Beta virt. eigenvalues --    1.63522   1.64163   2.19387   2.30683   2.44478
  Beta virt. eigenvalues --    2.44890   2.98864   6.50277  13.70623  13.72419
  Beta virt. eigenvalues --   13.72977  23.29097 162.73766
          Condensed to atoms (all electrons):
               1          2          3
     1  C    5.457884   0.050493   0.305652
     2  P    0.050493  14.389343   0.000890
     3  H    0.305652   0.000890   0.438702
          Atomic-Atomic Spin Densities.
               1          2          3
     1  C    0.062465  -0.002126  -0.000493
     2  P   -0.002126   0.945342   0.000004
     3  H   -0.000493   0.000004  -0.002576
 Mulliken charges and spin densities:
               1          2
     1  C    0.185971   0.059846
     2  P    0.559273   0.943220
     3  H    0.254756  -0.003066
 Sum of Mulliken charges =   1.00000   1.00000
 Mulliken charges and spin densities with hydrogens summed into heavy atoms:
               1          2
     1  C    0.440727   0.056780
     2  P    0.559273   0.943220
 Electronic spatial extent (au):  <R**2>=            263.8398
 Charge=              1.0000 electrons
 Dipole moment (field-independent basis, Debye):
    X=             -1.3093    Y=             -0.0000    Z=              0.0000  Tot=              1.3093
 Quadrupole moment (field-independent basis, Debye-Ang):
   XX=              8.2754   YY=            -17.7959   ZZ=            -18.6555
   XY=              0.0000   XZ=              0.0000   YZ=              1.5021
 Traceless Quadrupole moment (field-independent basis, Debye-Ang):
   XX=             17.6674   YY=             -8.4039   ZZ=             -9.2635
   XY=              0.0000   XZ=              0.0000   YZ=              1.5021
 Octapole moment (field-independent basis, Debye-Ang**2):
  XXX=            -34.4912  YYY=              0.0000  ZZZ=             -0.0000  XYY=            -11.7294
  XXY=              0.0000  XXZ=              0.0000  XZZ=            -11.9183  YZZ=              0.0000
  YYZ=             -0.0000  XYZ=              0.3281
 Hexadecapole moment (field-independent basis, Debye-Ang**3):
 XXXX=           -166.5725 YYYY=            -25.5520 ZZZZ=            -28.1481 XXXY=              0.0000
 XXXZ=              0.0000 YYYX=              0.0000 YYYZ=              2.2679 ZZZX=             -0.0000
 ZZZY=              2.2681 XXYY=            -58.3412 XXZZ=            -61.0358 YYZZ=             -8.9502
 XXYZ=              4.7084 YYXZ=             -0.0000 ZZXY=              0.0000
 N-N= 1.875501362299D+01 E-N=-9.328782343381D+02  KE= 3.787464458354D+02
                          Isotropic Fermi Contact Couplings
        Atom                 a.u.       MegaHertz       Gauss      10(-4) cm-1
     1  C(13)              0.00316       3.55256       1.26764       1.18501
     2  P(31)             -0.12422    -224.96597     -80.27345     -75.04057
     3  H(1)              -0.00074      -3.30816      -1.18043      -1.10348
 --------------------------------------------------------
       Center         ----  Spin Dipole Couplings  ----
                      3XX-RR        3YY-RR        3ZZ-RR
 --------------------------------------------------------
     1   Atom       -0.033011      0.000683      0.032329
     2   Atom       -1.729980      1.625465      0.104515
     3   Atom        0.007945     -0.004524     -0.003421
 --------------------------------------------------------
                        XY            XZ            YZ
 --------------------------------------------------------
     1   Atom        0.000000     -0.000000     -0.055271
     2   Atom        0.000000     -0.000000      2.656909
     3   Atom       -0.000000      0.000000     -0.001925
 --------------------------------------------------------


 ---------------------------------------------------------------------------------
              Anisotropic Spin Dipole Couplings in Principal Axis System
 ---------------------------------------------------------------------------------

       Atom             a.u.   MegaHertz   Gauss  10(-4) cm-1        Axes

              Baa    -0.0410    -5.500    -1.962    -1.835  0.0000  0.7985  0.6020
     1 C(13)  Bbb    -0.0330    -4.430    -1.581    -1.478  1.0000 -0.0000  0.0000
              Bcc     0.0740     9.930     3.543     3.312 -0.0000 -0.6020  0.7985
 
              Baa    -1.8986  -410.449  -146.458  -136.911  0.0000 -0.6020  0.7985
     2 P(31)  Bbb    -1.7300  -373.994  -133.450  -124.751  1.0000  0.0000 -0.0000
              Bcc     3.6286   784.442   279.909   261.662 -0.0000  0.7985  0.6020
 
              Baa    -0.0060    -3.188    -1.138    -1.063 -0.0000  0.7985  0.6020
     3 H(1)   Bbb    -0.0020    -1.051    -0.375    -0.351 -0.0000 -0.6020  0.7985
              Bcc     0.0079     4.239     1.513     1.414  1.0000 -0.0000  0.0000
 

 ---------------------------------------------------------------------------------

 No NMR shielding tensors so no spin-rotation constants.
 Leave Link  601 at Mon Apr 21 19:26:12 2025, MaxMem=   536870912 cpu:               1.5 elap:               0.2
 (Enter /home/szhao/Apps/g16/l701.exe)
 ... and contract with generalized density number  0.
 Compute integral first derivatives.
 Leave Link  701 at Mon Apr 21 19:26:12 2025, MaxMem=   536870912 cpu:               1.2 elap:               0.2
 (Enter /home/szhao/Apps/g16/l702.exe)
 L702 exits ... SP integral derivatives will be done elsewhere.
 Leave Link  702 at Mon Apr 21 19:26:13 2025, MaxMem=   536870912 cpu:               0.5 elap:               0.1
 (Enter /home/szhao/Apps/g16/l703.exe)
 Integral derivatives from FoFJK, PRISM(SPDF).
 Compute integral first derivatives, UseDBF=F ICtDFT=           0.
 Calling FoFJK, ICntrl=      2127 FMM=F ISym2X=0 I1Cent= 0 IOpClX= 1 NMat=1 NMatS=1 NMatT=0.
 FoFJK:  IHMeth= 1 ICntrl=    2127 DoSepK=F KAlg= 0 I1Cent=           0 FoldK=F
 IRaf=         0 NMat=       1 IRICut=       1 DoRegI=T DoRafI=F ISym2E= 0 IDoP0=0 IntGTp=1.
 FoFCou: FMM=F IPFlag=           0 FMFlag=      100000 FMFlg1=         800
         NFxFlg=           0 DoJE=F BraDBF=F KetDBF=F FulRan=T
         wScrn=  0.000000 ICntrl=      2127 IOpCl=  1 I1Cent=           0 NGrid=           0
         NMat0=    1 NMatS0=      1 NMatT0=    0 NMatD0=    1 NMtDS0=    0 NMtDT0=    0
 Symmetry not used in FoFCou.
 Leave Link  703 at Mon Apr 21 19:26:13 2025, MaxMem=   536870912 cpu:               5.1 elap:               0.7
 (Enter /home/szhao/Apps/g16/l716.exe)
 Dipole        =-5.15113095D-01-6.42448425D-11 9.71512360D-11
 -------------------------------------------------------------------
 Center     Atomic                   Forces (Hartrees/Bohr)
 Number     Number              X              Y              Z
 -------------------------------------------------------------------
      1        6          -0.000000000   -0.000000000   -0.000000000
      2       15          -0.000000000   -0.000000000   -0.000000000
      3        1          -0.021906836   -0.000000000    0.000000000
 -------------------------------------------------------------------
 Cartesian Forces:  Max     0.021906836 RMS     0.007302279
 Leave Link  716 at Mon Apr 21 19:26:14 2025, MaxMem=   536870912 cpu:               0.8 elap:               0.2
 (Enter /home/szhao/Apps/g16/l103.exe)

 GradGradGradGradGradGradGradGradGradGradGradGradGradGradGradGradGradGrad
 Berny optimization.
 FormGI is forming the generalized inverse of G from B-inverse, IUseBI=4.
 Internal  Forces:  Max     0.021906836 RMS     0.010326981
 Search for a local minimum.
 Step number   1 out of a maximum of   20
 All quantities printed in internal units (Hartrees-Bohrs-Radians)
 RMS Force = .12648D-01 SwitMx=.10000D-02 MixMth= 1
 Mixed Optimization -- RFO/linear search
 Second derivative matrix not updated -- first step.
 The second derivative matrix:
                          X1        Y1        Z1        X2        Y2
           X1           0.50000
           Y1           0.00000   0.50000
           Z1           0.00000   0.00000   0.50000
           X2           0.00000   0.00000   0.00000   0.50000
           Y2           0.00000   0.00000   0.00000   0.00000   0.50000
           Z2           0.00000   0.00000   0.00000   0.00000   0.00000
           R1           0.00000   0.00000   0.00000   0.00000   0.00000
           A1           0.00000   0.00000   0.00000   0.00000   0.00000
           A2           0.00000   0.00000   0.00000   0.00000   0.00000
                          Z2        R1        A1        A2
           Z2           0.50000
           R1           0.00000   0.35426
           A1           0.00000   0.00000   0.00304
           A2           0.00000   0.00000   0.00000   0.00304
 ITU=  0
     Eigenvalues ---    0.00304   0.354261000.000001000.000001000.00000
     Eigenvalues --- 1000.000001000.000001000.000001000.00000
 RFO step:  Lambda=-1.34955429D-03 EMin= 3.04184962D-03
 Linear search not attempted -- first point.
 Iteration  1 RMS(Cart)=  0.02053475 RMS(Int)=  0.00000000
 Iteration  2 RMS(Cart)=  0.00000001 RMS(Int)=  0.00000000
 ITry= 1 IFail=0 DXMaxC= 6.16D-02 DCOld= 1.00D+10 DXMaxT= 3.00D-01 DXLimC= 3.00D+00 Rises=F
 Variable       Old X    -DE/DX   Delta X   Delta X   Delta X     New X
                                 (Linear)    (Quad)   (Total)
    X1       -3.20200  -0.02191   0.00000   0.00000   0.00000  -3.20200
    Y1        0.00000  -0.00000   0.00000   0.00000   0.00000   0.00000
    Z1        0.00000  -0.00000   0.00000   0.00000   0.00000   0.00000
    X2        3.20200  -0.00000   0.00000   0.00000   0.00000   3.20200
    Y2        0.00000   0.00000   0.00000   0.00000   0.00000   0.00000
    Z2        0.00000   0.00000   0.00000   0.00000   0.00000   0.00000
    R1        2.04989   0.02191   0.00000   0.06160   0.06160   2.11150
    A1        3.14159  -0.00000   0.00000  -0.00000   0.00000   3.14159
    A2        3.14159  -0.00000   0.00000  -0.00000   0.00000   3.14159
         Item               Value     Threshold  Converged?
 Maximum Force            0.021907     0.000450     NO 
 RMS     Force            0.012648     0.000300     NO 
 Maximum Displacement     0.061604     0.001800     NO 
 RMS     Displacement     0.020535     0.001200     NO 
 Predicted change in Energy=-6.773379D-04
 Lowest energy point so far.  Saving SCF results.
 GradGradGradGradGradGradGradGradGradGradGradGradGradGradGradGradGradGrad

 Leave Link  103 at Mon Apr 21 19:26:14 2025, MaxMem=   536870912 cpu:               0.8 elap:               0.2
 (Enter /home/szhao/Apps/g16/l202.exe)
                          Input orientation:                          
 ---------------------------------------------------------------------
 Center     Atomic      Atomic             Coordinates (Angstroms)
 Number     Number       Type             X           Y           Z
 ---------------------------------------------------------------------
      1          6           0       -1.694427    0.000000    0.000000
      2         15           0        1.694427    0.000000    0.000000
      3          1           0       -2.811784   -0.000000    0.000000
 ---------------------------------------------------------------------
                    Distance matrix (angstroms):
                    1          2          3
     1  C    0.000000
     2  P    3.388854   0.000000
     3  H    1.117357   4.506211   0.000000
 Symmetry turned off by external request.
 Stoichiometry    CHP(1+,2)
 Framework group  C*V[C*(HCP)]
 Deg. of freedom     2
 Full point group                 C*V     NOp   4
 Rotational constants (GHZ):           0.0000000           4.5200301           4.5200301
 Leave Link  202 at Mon Apr 21 19:26:14 2025, MaxMem=   536870912 cpu:               0.1 elap:               0.1
 (Enter /home/szhao/Apps/g16/l301.exe)
 Standard basis: 6-311+G(d,p) (5D, 7F)
 Ernie: Thresh=  0.10000D-02 Tol=  0.10000D-05 Strict=F.
    58 basis functions,    94 primitive gaussians,    60 cartesian basis functions
    11 alpha electrons       10 beta electrons
       nuclear repulsion energy        18.6567810042 Hartrees.
 IExCor= 4336 DFT=T Ex+Corr=M062X ExCW=0 ScaHFX=  0.540000
 ScaDFX=  1.000000  1.000000  1.000000  1.000000 ScalE2=  1.000000  1.000000
 IRadAn=      7 IRanWt=     -1 IRanGd=            0 ICorTp=0 IEmpDi=  4
 NAtoms=    3 NActive=    3 NUniq=    3 SFac= 1.00D+00 NAtFMM=   60 NAOKFM=F Big=F
 Integral buffers will be    131072 words long.
 Raffenetti 2 integral format.
 Two-electron integral symmetry is turned off.
 Leave Link  301 at Mon Apr 21 19:26:15 2025, MaxMem=   536870912 cpu:               0.6 elap:               0.1
 (Enter /home/szhao/Apps/g16/l302.exe)
 NPDir=0 NMtPBC=     1 NCelOv=     1 NCel=       1 NClECP=     1 NCelD=      1
         NCelK=      1 NCelE2=     1 NClLst=     1 CellRange=     0.0.
 One-electron integrals computed using PRISM.
 NBasis=    58 RedAO= T EigKep=  1.67D-02  NBF=    58
 NBsUse=    58 1.00D-06 EigRej= -1.00D+00 NBFU=    58
 Precomputing XC quadrature grid using
 IXCGrd= 4 IRadAn=           7 IRanWt=          -1 IRanGd=           0 AccXCQ= 0.00D+00.
 Generated NRdTot=       0 NPtTot=           0 NUsed=           0 NTot=          32
 NSgBfM=    59    59    59    59    59 MxSgAt=     3 MxSgA2=     3.
 Leave Link  302 at Mon Apr 21 19:26:15 2025, MaxMem=   536870912 cpu:               1.6 elap:               0.2
 (Enter /home/szhao/Apps/g16/l303.exe)
 DipDrv:  MaxL=1.
 Leave Link  303 at Mon Apr 21 19:26:15 2025, MaxMem=   536870912 cpu:               0.5 elap:               0.1
 (Enter /home/szhao/Apps/g16/l401.exe)
 Initial guess from the checkpoint file:  "opt.chk"
 B after Tr=    -0.002800   -0.000000    0.000000
         Rot=    1.000000   -0.000000   -0.000000   -0.000000 Ang=   0.00 deg.
 Guess basis will be translated and rotated to current coordinates.
 JPrj=2 DoOrth=T DoCkMO=T.
 Initial guess <Sx>= 0.0000 <Sy>= 0.0000 <Sz>= 0.5000 <S**2>= 0.7563 S= 0.5031
 Generating alternative initial guess.
 ExpMin= 3.48D-02 ExpMax= 7.75D+04 ExpMxC= 2.65D+03 IAcc=3 IRadAn=         5 AccDes= 0.00D+00
 Harris functional with IExCor= 1009 and IRadAn=       5 diagonalized for initial guess.
 HarFok:  IExCor= 1009 AccDes= 0.00D+00 IRadAn=         5 IDoV= 1 UseB2=F ITyADJ=14
 ICtDFT=  3500011 ScaDFX=  1.000000  1.000000  1.000000  1.000000
 FoFCou: FMM=F IPFlag=           0 FMFlag=      100000 FMFlg1=           0
         NFxFlg=           0 DoJE=T BraDBF=F KetDBF=T FulRan=T
         wScrn=  0.000000 ICntrl=       500 IOpCl=  0 I1Cent=   200000004 NGrid=           0
         NMat0=    1 NMatS0=      1 NMatT0=    0 NMatD0=    1 NMtDS0=    0 NMtDT0=    0
 Symmetry not used in FoFCou.
 Harris En= -379.276337603742    
 Leave Link  401 at Mon Apr 21 19:26:15 2025, MaxMem=   536870912 cpu:               2.1 elap:               0.3
 (Enter /home/szhao/Apps/g16/l502.exe)
 Keep R1 and R2 ints in memory in canonical form, NReq=10036953.
 FoFCou: FMM=F IPFlag=           0 FMFlag=           0 FMFlg1=           0
         NFxFlg=           0 DoJE=F BraDBF=F KetDBF=F FulRan=T
         wScrn=  0.000000 ICntrl=       600 IOpCl=  0 I1Cent=           0 NGrid=           0
         NMat0=    1 NMatS0=   1711 NMatT0=    0 NMatD0=    1 NMtDS0=    0 NMtDT0=    0
 Symmetry not used in FoFCou.
 Two-electron integral symmetry not used.
 UHF open shell SCF:
 Using DIIS extrapolation, IDIIS=  1040.
 NGot=   536870912 LenX=   533933447 LenY=   533929406
 Requested convergence on RMS density matrix=1.00D-08 within 128 cycles.
 Requested convergence on MAX density matrix=1.00D-06.
 Requested convergence on             energy=1.00D-06.
 No special actions if energy rises.

 Cycle   1  Pass 1  IDiag  1:
 E= -379.308337832096    
 DIIS: error= 2.55D-03 at cycle   1 NSaved=   1.
 NSaved= 1 IEnMin= 1 EnMin= -379.308337832096     IErMin= 1 ErrMin= 2.55D-03
 ErrMax= 2.55D-03  0.00D+00 EMaxC= 1.00D-01 BMatC= 7.32D-04 BMatP= 7.32D-04
 IDIUse=3 WtCom= 9.75D-01 WtEn= 2.55D-02
 Coeff-Com:  0.100D+01
 Coeff-En:   0.100D+01
 Coeff:      0.100D+01
 Gap=     0.407 Goal=   None    Shift=    0.000
 Gap=     0.395 Goal=   None    Shift=    0.000
 GapD=    0.395 DampG=1.000 DampE=1.000 DampFc=1.0000 IDamp=-1.
 RMSDP=2.34D-04 MaxDP=2.85D-03              OVMax= 1.22D-02

 Cycle   2  Pass 1  IDiag  1:
 E= -379.308405846503     Delta-E=       -0.000068014407 Rises=F Damp=F
 DIIS: error= 1.20D-03 at cycle   2 NSaved=   2.
 NSaved= 2 IEnMin= 2 EnMin= -379.308405846503     IErMin= 2 ErrMin= 1.20D-03
 ErrMax= 1.20D-03  0.00D+00 EMaxC= 1.00D-01 BMatC= 2.13D-04 BMatP= 7.32D-04
 IDIUse=3 WtCom= 9.88D-01 WtEn= 1.20D-02
 Coeff-Com:  0.254D+00 0.746D+00
 Coeff-En:   0.232D+00 0.768D+00
 Coeff:      0.254D+00 0.746D+00
 Gap=     0.089 Goal=   None    Shift=    0.000
 Gap=     0.090 Goal=   None    Shift=    0.000
 RMSDP=5.49D-04 MaxDP=1.01D-02 DE=-6.80D-05 OVMax= 3.82D-02

 Cycle   3  Pass 1  IDiag  1:
 E= -379.307695615085     Delta-E=        0.000710231418 Rises=F Damp=F
 DIIS: error= 3.48D-03 at cycle   3 NSaved=   3.
 NSaved= 3 IEnMin= 2 EnMin= -379.308405846503     IErMin= 2 ErrMin= 1.20D-03
 ErrMax= 3.48D-03  0.00D+00 EMaxC= 1.00D-01 BMatC= 1.61D-03 BMatP= 2.13D-04
 IDIUse=3 WtCom= 1.45D-01 WtEn= 8.55D-01
 Coeff-Com: -0.180D-01 0.747D+00 0.271D+00
 Coeff-En:   0.000D+00 0.791D+00 0.209D+00
 Coeff:     -0.262D-02 0.785D+00 0.218D+00
 Gap=     0.091 Goal=   None    Shift=    0.000
 Gap=     0.092 Goal=   None    Shift=    0.000
 RMSDP=2.96D-04 MaxDP=5.72D-03 DE= 7.10D-04 OVMax= 2.14D-02

 Cycle   4  Pass 1  IDiag  1:
 E= -379.308463442119     Delta-E=       -0.000767827034 Rises=F Damp=F
 DIIS: error= 9.26D-04 at cycle   4 NSaved=   4.
 NSaved= 4 IEnMin= 4 EnMin= -379.308463442119     IErMin= 4 ErrMin= 9.26D-04
 ErrMax= 9.26D-04  0.00D+00 EMaxC= 1.00D-01 BMatC= 1.07D-04 BMatP= 2.13D-04
 IDIUse=3 WtCom= 9.91D-01 WtEn= 9.26D-03
 Coeff-Com: -0.104D-01 0.966D-01-0.268D+00 0.118D+01
 Coeff-En:   0.000D+00 0.386D+00 0.000D+00 0.614D+00
 Coeff:     -0.103D-01 0.992D-01-0.266D+00 0.118D+01
 Gap=     0.092 Goal=   None    Shift=    0.000
 Gap=     0.093 Goal=   None    Shift=    0.000
 RMSDP=1.12D-04 MaxDP=2.60D-03 DE=-7.68D-04 OVMax= 9.88D-03

 Cycle   5  Pass 1  IDiag  1:
 E= -379.308522083410     Delta-E=       -0.000058641292 Rises=F Damp=F
 DIIS: error= 1.42D-04 at cycle   5 NSaved=   5.
 NSaved= 5 IEnMin= 5 EnMin= -379.308522083410     IErMin= 5 ErrMin= 1.42D-04
 ErrMax= 1.42D-04  0.00D+00 EMaxC= 1.00D-01 BMatC= 1.27D-06 BMatP= 1.07D-04
 IDIUse=3 WtCom= 9.99D-01 WtEn= 1.42D-03
 Coeff-Com: -0.849D-02 0.775D-01-0.215D+00 0.955D+00 0.191D+00
 Coeff-En:   0.000D+00 0.000D+00 0.000D+00 0.000D+00 0.100D+01
 Coeff:     -0.847D-02 0.774D-01-0.215D+00 0.953D+00 0.192D+00
 Gap=     0.092 Goal=   None    Shift=    0.000
 Gap=     0.093 Goal=   None    Shift=    0.000
 RMSDP=1.42D-05 MaxDP=2.41D-04 DE=-5.86D-05 OVMax= 1.07D-03

 Cycle   6  Pass 1  IDiag  1:
 E= -379.308524341774     Delta-E=       -0.000002258364 Rises=F Damp=F
 DIIS: error= 1.66D-04 at cycle   6 NSaved=   6.
 NSaved= 6 IEnMin= 6 EnMin= -379.308524341774     IErMin= 5 ErrMin= 1.42D-04
 ErrMax= 1.66D-04  0.00D+00 EMaxC= 1.00D-01 BMatC= 1.84D-06 BMatP= 1.27D-06
 IDIUse=3 WtCom= 9.99D-01 WtEn= 1.42D-03
 Coeff-Com: -0.107D-02-0.512D-01-0.687D-01 0.248D+00 0.455D+01-0.367D+01
 Coeff-En:   0.000D+00 0.000D+00 0.000D+00 0.000D+00 0.000D+00 0.100D+01
 Coeff:     -0.107D-02-0.511D-01-0.686D-01 0.248D+00 0.454D+01-0.367D+01
 Gap=     0.092 Goal=   None    Shift=    0.000
 Gap=     0.093 Goal=   None    Shift=    0.000
 RMSDP=6.73D-05 MaxDP=1.21D-03 DE=-2.26D-06 OVMax= 4.89D-03

 Cycle   7  Pass 1  IDiag  1:
 E= -379.308518242673     Delta-E=        0.000006099101 Rises=F Damp=F
 DIIS: error= 8.38D-06 at cycle   7 NSaved=   7.
 NSaved= 7 IEnMin= 6 EnMin= -379.308524341774     IErMin= 7 ErrMin= 8.38D-06
 ErrMax= 8.38D-06  0.00D+00 EMaxC= 1.00D-01 BMatC= 6.81D-09 BMatP= 1.27D-06
 IDIUse=1 WtCom= 1.00D+00 WtEn= 0.00D+00
 Coeff-Com:  0.746D-03-0.114D-01 0.118D-01-0.542D-01 0.433D+00-0.368D+00
 Coeff-Com:  0.988D+00
 Coeff:      0.746D-03-0.114D-01 0.118D-01-0.542D-01 0.433D+00-0.368D+00
 Coeff:      0.988D+00
 Gap=     0.092 Goal=   None    Shift=    0.000
 Gap=     0.093 Goal=   None    Shift=    0.000
 RMSDP=2.87D-06 MaxDP=5.58D-05 DE= 6.10D-06 OVMax= 2.20D-04

 Cycle   8  Pass 1  IDiag  1:
 E= -379.308518234773     Delta-E=        0.000000007900 Rises=F Damp=F
 DIIS: error= 1.26D-06 at cycle   8 NSaved=   8.
 NSaved= 8 IEnMin= 6 EnMin= -379.308524341774     IErMin= 8 ErrMin= 1.26D-06
 ErrMax= 1.26D-06  0.00D+00 EMaxC= 1.00D-01 BMatC= 1.72D-10 BMatP= 6.81D-09
 IDIUse=1 WtCom= 1.00D+00 WtEn= 0.00D+00
 Coeff-Com:  0.118D-03-0.899D-03 0.241D-02-0.109D-01-0.171D-01 0.108D-01
 Coeff-Com:  0.140D+00 0.875D+00
 Coeff:      0.118D-03-0.899D-03 0.241D-02-0.109D-01-0.171D-01 0.108D-01
 Coeff:      0.140D+00 0.875D+00
 Gap=     0.092 Goal=   None    Shift=    0.000
 Gap=     0.093 Goal=   None    Shift=    0.000
 RMSDP=1.95D-07 MaxDP=3.56D-06 DE= 7.90D-09 OVMax= 1.17D-05

 Cycle   9  Pass 1  IDiag  1:
 E= -379.308518234903     Delta-E=       -0.000000000131 Rises=F Damp=F
 DIIS: error= 4.37D-07 at cycle   9 NSaved=   9.
 NSaved= 9 IEnMin= 6 EnMin= -379.308524341774     IErMin= 9 ErrMin= 4.37D-07
 ErrMax= 4.37D-07  0.00D+00 EMaxC= 1.00D-01 BMatC= 3.50D-11 BMatP= 1.72D-10
 IDIUse=1 WtCom= 1.00D+00 WtEn= 0.00D+00
 Coeff-Com: -0.660D-04 0.102D-02-0.760D-03 0.389D-02-0.444D-01 0.371D-01
 Coeff-Com: -0.755D-01-0.369D-01 0.112D+01
 Coeff:     -0.660D-04 0.102D-02-0.760D-03 0.389D-02-0.444D-01 0.371D-01
 Coeff:     -0.755D-01-0.369D-01 0.112D+01
 Gap=     0.092 Goal=   None    Shift=    0.000
 Gap=     0.093 Goal=   None    Shift=    0.000
 RMSDP=1.77D-07 MaxDP=3.44D-06 DE=-1.31D-10 OVMax= 1.11D-05

 Cycle  10  Pass 1  IDiag  1:
 E= -379.308518234986     Delta-E=       -0.000000000083 Rises=F Damp=F
 DIIS: error= 4.39D-07 at cycle  10 NSaved=  10.
 NSaved=10 IEnMin= 6 EnMin= -379.308524341774     IErMin= 9 ErrMin= 4.37D-07
 ErrMax= 4.39D-07  0.00D+00 EMaxC= 1.00D-01 BMatC= 1.53D-11 BMatP= 3.50D-11
 IDIUse=1 WtCom= 1.00D+00 WtEn= 0.00D+00
 Coeff-Com:  0.304D-04-0.708D-03 0.301D-04-0.469D-03 0.431D-01-0.355D-01
 Coeff-Com:  0.373D-01-0.232D+00-0.826D+00 0.201D+01
 Coeff:      0.304D-04-0.708D-03 0.301D-04-0.469D-03 0.431D-01-0.355D-01
 Coeff:      0.373D-01-0.232D+00-0.826D+00 0.201D+01
 Gap=     0.092 Goal=   None    Shift=    0.000
 Gap=     0.093 Goal=   None    Shift=    0.000
 RMSDP=2.97D-07 MaxDP=5.07D-06 DE=-8.28D-11 OVMax= 2.17D-05

 Cycle  11  Pass 1  IDiag  1:
 E= -379.308518235093     Delta-E=       -0.000000000106 Rises=F Damp=F
 DIIS: error= 4.43D-07 at cycle  11 NSaved=  11.
 NSaved=11 IEnMin= 6 EnMin= -379.308524341774     IErMin= 9 ErrMin= 4.37D-07
 ErrMax= 4.43D-07  0.00D+00 EMaxC= 1.00D-01 BMatC= 6.98D-12 BMatP= 1.53D-11
 IDIUse=1 WtCom= 1.00D+00 WtEn= 0.00D+00
 Coeff-Com:  0.990D-06 0.470D-04 0.621D-05-0.113D-03-0.534D-02 0.434D-02
 Coeff-Com: -0.615D-03 0.650D-01 0.317D-01-0.470D+00 0.137D+01
 Coeff:      0.990D-06 0.470D-04 0.621D-05-0.113D-03-0.534D-02 0.434D-02
 Coeff:     -0.615D-03 0.650D-01 0.317D-01-0.470D+00 0.137D+01
 Gap=     0.092 Goal=   None    Shift=    0.000
 Gap=     0.093 Goal=   None    Shift=    0.000
 RMSDP=1.96D-07 MaxDP=3.86D-06 DE=-1.06D-10 OVMax= 1.60D-05

 Cycle  12  Pass 1  IDiag  1:
 E= -379.308518235156     Delta-E=       -0.000000000064 Rises=F Damp=F
 DIIS: error= 4.46D-07 at cycle  12 NSaved=  12.
 NSaved=12 IEnMin= 6 EnMin= -379.308524341774     IErMin= 9 ErrMin= 4.37D-07
 ErrMax= 4.46D-07  0.00D+00 EMaxC= 1.00D-01 BMatC= 6.28D-12 BMatP= 6.98D-12
 IDIUse=1 WtCom= 1.00D+00 WtEn= 0.00D+00
 Coeff-Com: -0.189D-05 0.359D-04 0.262D-04-0.497D-04-0.149D-02 0.129D-02
 Coeff-Com: -0.237D-02 0.518D-02 0.584D-01-0.669D-01-0.278D+00 0.128D+01
 Coeff:     -0.189D-05 0.359D-04 0.262D-04-0.497D-04-0.149D-02 0.129D-02
 Coeff:     -0.237D-02 0.518D-02 0.584D-01-0.669D-01-0.278D+00 0.128D+01
 Gap=     0.092 Goal=   None    Shift=    0.000
[...]
 E= -379.308520018337     Delta-E=        0.000000000013 Rises=F Damp=F
 DIIS: error= 9.17D-08 at cycle  16 NSaved=  16.
 NSaved=16 IEnMin= 6 EnMin= -379.308520024909     IErMin=16 ErrMin= 9.17D-08
 ErrMax= 9.17D-08  0.00D+00 EMaxC= 1.00D-01 BMatC= 2.43D-13 BMatP= 1.02D-12
 IDIUse=1 WtCom= 1.00D+00 WtEn= 0.00D+00
 Large coefficients: NSaved= 16 BigCof=    0.00 CofMax=   10.00 Det=-8.34D-16
 Inversion failed.  Reducing to 15 matrices.
 Coeff-Com:  0.712D-04-0.214D-03-0.213D-02 0.714D-02 0.746D-03-0.396D-01
 Coeff-Com:  0.533D+00 0.440D+00-0.316D+01-0.156D+01 0.619D+01-0.500D+00
 Coeff-Com:  0.176D+01-0.504D+01 0.238D+01
 Coeff:      0.712D-04-0.214D-03-0.213D-02 0.714D-02 0.746D-03-0.396D-01
 Coeff:      0.533D+00 0.440D+00-0.316D+01-0.156D+01 0.619D+01-0.500D+00
 Coeff:      0.176D+01-0.504D+01 0.238D+01
 Gap=     0.092 Goal=   None    Shift=    0.000
 Gap=     0.093 Goal=   None    Shift=    0.000
 RMSDP=1.79D-07 MaxDP=4.00D-06 DE= 1.28D-11 OVMax= 1.86D-05

 Cycle  17  Pass 1  IDiag  1:
 E= -379.308520018337     Delta-E=       -0.000000000001 Rises=F Damp=F
 DIIS: error= 2.46D-08 at cycle  17 NSaved=  16.
 NSaved=16 IEnMin= 5 EnMin= -379.308520024909     IErMin=16 ErrMin= 2.46D-08
 ErrMax= 2.46D-08  0.00D+00 EMaxC= 1.00D-01 BMatC= 4.04D-14 BMatP= 2.43D-13
 IDIUse=1 WtCom= 1.00D+00 WtEn= 0.00D+00
 Large coefficients: NSaved= 16 BigCof=    0.00 CofMax=   10.00 Det=-5.16D-16
 Inversion failed.  Reducing to 15 matrices.
 Coeff-Com: -0.173D-03 0.374D-03-0.108D-02-0.174D-02 0.171D-01-0.731D-01
 Coeff-Com: -0.240D+00 0.891D+00 0.390D+00-0.163D+01 0.381D+00-0.655D+00
 Coeff-Com:  0.134D+01-0.923D+00 0.150D+01
 Coeff:     -0.173D-03 0.374D-03-0.108D-02-0.174D-02 0.171D-01-0.731D-01
 Coeff:     -0.240D+00 0.891D+00 0.390D+00-0.163D+01 0.381D+00-0.655D+00
 Coeff:      0.134D+01-0.923D+00 0.150D+01
 Gap=     0.092 Goal=   None    Shift=    0.000
 Gap=     0.093 Goal=   None    Shift=    0.000
 RMSDP=2.66D-08 MaxDP=5.89D-07 DE=-6.82D-13 OVMax= 2.80D-06

 Cycle  18  Pass 1  IDiag  1:
 E= -379.308520018338     Delta-E=       -0.000000000000 Rises=F Damp=F
 DIIS: error= 2.54D-08 at cycle  18 NSaved=  16.
 NSaved=16 IEnMin= 4 EnMin= -379.308520024909     IErMin=15 ErrMin= 2.46D-08
 ErrMax= 2.54D-08  0.00D+00 EMaxC= 1.00D-01 BMatC= 2.20D-14 BMatP= 4.04D-14
 IDIUse=1 WtCom= 1.00D+00 WtEn= 0.00D+00
 Large coefficients: NSaved= 16 BigCof=    0.00 CofMax=   10.00 Det=-3.48D-16
 Inversion failed.  Reducing to 15 matrices.
 Coeff-Com: -0.113D-03 0.108D-02-0.635D-03 0.392D-03-0.621D-02 0.781D-02
 Coeff-Com:  0.316D-02-0.166D-01 0.324D-01-0.952D-01 0.728D-01-0.169D-01
 Coeff-Com:  0.786D-01-0.324D+00 0.126D+01
 Coeff:     -0.113D-03 0.108D-02-0.635D-03 0.392D-03-0.621D-02 0.781D-02
 Coeff:      0.316D-02-0.166D-01 0.324D-01-0.952D-01 0.728D-01-0.169D-01
 Coeff:      0.786D-01-0.324D+00 0.126D+01
 Gap=     0.092 Goal=   None    Shift=    0.000
 Gap=     0.093 Goal=   None    Shift=    0.000
 RMSDP=8.93D-09 MaxDP=1.46D-07 DE=-2.27D-13 OVMax= 7.50D-07

 SCF Done:  E(UM062X) =  -379.308520018     A.U. after   18 cycles
            NFock= 18  Conv=0.89D-08     -V/T= 2.0016
 <Sx>= 0.0000 <Sy>= 0.0000 <Sz>= 0.5000 <S**2>= 0.7563 S= 0.5032
 <L.S>=  0.00000000000    
 KE= 3.787056188585D+02 PE=-9.326616826984D+02 EE= 1.559949037741D+02
 Annihilation of the first spin contaminant:
 S**2 before annihilation     0.7563,   after     0.7500
 Leave Link  502 at Mon Apr 21 19:26:31 2025, MaxMem=   536870912 cpu:              46.7 elap:               6.1
 (Enter /home/szhao/Apps/g16/l701.exe)
 ... and contract with generalized density number  0.
 Compute integral first derivatives.
 Leave Link  701 at Mon Apr 21 19:26:32 2025, MaxMem=   536870912 cpu:               1.1 elap:               0.2
 (Enter /home/szhao/Apps/g16/l702.exe)
 L702 exits ... SP integral derivatives will be done elsewhere.
 Leave Link  702 at Mon Apr 21 19:26:32 2025, MaxMem=   536870912 cpu:               0.3 elap:               0.1
 (Enter /home/szhao/Apps/g16/l703.exe)
 Integral derivatives from FoFJK, PRISM(SPDF).
 Compute integral first derivatives, UseDBF=F ICtDFT=           0.
 Calling FoFJK, ICntrl=      2127 FMM=F ISym2X=0 I1Cent= 0 IOpClX= 1 NMat=1 NMatS=1 NMatT=0.
 FoFJK:  IHMeth= 1 ICntrl=    2127 DoSepK=F KAlg= 0 I1Cent=           0 FoldK=F
 IRaf=         0 NMat=       1 IRICut=       1 DoRegI=T DoRafI=F ISym2E= 0 IDoP0=0 IntGTp=1.
 FoFCou: FMM=F IPFlag=           0 FMFlag=      100000 FMFlg1=         800
         NFxFlg=           0 DoJE=F BraDBF=F KetDBF=F FulRan=T
         wScrn=  0.000000 ICntrl=      2127 IOpCl=  1 I1Cent=           0 NGrid=           0
         NMat0=    1 NMatS0=      1 NMatT0=    0 NMatD0=    1 NMtDS0=    0 NMtDT0=    0
 Symmetry not used in FoFCou.
 Leave Link  703 at Mon Apr 21 19:26:32 2025, MaxMem=   536870912 cpu:               5.0 elap:               0.6
 (Enter /home/szhao/Apps/g16/l716.exe)
 Dipole        =-5.31144314D-01 1.08355626D-08 3.43183684D-07
 -------------------------------------------------------------------
 Center     Atomic                   Forces (Hartrees/Bohr)
 Number     Number              X              Y              Z
 -------------------------------------------------------------------
      1        6          -0.000000000   -0.000000000   -0.000000000
      2       15          -0.000000000   -0.000000000   -0.000000000
      3        1          -0.000000243    0.000000004   -0.000000004
 -------------------------------------------------------------------
 Cartesian Forces:  Max     0.000000243 RMS     0.000000081
 Leave Link  716 at Mon Apr 21 19:26:33 2025, MaxMem=   536870912 cpu:               0.3 elap:               0.1
 (Enter /home/szhao/Apps/g16/l103.exe)

 GradGradGradGradGradGradGradGradGradGradGradGradGradGradGradGradGradGrad
 Berny optimization.
 Using GEDIIS/GDIIS optimizer.
 FormGI is forming the generalized inverse of G from B-inverse, IUseBI=4.
 Internal  Forces:  Max     0.000000243 RMS     0.000000115
 Search for a local minimum.
 Step number   3 out of a maximum of   20
 All quantities printed in internal units (Hartrees-Bohrs-Radians)
 RMS Force = .14027D-06 SwitMx=.10000D-02 MixMth= 2
 Mixed Optimization -- En-DIIS/RFO-DIIS
 Swapping is turned off.
 Update second derivatives using D2CorX and points    1    2    3
 DE= -1.78D-06 DEPred=-9.92D-07 R= 1.80D+00
 TightC=F SS=  1.41D+00  RLast= 2.67D-03 DXNew= 5.0454D-01 8.0103D-03
 Trust test= 1.80D+00 RLast= 2.67D-03 DXMaxT set to 3.00D-01
 The second derivative matrix:
                          X1        Y1        Z1        X2        Y2
           X1           0.81015
           Y1           0.00000   0.50000
           Z1          -0.00000  -0.00000   0.50000
           X2          -0.00000  -0.00000   0.00000   0.50000
           Y2          -0.00000  -0.00000   0.00000   0.00000   0.50000
           Z2           0.00000   0.00000  -0.00000  -0.00000  -0.00000
           R1          -0.31015  -0.00000   0.00000   0.00000   0.00000
           A1           0.00000   0.00000  -0.00000  -0.00000  -0.00000
           A2           0.00000   0.00000  -0.00000  -0.00000  -0.00000
                          Z2        R1        A1        A2
           Z2           0.50000
           R1          -0.00000   0.31015
           A1           0.00000  -0.00000   0.00304
           A2           0.00000  -0.00000   0.00000   0.00304
 ITU=  1  1  0
     Eigenvalues ---    0.00304   0.310151000.000001000.000001000.00000
     Eigenvalues --- 1000.000001000.000001000.000001000.00000
 En-DIIS/RFO-DIIS/Sim-DIIS IScMMF=       -3 using points:     3    2
 RFO step:  Lambda=-1.66885181D-13.
 NNeg= 0 NGDIIS= 2 SimSw=  2.50D-03 Rises=F DC= -1.78D-06 SmlDif=  1.00D-05
 NRisDI= 0 DoIntr=F SqrtH=F CThrHd= 10.0 CDAdj=  3.0
 RMS Error=  0.1069801507D-05 NUsed= 2 OKEnD=F EnDIS=F
 InvSVX:  RCond= 1.78D-06 Info=           0 Equed=N FErr=  8.89D-16 BErr=  6.31D-17
 DidBck=F Rises=F RFO-DIIS coefs:    1.00029   -0.00029
 Iteration  1 RMS(Cart)=  0.00000221 RMS(Int)=  0.00000000
 Iteration  2 RMS(Cart)=  0.00000000 RMS(Int)=  0.00000000
 ITry= 1 IFail=0 DXMaxC= 6.59D-06 DCOld= 1.00D+10 DXMaxT= 3.00D-01 DXLimC= 3.00D+00 Rises=F
 Variable       Old X    -DE/DX   Delta X   Delta X   Delta X     New X
                                 (Linear)    (Quad)   (Total)
    X1       -3.20200  -0.00000   0.00000   0.00000   0.00000  -3.20200
    Y1        0.00000   0.00000   0.00000   0.00000   0.00000   0.00000
    Z1        0.00000   0.00000   0.00000   0.00000   0.00000   0.00000
    X2        3.20200  -0.00000   0.00000   0.00000   0.00000   3.20200
    Y2        0.00000  -0.00000   0.00000   0.00000   0.00000   0.00000
    Z2        0.00000  -0.00000   0.00000   0.00000   0.00000   0.00000
    R1        2.11417   0.00000   0.00000   0.00000   0.00000   2.11417
    A1        3.14159   0.00000  -0.00000   0.00000   0.00000   3.14159
    A2        3.14159   0.00000   0.00000   0.00000   0.00000   3.14160
         Item               Value     Threshold  Converged?
 Maximum Force            0.000000     0.000450     YES
 RMS     Force            0.000000     0.000300     YES
 Maximum Displacement     0.000007     0.001800     YES
 RMS     Displacement     0.000002     0.001200     YES
 Predicted change in Energy=-1.097443D-13
 Optimization completed.
    -- Stationary point found.
                           ----------------------------
                           !   Optimized Parameters   !
                           ! (Angstroms and Degrees)  !
 --------------------------                            --------------------------
 ! Name  Definition              Value          Derivative Info.                !
 --------------------------------------------------------------------------------
 ! X1    R(1,-1)                -1.6944         -DE/DX =    0.0                 !
 ! Y1    R(1,-2)                 0.0            -DE/DX =    0.0                 !
 ! Z1    R(1,-3)                 0.0            -DE/DX =    0.0                 !
 ! X2    R(2,-1)                 1.6944         -DE/DX =    0.0                 !
 ! Y2    R(2,-2)                 0.0            -DE/DX =    0.0                 !
 ! Z2    R(2,-3)                 0.0            -DE/DX =    0.0                 !
 ! R1    R(1,3)                  1.1188         -DE/DX =    0.0                 !
 ! A1    L(2,1,3,-2,-1)        180.0            -DE/DX =    0.0                 !
 ! A2    L(2,1,3,-3,-2)        180.0            -DE/DX =    0.0                 !
 --------------------------------------------------------------------------------
 Lowest energy point so far.  Saving SCF results.
 Largest change from initial coordinates is atom    3       0.034 Angstoms.
 GradGradGradGradGradGradGradGradGradGradGradGradGradGradGradGradGradGrad

 Leave Link  103 at Mon Apr 21 19:26:33 2025, MaxMem=   536870912 cpu:               1.1 elap:               0.2
 (Enter /home/szhao/Apps/g16/l202.exe)
                          Input orientation:                          
 ---------------------------------------------------------------------
 Center     Atomic      Atomic             Coordinates (Angstroms)
 Number     Number       Type             X           Y           Z
 ---------------------------------------------------------------------
      1          6           0       -1.694427    0.000000    0.000000
      2         15           0        1.694427    0.000000    0.000000
      3          1           0       -2.813197   -0.000000    0.000001
 ---------------------------------------------------------------------
                    Distance matrix (angstroms):
                    1          2          3
     1  C    0.000000
     2  P    3.388854   0.000000
     3  H    1.118770   4.507624   0.000000
 Symmetry turned off by external request.
 Stoichiometry    CHP(1+,2)
 Framework group  C*V[C*(HCP)]
 Deg. of freedom     2
 Full point group                 C*V     NOp   4
 Rotational constants (GHZ):           0.0000000           4.5196295           4.5196295
 Leave Link  202 at Mon Apr 21 19:26:33 2025, MaxMem=   536870912 cpu:               0.1 elap:               0.1
 (Enter /home/szhao/Apps/g16/l601.exe)
 Copying SCF densities to generalized density rwf, IOpCl= 1 IROHF=0.

 **********************************************************************

            Population analysis using the SCF density.

 **********************************************************************

 Alpha  occ. eigenvalues --  -78.34353 -10.97294  -7.15811  -5.27937  -5.27568
 Alpha  occ. eigenvalues --   -5.26577  -0.99389  -0.87246  -0.65905  -0.52768
 Alpha  occ. eigenvalues --   -0.47452
 Alpha virt. eigenvalues --   -0.38251  -0.35096  -0.35051  -0.13344  -0.09982
 Alpha virt. eigenvalues --   -0.08655  -0.08340  -0.06810  -0.05686  -0.05301
 Alpha virt. eigenvalues --   -0.02178   0.00849   0.15679   0.15894   0.16869
 Alpha virt. eigenvalues --    0.23960   0.30752   0.35945   0.36133   0.39902
 Alpha virt. eigenvalues --    0.43394   0.45672   0.45699   0.45793   0.54484
 Alpha virt. eigenvalues --    0.56331   0.88062   0.88740   1.06484   1.07319
 Alpha virt. eigenvalues --    1.29590   1.30971   1.33516   1.35668   1.60884
 Alpha virt. eigenvalues --    1.61449   2.16741   2.28368   2.43642   2.44021
 Alpha virt. eigenvalues --    2.95459   6.49360  13.67705  13.70023  13.71456
 Alpha virt. eigenvalues --   23.23860 162.72550
  Beta  occ. eigenvalues --  -78.33606 -10.97251  -7.15586  -5.27354  -5.26457
  Beta  occ. eigenvalues --   -5.25638  -0.99142  -0.82143  -0.65705  -0.46450
  Beta virt. eigenvalues --   -0.37128  -0.34966  -0.33702  -0.30256  -0.13854
  Beta virt. eigenvalues --   -0.10880  -0.08583  -0.08363  -0.06891  -0.05348
  Beta virt. eigenvalues --   -0.05055  -0.02567   0.00819   0.13345   0.15357
  Beta virt. eigenvalues --    0.15789   0.24008   0.31557   0.36007   0.36033
  Beta virt. eigenvalues --    0.41014   0.47670   0.49872   0.50057   0.52133
  Beta virt. eigenvalues --    0.55142   0.56875   0.88568   0.89361   1.06915
  Beta virt. eigenvalues --    1.07530   1.31602   1.33850   1.36444   1.36464
  Beta virt. eigenvalues --    1.61064   1.61697   2.17887   2.28644   2.44204
  Beta virt. eigenvalues --    2.44494   2.96100   6.50291  13.70673  13.72473
  Beta virt. eigenvalues --   13.73027  23.23979 162.73783
          Condensed to atoms (all electrons):
               1          2          3
     1  C    5.464282   0.050450   0.301344
     2  P    0.050450  14.392055   0.000962
     3  H    0.301344   0.000962   0.438152
          Atomic-Atomic Spin Densities.
               1          2          3
     1  C    0.062722  -0.002126  -0.000477
     2  P   -0.002126   0.945076   0.000009
     3  H   -0.000477   0.000009  -0.002611
 Mulliken charges and spin densities:
               1          2
     1  C    0.183924   0.060120
     2  P    0.556533   0.942959
     3  H    0.259542  -0.003079
 Sum of Mulliken charges =   1.00000   1.00000
 Mulliken charges and spin densities with hydrogens summed into heavy atoms:
               1          2
     1  C    0.443467   0.057041
     2  P    0.556533   0.942959
 Electronic spatial extent (au):  <R**2>=            264.5148
 Charge=              1.0000 electrons
 Dipole moment (field-independent basis, Debye):
    X=             -1.3500    Y=              0.0000    Z=              0.0000  Tot=              1.3500
 Quadrupole moment (field-independent basis, Debye-Ang):
   XX=              8.3567   YY=            -19.5126   ZZ=            -17.0143
   XY=              0.0000   XZ=             -0.0000   YZ=             -0.9418
 Traceless Quadrupole moment (field-independent basis, Debye-Ang):
   XX=             17.7468   YY=            -10.1225   ZZ=             -7.6243
   XY=              0.0000   XZ=             -0.0000   YZ=             -0.9418
 Octapole moment (field-independent basis, Debye-Ang**2):
  XXX=            -35.0326  YYY=             -0.0000  ZZZ=             -0.0000  XYY=            -12.0256
  XXY=              0.0000  XXZ=              0.0000  XZZ=            -11.4585  YZZ=             -0.0000
  YYZ=             -0.0000  XYZ=             -0.2138
 Hexadecapole moment (field-independent basis, Debye-Ang**3):
 XXXX=           -165.2049 YYYY=            -30.6927 ZZZZ=            -23.1390 XXXY=              0.0000
 XXXZ=             -0.0000 YYYX=              0.0000 YYYZ=             -1.4239 ZZZX=              0.0000
 ZZZY=             -1.4236 XXYY=            -64.0023 XXZZ=            -56.1719 YYZZ=             -8.9719
 XXYZ=             -2.9519 YYXZ=              0.0000 ZZXY=              0.0000
 N-N= 1.865264004753D+01 E-N=-9.326616826874D+02  KE= 3.787056188585D+02
                          Isotropic Fermi Contact Couplings
        Atom                 a.u.       MegaHertz       Gauss      10(-4) cm-1
     1  C(13)              0.00301       3.38706       1.20859       1.12980
     2  P(31)             -0.12414    -224.82731     -80.22397     -74.99432
     3  H(1)              -0.00081      -3.60010      -1.28461      -1.20086
 --------------------------------------------------------
       Center         ----  Spin Dipole Couplings  ----
                      3XX-RR        3YY-RR        3ZZ-RR
 --------------------------------------------------------
     1   Atom       -0.032886      0.062569     -0.029684
     2   Atom       -1.728622     -1.341906      3.070528
     3   Atom        0.007792     -0.002463     -0.005329
 --------------------------------------------------------
                        XY            XZ            YZ
 --------------------------------------------------------
     1   Atom        0.000000      0.000000      0.034802
     2   Atom        0.000000     -0.000000     -1.663401
     3   Atom        0.000000     -0.000000      0.001081
 --------------------------------------------------------


 ---------------------------------------------------------------------------------
              Anisotropic Spin Dipole Couplings in Principal Axis System
 ---------------------------------------------------------------------------------

       Atom             a.u.   MegaHertz   Gauss  10(-4) cm-1        Axes

              Baa    -0.0413    -5.547    -1.979    -1.850 -0.0000 -0.3176  0.9482
     1 C(13)  Bbb    -0.0329    -4.413    -1.575    -1.472  1.0000 -0.0000  0.0000
              Bcc     0.0742     9.960     3.554     3.322  0.0000  0.9482  0.3176
 
              Baa    -1.8987  -410.471  -146.466  -136.918 -0.0000  0.9483  0.3174
     2 P(31)  Bbb    -1.7286  -373.700  -133.345  -124.653  1.0000  0.0000  0.0000
              Bcc     3.6273   784.171   279.812   261.571 -0.0000 -0.3174  0.9483
 
              Baa    -0.0057    -3.037    -1.084    -1.013  0.0000 -0.3176  0.9482
     3 H(1)   Bbb    -0.0021    -1.121    -0.400    -0.374  0.0000  0.9482  0.3176
              Bcc     0.0078     4.158     1.484     1.387  1.0000  0.0000 -0.0000
 

 ---------------------------------------------------------------------------------

 No NMR shielding tensors so no spin-rotation constants.
 Leave Link  601 at Mon Apr 21 19:26:33 2025, MaxMem=   536870912 cpu:               1.7 elap:               0.3
 (Enter /home/szhao/Apps/g16/l9999.exe)
 1\1\GINC-NODE06\FOpt\UM062X\6-311+G(d,p)\C1H1P1(1+,2)\SZHAO\21-Apr-202
 5\0\\#p opt UM062X/6-311+G** nosymm int=superfine\\Title Card Required
 \\1,2\C,-1.694427,0.,0.\P,1.694427,0.,0.\H,-2.8131965239,-0.0000000026
 ,0.000000533\\Version=ES64L-G16RevA.03\HF=-379.30852\S2=0.756333\S2-1=
 0.\S2A=0.750019\RMSD=8.932e-09\RMSF=8.094e-08\Dipole=-1.5994105,0.,0.0
 000003\Quadrupole=13.1943081,-7.5258328,-5.6684753,0.0000005,-0.000000
 8,-0.7001819\PG=C*V [C*(H1C1P1)]\\@


 Just remember, when you're over the hill, you begin to pick up speed.
 -- Charles Schulz
 Job cpu time:       0 days  0 hours  4 minutes 23.1 seconds.
 Elapsed time:       0 days  0 hours  0 minutes 36.1 seconds.
 File lengths (MBytes):  RWF=     17 Int=      0 D2E=      0 Chk=      2 Scr=      2
 Normal termination of Gaussian 16 at Mon Apr 21 19:26:34 2025.
