 Entering Gaussian System, Link 0=g16
 Initial command:
 /home/szhao/Apps/g16/l1.exe "/home/szhao/tmp/Gau-57777.inp" -scrdir="/home/szhao/tmp/"
 Default is to use a total of  16 processors:
                               16 via shared-memory
                                1 via Linda
 Entering Link 1 = /home/szhao/Apps/g16/l1.exe PID=     57778.
  
 Copyright (c) 1988,1990,1992,1993,1995,1998,2003,2009,2016,
            Gaussian, Inc.  All Rights Reserved.
  
 This is part of the Gaussian(R) 16 program.  It is based on
 the Gaussian(R) 09 system (copyright 2009, Gaussian, Inc.),
 the Gaussian(R) 03 system (copyright 2003, Gaussian, Inc.),
 the Gaussian(R) 98 system (copyright 1998, Gaussian, Inc.),
 the Gaussian(R) 94 system (copyright 1995, Gaussian, Inc.),
 the Gaussian 92(TM) system (copyright 1992, Gaussian, Inc.),
 the Gaussian 90(TM) system (copyright 1990, Gaussian, Inc.),
 the Gaussian 88(TM) system (copyright 1988, Gaussian, Inc.),
 the Gaussian 86(TM) system (copyright 1986, Carnegie Mellon
 University), and the Gaussian 82(TM) system (copyright 1983,
 Carnegie Mellon University). Gaussian is a federally registered
 trademark of Gaussian, Inc.
  
 This software contains proprietary and confidential information,
 including trade secrets, belonging to Gaussian, Inc.
  
 This software is provided under written license and may be
 used, copied, transmitted, or stored only in accord with that
 written license.
  
 The following legend is applicable only to US Government
 contracts under FAR:
  
                    RESTRICTED RIGHTS LEGEND
  
 Use, reproduction and disclosure by the US Government is
 subject to restrictions as set forth in subparagraphs (a)
 and (c) of the Commercial Computer Software - Restricted
 Rights clause in FAR 52.227-19.
  
 Gaussian, Inc.
 340 Quinnipiac St., Bldg. 40, Wallingford CT 06492
  
  
 ---------------------------------------------------------------
 Warning -- This program may not be used in any manner that
 competes with the business of Gaussian, Inc. or will provide
 assistance to any competitor of Gaussian, Inc.  The licensee
 of this program is prohibited from giving any competitor of
 Gaussian, Inc. access to this program.  By using this program,
 the user acknowledges that Gaussian, Inc. is engaged in the
 business of creating and licensing software in the field of
 computational chemistry and represents and warrants to the
 licensee that it is not a competitor of Gaussian, Inc. and that
 it will not use this program in any manner prohibited above.
 ---------------------------------------------------------------
  

 Cite this work as:
 Gaussian 16, Revision A.03,
 M. J. Frisch, G. W. Trucks, H. B. Schlegel, G. E. Scuseria, 
 M. A. Robb, J. R. Cheeseman, G. Scalmani, V. Barone, 
 G. A. Petersson, H. Nakatsuji, X. Li, M. Caricato, A. V. Marenich, 
 J. Bloino, B. G. Janesko, R. Gomperts, B. Mennucci, H. P. Hratchian, 
 J. V. Ortiz, A. F. Izmaylov, J. L. Sonnenberg, D. Williams-Young, 
 F. Ding, F. Lipparini, F. Egidi, J. Goings, B. Peng, A. Petrone, 
 T. Henderson, D. Ranasinghe, V. G. Zakrzewski, J. Gao, N. Rega, 
 G. Zheng, W. Liang, M. Hada, M. Ehara, K. Toyota, R. Fukuda, 
 J. Hasegawa, M. Ishida, T. Nakajima, Y. Honda, O. Kitao, H. Nakai, 
 T. Vreven, K. Throssell, J. A. Montgomery, Jr., J. E. Peralta, 
 F. Ogliaro, M. J. Bearpark, J. J. Heyd, E. N. Brothers, K. N. Kudin, 
 V. N. Staroverov, T. A. Keith, R. Kobayashi, J. Normand, 
 K. Raghavachari, A. P. Rendell, J. C. Burant, S. S. Iyengar, 
 J. Tomasi, M. Cossi, J. M. Millam, M. Klene, C. Adamo, R. Cammi, 
 J. W. Ochterski, R. L. Martin, K. Morokuma, O. Farkas, 
 J. B. Foresman, and D. J. Fox, Gaussian, Inc., Wallingford CT, 2016.
 
 ******************************************
 Gaussian 16:  ES64L-G16RevA.03 25-Dec-2016
                 3-Dec-2024 
 ******************************************
 %chk=opt.chk
 %mem=16GB
 %nprocshared=24
 Will use up to   24 processors via shared memory.
 ---------------------------------------------------------
 #p opt UM062X/6-311+G** nosymm int=superfine SCF=NoVarAcc
 ---------------------------------------------------------
 1/18=20,19=15,26=5,38=1/1,3;
 2/9=110,12=2,15=1,17=6,18=5,40=1/2;
 3/5=4,6=6,7=111,11=2,25=1,30=1,71=1,74=-55,75=-7,116=2/1,2,3;
 4//1;
 5/5=2,38=1/2;
 6/7=2,8=2,9=2,10=2,28=1/1;
 7/30=1/1,2,3,16;
 1/18=20,19=15,26=5/3(2);
 2/9=110,15=1/2;
 99//99;
 2/9=110,15=1/2;
 3/5=4,6=6,7=111,11=2,25=1,30=1,71=1,74=-55,75=-7,116=2/1,2,3;
 4/5=5,16=3,69=1/1;
 5/5=2,38=1/2;
 7/30=1/1,2,3,16;
 1/18=20,19=15,26=5/3(-5);
 2/9=110,15=1/2;
 6/7=2,8=2,9=2,10=2,19=2,28=1/1;
 99/9=1/99;
 Leave Link    1 at Tue Dec  3 13:21:34 2024, MaxMem=  2147483648 cpu:               1.2 elap:               0.1
 (Enter /home/szhao/Apps/g16/l101.exe)
 -------------------
 Title Card Required
 -------------------
 Symbolic Z-matrix:
 Charge =  1 Multiplicity = 2
 C                    -1   -1.18103   0.        0. 
 C                    -1    1.18103   0.        0. 
 H                    0    -1.61441  -0.99488   0. 
 H                    0    -1.6143    0.99481   0. 
 H                    0     1.61441   0.99488   0. 
 H                    0     1.6143   -0.99481   0. 
 
 Add virtual bond connecting atoms C2         and C1         Dist= 4.46D+00.
 ITRead=  2  2  0  0  0  0
 MicOpt= -2 -2 -1 -1 -1 -1
 NAtoms=      6 NQM=        4 NQMF=       2 NMMI=      0 NMMIF=      0
                NMic=       0 NMicF=      0.
                    Isotopes and Nuclear Properties:
 (Nuclear quadrupole moments (NQMom) in fm**2, nuclear magnetic moments (NMagM)
  in nuclear magnetons)

  Atom         1           2           3           4           5           6
 IAtWgt=          12          12           1           1           1           1
 AtmWgt=  12.0000000  12.0000000   1.0078250   1.0078250   1.0078250   1.0078250
 NucSpn=           0           0           1           1           1           1
 AtZEff=  -0.0000000  -0.0000000  -0.0000000  -0.0000000  -0.0000000  -0.0000000
 NQMom=    0.0000000   0.0000000   0.0000000   0.0000000   0.0000000   0.0000000
 NMagM=    0.0000000   0.0000000   2.7928460   2.7928460   2.7928460   2.7928460
 AtZNuc=   6.0000000   6.0000000   1.0000000   1.0000000   1.0000000   1.0000000
 Leave Link  101 at Tue Dec  3 13:21:35 2024, MaxMem=  2147483648 cpu:              16.2 elap:               0.7
 (Enter /home/szhao/Apps/g16/l103.exe)

 GradGradGradGradGradGradGradGradGradGradGradGradGradGradGradGradGradGrad
 Berny optimization.
 Initialization pass.
                           ----------------------------
                           !    Initial Parameters    !
                           ! (Angstroms and Degrees)  !
 --------------------------                            --------------------------
 ! Name  Definition              Value          Derivative Info.                !
 --------------------------------------------------------------------------------
 ! X1    R(1,-1)                -1.181          Frozen                          !
 ! Y1    R(1,-2)                 0.0            Frozen                          !
 ! Z1    R(1,-3)                 0.0            Frozen                          !
 ! X2    R(2,-1)                 1.181          Frozen                          !
 ! Y2    R(2,-2)                 0.0            Frozen                          !
 ! Z2    R(2,-3)                 0.0            Frozen                          !
 ! R1    R(1,3)                  1.0852         estimate D2E/DX2                !
 ! R2    R(1,4)                  1.0851         estimate D2E/DX2                !
 ! R3    R(2,5)                  1.0852         estimate D2E/DX2                !
 ! R4    R(2,6)                  1.0851         estimate D2E/DX2                !
 ! A1    A(2,1,3)              113.5387         estimate D2E/DX2                !
 ! A2    A(2,1,4)              113.5347         estimate D2E/DX2                !
 ! A3    A(3,1,4)              132.9266         estimate D2E/DX2                !
 ! A4    A(1,2,5)              113.5387         estimate D2E/DX2                !
 ! A5    A(1,2,6)              113.5347         estimate D2E/DX2                !
 ! A6    A(5,2,6)              132.9266         estimate D2E/DX2                !
 ! D1    D(3,1,2,5)            180.0            estimate D2E/DX2                !
 ! D2    D(3,1,2,6)              0.0            estimate D2E/DX2                !
 ! D3    D(4,1,2,5)              0.0            estimate D2E/DX2                !
 ! D4    D(4,1,2,6)            180.0            estimate D2E/DX2                !
 --------------------------------------------------------------------------------
 Trust Radius=3.00D-01 FncErr=1.00D-07 GrdErr=1.00D-07 EigMax=2.50D+02 EigMin=1.00D-04
 Number of steps in this run=     30 maximum allowed number of steps=    100.
 GradGradGradGradGradGradGradGradGradGradGradGradGradGradGradGradGradGrad

 Leave Link  103 at Tue Dec  3 13:21:35 2024, MaxMem=  2147483648 cpu:               0.3 elap:               0.0
 (Enter /home/szhao/Apps/g16/l202.exe)
                          Input orientation:                          
 ---------------------------------------------------------------------
 Center     Atomic      Atomic             Coordinates (Angstroms)
 Number     Number       Type             X           Y           Z
 ---------------------------------------------------------------------
      1          6           0       -1.181027    0.000000    0.000000
      2          6           0        1.181027    0.000000    0.000000
      3          1           0       -1.614411   -0.994876    0.000000
      4          1           0       -1.614300    0.994812    0.000000
      5          1           0        1.614411    0.994876    0.000000
      6          1           0        1.614300   -0.994812    0.000000
 ---------------------------------------------------------------------
                    Distance matrix (angstroms):
                    1          2          3          4          5
     1  C    0.000000
     2  C    2.362054   0.000000
     3  H    1.085173   2.967196   0.000000
     4  H    1.085070   2.967070   1.989688   0.000000
     5  H    2.967196   1.085173   3.792678   3.228711   0.000000
     6  H    2.967070   1.085070   3.228711   3.792422   1.989688
                    6
     6  H    0.000000
 Symmetry turned off by external request.
 Stoichiometry    C2H4(1+,2)
 Framework group  C2H[SGH(C2H4)]
 Deg. of freedom     5
 Full point group                 C2H     NOp   4
 Rotational constants (GHZ):         126.6665947          11.4906024          10.5349233
 Leave Link  202 at Tue Dec  3 13:21:35 2024, MaxMem=  2147483648 cpu:               0.1 elap:               0.0
 (Enter /home/szhao/Apps/g16/l301.exe)
 Standard basis: 6-311+G(d,p) (5D, 7F)
 Ernie: Thresh=  0.10000D-02 Tol=  0.10000D-05 Strict=F.
    68 basis functions,   104 primitive gaussians,    70 cartesian basis functions
     8 alpha electrons        7 beta electrons
       nuclear repulsion energy        25.1882569205 Hartrees.
 IExCor= 4336 DFT=T Ex+Corr=M062X ExCW=0 ScaHFX=  0.540000
 ScaDFX=  1.000000  1.000000  1.000000  1.000000 ScalE2=  1.000000  1.000000
 IRadAn=      7 IRanWt=     -1 IRanGd=            0 ICorTp=0 IEmpDi=  4
 NAtoms=    6 NActive=    6 NUniq=    6 SFac= 1.00D+00 NAtFMM=   60 NAOKFM=F Big=F
 Integral buffers will be    131072 words long.
 Raffenetti 2 integral format.
 Two-electron integral symmetry is turned off.
 Leave Link  301 at Tue Dec  3 13:21:35 2024, MaxMem=  2147483648 cpu:               1.2 elap:               0.1
 (Enter /home/szhao/Apps/g16/l302.exe)
 NPDir=0 NMtPBC=     1 NCelOv=     1 NCel=       1 NClECP=     1 NCelD=      1
         NCelK=      1 NCelE2=     1 NClLst=     1 CellRange=     0.0.
 One-electron integrals computed using PRISM.
 NBasis=    68 RedAO= T EigKep=  2.99D-03  NBF=    68
 NBsUse=    68 1.00D-06 EigRej= -1.00D+00 NBFU=    68
 Precomputing XC quadrature grid using
 IXCGrd= 4 IRadAn=           7 IRanWt=          -1 IRanGd=           0 AccXCQ= 0.00D+00.
 Generated NRdTot=       0 NPtTot=           0 NUsed=           0 NTot=          32
 NSgBfM=    70    70    70    70    70 MxSgAt=     6 MxSgA2=     6.
 Leave Link  302 at Tue Dec  3 13:21:35 2024, MaxMem=  2147483648 cpu:               3.5 elap:               0.2
 (Enter /home/szhao/Apps/g16/l303.exe)
 DipDrv:  MaxL=1.
 Leave Link  303 at Tue Dec  3 13:21:35 2024, MaxMem=  2147483648 cpu:               0.9 elap:               0.1
 (Enter /home/szhao/Apps/g16/l401.exe)
 ExpMin= 4.38D-02 ExpMax= 4.56D+03 ExpMxC= 6.82D+02 IAcc=3 IRadAn=         7 AccDes= 0.00D+00
 Harris functional with IExCor= 1009 and IRadAn=       7 diagonalized for initial guess.
 HarFok:  IExCor= 1009 AccDes= 0.00D+00 IRadAn=         7 IDoV= 1 UseB2=F ITyADJ=14
 ICtDFT=  3500011 ScaDFX=  1.000000  1.000000  1.000000  1.000000
 FoFCou: FMM=F IPFlag=           0 FMFlag=      100000 FMFlg1=           0
         NFxFlg=           0 DoJE=T BraDBF=F KetDBF=T FulRan=T
         wScrn=  0.000000 ICntrl=       500 IOpCl=  0 I1Cent=   200000004 NGrid=           0
         NMat0=    1 NMatS0=      1 NMatT0=    0 NMatD0=    1 NMtDS0=    0 NMtDT0=    0
 Symmetry not used in FoFCou.
 Harris En= -78.0177542423731    
 JPrj=0 DoOrth=F DoCkMO=F.
 Initial guess <Sx>= 0.0000 <Sy>= 0.0000 <Sz>= 0.5000 <S**2>= 0.7500 S= 0.5000
 Leave Link  401 at Tue Dec  3 13:21:36 2024, MaxMem=  2147483648 cpu:               5.8 elap:               0.3
 (Enter /home/szhao/Apps/g16/l502.exe)
 Keep R1 and R2 ints in memory in canonical form, NReq=27031774.
 FoFCou: FMM=F IPFlag=           0 FMFlag=           0 FMFlg1=           0
         NFxFlg=           0 DoJE=F BraDBF=F KetDBF=F FulRan=T
         wScrn=  0.000000 ICntrl=       600 IOpCl=  0 I1Cent=           0 NGrid=           0
         NMat0=    1 NMatS0=   2346 NMatT0=    0 NMatD0=    1 NMtDS0=    0 NMtDT0=    0
 Symmetry not used in FoFCou.
 Two-electron integral symmetry not used.
 UHF open shell SCF:
 Using DIIS extrapolation, IDIIS=  1040.
 NGot=  2147483648 LenX=  2141965410 LenY=  2141960069
 Requested convergence on RMS density matrix=1.00D-08 within 128 cycles.
 Requested convergence on MAX density matrix=1.00D-06.
 Requested convergence on             energy=1.00D-06.
 No special actions if energy rises.

 Cycle   1  Pass 1  IDiag  1:
 E= -77.9810351063027    
 DIIS: error= 1.74D-02 at cycle   1 NSaved=   1.
 NSaved= 1 IEnMin= 1 EnMin= -77.9810351063027     IErMin= 1 ErrMin= 1.74D-02
 ErrMax= 1.74D-02  0.00D+00 EMaxC= 1.00D-01 BMatC= 5.47D-02 BMatP= 5.47D-02
 IDIUse=3 WtCom= 8.26D-01 WtEn= 1.74D-01
 Coeff-Com:  0.100D+01
 Coeff-En:   0.100D+01
 Coeff:      0.100D+01
 Gap=     0.153 Goal=   None    Shift=    0.000
 Gap=     0.279 Goal=   None    Shift=    0.000
 GapD=    0.153 DampG=1.000 DampE=0.500 DampFc=0.5000 IDamp=-1.
 Damping current iteration by 5.00D-01
 RMSDP=1.26D-03 MaxDP=1.43D-02              OVMax= 3.40D-02

 Cycle   2  Pass 1  IDiag  1:
 E= -77.9848988735640     Delta-E=       -0.003863767261 Rises=F Damp=T
 DIIS: error= 8.46D-03 at cycle   2 NSaved=   2.
 NSaved= 2 IEnMin= 2 EnMin= -77.9848988735640     IErMin= 2 ErrMin= 8.46D-03
 ErrMax= 8.46D-03  0.00D+00 EMaxC= 1.00D-01 BMatC= 1.29D-02 BMatP= 5.47D-02
 IDIUse=3 WtCom= 9.15D-01 WtEn= 8.46D-02
 Coeff-Com: -0.886D+00 0.189D+01
 Coeff-En:   0.000D+00 0.100D+01
 Coeff:     -0.811D+00 0.181D+01
 Gap=     0.153 Goal=   None    Shift=    0.000
 Gap=     0.268 Goal=   None    Shift=    0.000
 RMSDP=5.94D-04 MaxDP=8.26D-03 DE=-3.86D-03 OVMax= 1.11D-02

 Cycle   3  Pass 1  IDiag  1:
 E= -77.9887297086240     Delta-E=       -0.003830835060 Rises=F Damp=F
 DIIS: error= 1.39D-03 at cycle   3 NSaved=   3.
 NSaved= 3 IEnMin= 3 EnMin= -77.9887297086240     IErMin= 3 ErrMin= 1.39D-03
 ErrMax= 1.39D-03  0.00D+00 EMaxC= 1.00D-01 BMatC= 1.43D-04 BMatP= 1.29D-02
 IDIUse=3 WtCom= 9.86D-01 WtEn= 1.39D-02
 Coeff-Com: -0.207D+00 0.404D+00 0.803D+00
 Coeff-En:   0.000D+00 0.000D+00 0.100D+01
 Coeff:     -0.204D+00 0.399D+00 0.806D+00
 Gap=     0.153 Goal=   None    Shift=    0.000
 Gap=     0.269 Goal=   None    Shift=    0.000
 RMSDP=6.79D-05 MaxDP=2.13D-03 DE=-3.83D-03 OVMax= 2.43D-03

 Cycle   4  Pass 1  IDiag  1:
 E= -77.9887711148903     Delta-E=       -0.000041406266 Rises=F Damp=F
 DIIS: error= 3.45D-04 at cycle   4 NSaved=   4.
 NSaved= 4 IEnMin= 4 EnMin= -77.9887711148903     IErMin= 4 ErrMin= 3.45D-04
 ErrMax= 3.45D-04  0.00D+00 EMaxC= 1.00D-01 BMatC= 8.68D-06 BMatP= 1.43D-04
 IDIUse=3 WtCom= 9.97D-01 WtEn= 3.45D-03
 Coeff-Com:  0.275D-01-0.623D-01 0.111D-01 0.102D+01
 Coeff-En:   0.000D+00 0.000D+00 0.000D+00 0.100D+01
 Coeff:      0.274D-01-0.621D-01 0.110D-01 0.102D+01
 Gap=     0.153 Goal=   None    Shift=    0.000
 Gap=     0.269 Goal=   None    Shift=    0.000
 RMSDP=2.64D-05 MaxDP=9.54D-04 DE=-4.14D-05 OVMax= 1.04D-03

 Cycle   5  Pass 1  IDiag  1:
 E= -77.9887752952411     Delta-E=       -0.000004180351 Rises=F Damp=F
 DIIS: error= 1.38D-04 at cycle   5 NSaved=   5.
 NSaved= 5 IEnMin= 5 EnMin= -77.9887752952411     IErMin= 5 ErrMin= 1.38D-04
 ErrMax= 1.38D-04  0.00D+00 EMaxC= 1.00D-01 BMatC= 1.25D-06 BMatP= 8.68D-06
 IDIUse=3 WtCom= 9.99D-01 WtEn= 1.38D-03
 Coeff-Com:  0.279D-01-0.547D-01-0.105D+00 0.984D-01 0.103D+01
 Coeff-En:   0.000D+00 0.000D+00 0.000D+00 0.000D+00 0.100D+01
 Coeff:      0.278D-01-0.546D-01-0.105D+00 0.983D-01 0.103D+01
 Gap=     0.153 Goal=   None    Shift=    0.000
 Gap=     0.269 Goal=   None    Shift=    0.000
 RMSDP=1.11D-05 MaxDP=3.09D-04 DE=-4.18D-06 OVMax= 3.45D-04

 Cycle   6  Pass 1  IDiag  1:
 E= -77.9887759459098     Delta-E=       -0.000000650669 Rises=F Damp=F
 DIIS: error= 3.13D-05 at cycle   6 NSaved=   6.
 NSaved= 6 IEnMin= 6 EnMin= -77.9887759459098     IErMin= 6 ErrMin= 3.13D-05
 ErrMax= 3.13D-05  0.00D+00 EMaxC= 1.00D-01 BMatC= 4.87D-08 BMatP= 1.25D-06
 IDIUse=1 WtCom= 1.00D+00 WtEn= 0.00D+00
 Coeff-Com: -0.689D-02 0.141D-01 0.245D-01-0.848D-01-0.234D+00 0.129D+01
 Coeff:     -0.689D-02 0.141D-01 0.245D-01-0.848D-01-0.234D+00 0.129D+01
 Gap=     0.153 Goal=   None    Shift=    0.000
 Gap=     0.269 Goal=   None    Shift=    0.000
 RMSDP=2.76D-06 MaxDP=6.49D-05 DE=-6.51D-07 OVMax= 9.36D-05

 Cycle   7  Pass 1  IDiag  1:
 E= -77.9887759763373     Delta-E=       -0.000000030427 Rises=F Damp=F
 DIIS: error= 3.16D-06 at cycle   7 NSaved=   7.
 NSaved= 7 IEnMin= 7 EnMin= -77.9887759763373     IErMin= 7 ErrMin= 3.16D-06
 ErrMax= 3.16D-06  0.00D+00 EMaxC= 1.00D-01 BMatC= 4.27D-10 BMatP= 4.87D-08
 IDIUse=1 WtCom= 1.00D+00 WtEn= 0.00D+00
 Coeff-Com:  0.396D-03-0.836D-03-0.705D-03 0.700D-02 0.116D-01-0.152D+00
 Coeff-Com:  0.113D+01
 Coeff:      0.396D-03-0.836D-03-0.705D-03 0.700D-02 0.116D-01-0.152D+00
 Coeff:      0.113D+01
 Gap=     0.153 Goal=   None    Shift=    0.000
 Gap=     0.269 Goal=   None    Shift=    0.000
 RMSDP=2.04D-07 MaxDP=3.60D-06 DE=-3.04D-08 OVMax= 8.77D-06

 Cycle   8  Pass 1  IDiag  1:
 E= -77.9887759766028     Delta-E=       -0.000000000265 Rises=F Damp=F
 DIIS: error= 3.12D-07 at cycle   8 NSaved=   8.
 NSaved= 8 IEnMin= 8 EnMin= -77.9887759766028     IErMin= 8 ErrMin= 3.12D-07
 ErrMax= 3.12D-07  0.00D+00 EMaxC= 1.00D-01 BMatC= 9.70D-12 BMatP= 4.27D-10
 IDIUse=1 WtCom= 1.00D+00 WtEn= 0.00D+00
 Coeff-Com: -0.121D-05 0.864D-05-0.614D-04-0.344D-03-0.505D-03 0.150D-01
 Coeff-Com: -0.245D+00 0.123D+01
 Coeff:     -0.121D-05 0.864D-05-0.614D-04-0.344D-03-0.505D-03 0.150D-01
 Coeff:     -0.245D+00 0.123D+01
 Gap=     0.153 Goal=   None    Shift=    0.000
 Gap=     0.269 Goal=   None    Shift=    0.000
 RMSDP=3.57D-08 MaxDP=5.84D-07 DE=-2.65D-10 OVMax= 1.91D-06

 Cycle   9  Pass 1  IDiag  1:
 E= -77.9887759766105     Delta-E=       -0.000000000008 Rises=F Damp=F
 DIIS: error= 6.34D-08 at cycle   9 NSaved=   9.
 NSaved= 9 IEnMin= 9 EnMin= -77.9887759766105     IErMin= 9 ErrMin= 6.34D-08
 ErrMax= 6.34D-08  0.00D+00 EMaxC= 1.00D-01 BMatC= 2.01D-13 BMatP= 9.70D-12
 IDIUse=1 WtCom= 1.00D+00 WtEn= 0.00D+00
 Coeff-Com: -0.818D-05 0.156D-04 0.213D-04-0.444D-04-0.104D-03-0.590D-03
 Coeff-Com:  0.364D-01-0.296D+00 0.126D+01
 Coeff:     -0.818D-05 0.156D-04 0.213D-04-0.444D-04-0.104D-03-0.590D-03
 Coeff:      0.364D-01-0.296D+00 0.126D+01
 Gap=     0.153 Goal=   None    Shift=    0.000
 Gap=     0.269 Goal=   None    Shift=    0.000
 RMSDP=5.89D-09 MaxDP=8.53D-08 DE=-7.70D-12 OVMax= 3.39D-07

 SCF Done:  E(UM062X) =  -77.9887759766     A.U. after    9 cycles
            NFock=  9  Conv=0.59D-08     -V/T= 2.0098
 <Sx>= 0.0000 <Sy>= 0.0000 <Sz>= 0.5000 <S**2>= 0.7522 S= 0.5011
 <L.S>=  0.00000000000    
 KE= 7.723044375241D+01 PE=-2.263108631193D+02 EE= 4.590338646986D+01
 Annihilation of the first spin contaminant:
 S**2 before annihilation     0.7522,   after     0.7500
 Leave Link  502 at Tue Dec  3 13:21:39 2024, MaxMem=  2147483648 cpu:              70.5 elap:               3.1
 (Enter /home/szhao/Apps/g16/l601.exe)
 Copying SCF densities to generalized density rwf, IOpCl= 1 IROHF=0.

 **********************************************************************

            Population analysis using the SCF density.

 **********************************************************************

 Alpha  occ. eigenvalues --  -10.92415 -10.92406  -1.04396  -1.00737  -0.79864
 Alpha  occ. eigenvalues --   -0.78287  -0.62188  -0.53498
 Alpha virt. eigenvalues --   -0.38210  -0.30986  -0.13723  -0.10821  -0.10455
 Alpha virt. eigenvalues --   -0.08014  -0.07549  -0.06783  -0.04721  -0.03578
 Alpha virt. eigenvalues --   -0.03573   0.00177   0.01822   0.09146   0.18121
 Alpha virt. eigenvalues --    0.22477   0.24005   0.32030   0.38305   0.41105
 Alpha virt. eigenvalues --    0.41458   0.41538   0.45491   0.47441   0.52316
 Alpha virt. eigenvalues --    0.56123   0.80530   0.81154   0.90088   0.93344
 Alpha virt. eigenvalues --    1.08962   1.12416   1.14130   1.25449   1.25850
 Alpha virt. eigenvalues --    1.39911   1.47401   1.47750   1.53430   1.57359
 Alpha virt. eigenvalues --    1.66232   1.73358   1.76116   1.77746   2.12438
 Alpha virt. eigenvalues --    2.25139   2.25921   2.33448   2.37763   2.39063
 Alpha virt. eigenvalues --    2.39877   2.41193   2.45719   2.46420   2.60514
 Alpha virt. eigenvalues --    2.79800   3.40503   3.43460  23.49161  23.51287
  Beta  occ. eigenvalues --  -10.92165 -10.92160  -1.01510  -0.98387  -0.79421
  Beta  occ. eigenvalues --   -0.77922  -0.60473
  Beta virt. eigenvalues --   -0.33582  -0.28866  -0.28767  -0.14878  -0.11070
  Beta virt. eigenvalues --   -0.10642  -0.07416  -0.07368  -0.07058  -0.03787
  Beta virt. eigenvalues --   -0.03734  -0.03092   0.00654   0.00799   0.10077
  Beta virt. eigenvalues --    0.18173   0.22805   0.24454   0.33487   0.37393
  Beta virt. eigenvalues --    0.40160   0.41942   0.42705   0.47085   0.48652
  Beta virt. eigenvalues --    0.53188   0.56467   0.83595   0.84027   0.93669
  Beta virt. eigenvalues --    0.96262   1.11223   1.14122   1.15209   1.28082
  Beta virt. eigenvalues --    1.28760   1.43553   1.48873   1.49177   1.54633
  Beta virt. eigenvalues --    1.58470   1.67453   1.74412   1.77690   1.79266
  Beta virt. eigenvalues --    2.15917   2.28087   2.28652   2.34947   2.39071
  Beta virt. eigenvalues --    2.40411   2.43766   2.45933   2.50118   2.50532
  Beta virt. eigenvalues --    2.62710   2.82592   3.44849   3.47868  23.50398
  Beta virt. eigenvalues --   23.52554
          Condensed to atoms (all electrons):
               1          2          3          4          5          6
     1  C    5.067364   0.289015   0.364886   0.364901  -0.009804  -0.009807
     2  C    0.289015   5.067364  -0.009804  -0.009807   0.364886   0.364901
     3  H    0.364886  -0.009804   0.368749  -0.007886   0.000182   0.000585
     4  H    0.364901  -0.009807  -0.007886   0.368756   0.000585   0.000183
     5  H   -0.009804   0.364886   0.000182   0.000585   0.368749  -0.007886
     6  H   -0.009807   0.364901   0.000585   0.000183  -0.007886   0.368756
          Atomic-Atomic Spin Densities.
               1          2          3          4          5          6
     1  C    0.511118   0.040378  -0.005472  -0.005472   0.000677   0.000676
     2  C    0.040378   0.511118   0.000677   0.000676  -0.005472  -0.005472
     3  H   -0.005472   0.000677  -0.016273   0.000202  -0.000015  -0.000072
     4  H   -0.005472   0.000676   0.000202  -0.016272  -0.000072  -0.000015
     5  H    0.000677  -0.005472  -0.000015  -0.000072  -0.016273   0.000202
     6  H    0.000676  -0.005472  -0.000072  -0.000015   0.000202  -0.016272
 Mulliken charges and spin densities:
               1          2
     1  C   -0.066556   0.541905
     2  C   -0.066556   0.541905
     3  H    0.283288  -0.020953
     4  H    0.283269  -0.020952
     5  H    0.283288  -0.020953
     6  H    0.283269  -0.020952
 Sum of Mulliken charges =   1.00000   1.00000
 Mulliken charges and spin densities with hydrogens summed into heavy atoms:
               1          2
     1  C    0.500000   0.500000
     2  C    0.500000   0.500000
 Electronic spatial extent (au):  <R**2>=            126.1860
 Charge=              1.0000 electrons
 Dipole moment (field-independent basis, Debye):
    X=             -0.0000    Y=              0.0000    Z=             -0.0000  Tot=              0.0000
 Quadrupole moment (field-independent basis, Debye-Ang):
   XX=              0.5921   YY=             -8.0429   ZZ=            -12.7916
   XY=              0.0007   XZ=             -0.0000   YZ=             -0.0000
 Traceless Quadrupole moment (field-independent basis, Debye-Ang):
   XX=              7.3396   YY=             -1.2954   ZZ=             -6.0441
   XY=              0.0007   XZ=             -0.0000   YZ=             -0.0000
 Octapole moment (field-independent basis, Debye-Ang**2):
  XXX=             -0.0000  YYY=              0.0000  ZZZ=             -0.0000  XYY=              0.0000
  XXY=              0.0000  XXZ=              0.0000  XZZ=             -0.0000  YZZ=              0.0000
  YYZ=             -0.0000  XYZ=              0.0000
 Hexadecapole moment (field-independent basis, Debye-Ang**3):
 XXXX=           -101.5110 YYYY=            -17.5981 ZZZZ=            -13.4996 XXXY=              0.0028
 XXXZ=             -0.0000 YYYX=              0.0007 YYYZ=             -0.0000 ZZZX=             -0.0000
 ZZZY=             -0.0000 XXYY=            -10.9340 XXZZ=            -23.6048 YYZZ=             -6.6729
 XXYZ=             -0.0000 YYXZ=             -0.0000 ZZXY=             -0.0005
 N-N= 2.518825692046D+01 E-N=-2.263108633562D+02  KE= 7.723044375241D+01
                          Isotropic Fermi Contact Couplings
        Atom                 a.u.       MegaHertz       Gauss      10(-4) cm-1
     1  C(13)              0.09172     103.11227      36.79302      34.39455
     2  C(13)              0.09172     103.11227      36.79302      34.39455
     3  H(1)              -0.00798     -35.67165     -12.72853     -11.89878
     4  H(1)              -0.00798     -35.66725     -12.72696     -11.89731
     5  H(1)              -0.00798     -35.67165     -12.72853     -11.89878
     6  H(1)              -0.00798     -35.66725     -12.72696     -11.89731
 --------------------------------------------------------
       Center         ----  Spin Dipole Couplings  ----
                      3XX-RR        3YY-RR        3ZZ-RR
 --------------------------------------------------------
     1   Atom       -0.287755     -0.289253      0.577008
     2   Atom       -0.287755     -0.289253      0.577008
     3   Atom       -0.018689      0.023425     -0.004736
     4   Atom       -0.018698      0.023431     -0.004733
     5   Atom       -0.018689      0.023425     -0.004736
     6   Atom       -0.018698      0.023431     -0.004733
 --------------------------------------------------------
                        XY            XZ            YZ
 --------------------------------------------------------
     1   Atom        0.000002      0.000000      0.000000
     2   Atom        0.000002      0.000000     -0.000000
     3   Atom        0.030848      0.000000      0.000000
     4   Atom       -0.030849      0.000000     -0.000000
     5   Atom        0.030848      0.000000     -0.000000
     6   Atom       -0.030849      0.000000      0.000000
 --------------------------------------------------------


 ---------------------------------------------------------------------------------
              Anisotropic Spin Dipole Couplings in Principal Axis System
 ---------------------------------------------------------------------------------

       Atom             a.u.   MegaHertz   Gauss  10(-4) cm-1        Axes

              Baa    -0.2893   -38.815   -13.850   -12.947 -0.0011  1.0000  0.0000
     1 C(13)  Bbb    -0.2878   -38.614   -13.778   -12.880  1.0000  0.0011 -0.0000
              Bcc     0.5770    77.429    27.629    25.828  0.0000  0.0000  1.0000
 
              Baa    -0.2893   -38.815   -13.850   -12.947 -0.0011  1.0000  0.0000
     2 C(13)  Bbb    -0.2878   -38.614   -13.778   -12.880  1.0000  0.0011 -0.0000
              Bcc     0.5770    77.429    27.629    25.828  0.0000 -0.0000  1.0000
 
              Baa    -0.0350   -18.664    -6.660    -6.226  0.8842 -0.4670 -0.0000
     3 H(1)   Bbb    -0.0047    -2.527    -0.902    -0.843  0.0000 -0.0000  1.0000
              Bcc     0.0397    21.191     7.562     7.069  0.4670  0.8842  0.0000
 
              Baa    -0.0350   -18.668    -6.661    -6.227  0.8843  0.4670 -0.0000
     4 H(1)   Bbb    -0.0047    -2.525    -0.901    -0.842  0.0000  0.0000  1.0000
              Bcc     0.0397    21.193     7.562     7.069 -0.4670  0.8843 -0.0000
 
              Baa    -0.0350   -18.664    -6.660    -6.226  0.8842 -0.4670 -0.0000
     5 H(1)   Bbb    -0.0047    -2.527    -0.902    -0.843  0.0000 -0.0000  1.0000
              Bcc     0.0397    21.191     7.562     7.069  0.4670  0.8842  0.0000
 
              Baa    -0.0350   -18.668    -6.661    -6.227  0.8843  0.4670 -0.0000
     6 H(1)   Bbb    -0.0047    -2.525    -0.901    -0.842  0.0000  0.0000  1.0000
              Bcc     0.0397    21.193     7.562     7.069 -0.4670  0.8843 -0.0000
 

 ---------------------------------------------------------------------------------

 No NMR shielding tensors so no spin-rotation constants.
 Leave Link  601 at Tue Dec  3 13:21:39 2024, MaxMem=  2147483648 cpu:               4.0 elap:               0.2
 (Enter /home/szhao/Apps/g16/l701.exe)
 ... and contract with generalized density number  0.
 Compute integral first derivatives.
 Leave Link  701 at Tue Dec  3 13:21:40 2024, MaxMem=  2147483648 cpu:               2.7 elap:               0.1
 (Enter /home/szhao/Apps/g16/l702.exe)
 L702 exits ... SP integral derivatives will be done elsewhere.
 Leave Link  702 at Tue Dec  3 13:21:40 2024, MaxMem=  2147483648 cpu:               0.9 elap:               0.1
 (Enter /home/szhao/Apps/g16/l703.exe)
 Integral derivatives from FoFJK, PRISM(SPDF).
 Compute integral first derivatives, UseDBF=F ICtDFT=           0.
 Calling FoFJK, ICntrl=      2127 FMM=F ISym2X=0 I1Cent= 0 IOpClX= 1 NMat=1 NMatS=1 NMatT=0.
 FoFJK:  IHMeth= 1 ICntrl=    2127 DoSepK=F KAlg= 0 I1Cent=           0 FoldK=F
 IRaf=         0 NMat=       1 IRICut=       1 DoRegI=T DoRafI=F ISym2E= 0 IDoP0=0 IntGTp=1.
 FoFCou: FMM=F IPFlag=           0 FMFlag=      100000 FMFlg1=         800
         NFxFlg=           0 DoJE=F BraDBF=F KetDBF=F FulRan=T
         wScrn=  0.000000 ICntrl=      2127 IOpCl=  1 I1Cent=           0 NGrid=           0
         NMat0=    1 NMatS0=      1 NMatT0=    0 NMatD0=    1 NMtDS0=    0 NMtDT0=    0
 Symmetry not used in FoFCou.
 Leave Link  703 at Tue Dec  3 13:21:40 2024, MaxMem=  2147483648 cpu:              15.4 elap:               0.7
 (Enter /home/szhao/Apps/g16/l716.exe)
 Dipole        =-6.36501962D-10 4.46309656D-14-8.00578181D-16
 -------------------------------------------------------------------
 Center     Atomic                   Forces (Hartrees/Bohr)
 Number     Number              X              Y              Z
 -------------------------------------------------------------------
      1        6          -0.000000000   -0.000000000   -0.000000000
      2        6          -0.000000000   -0.000000000   -0.000000000
      3        1           0.000964387   -0.000708013   -0.000000000
      4        1           0.000933694    0.000773938    0.000000000
      5        1          -0.000964387    0.000708013    0.000000000
      6        1          -0.000933694   -0.000773938   -0.000000000
 -------------------------------------------------------------------
 Cartesian Forces:  Max     0.000964387 RMS     0.000567851
 Leave Link  716 at Tue Dec  3 13:21:41 2024, MaxMem=  2147483648 cpu:               1.0 elap:               0.1
 (Enter /home/szhao/Apps/g16/l103.exe)

 GradGradGradGradGradGradGradGradGradGradGradGradGradGradGradGradGradGrad
 Berny optimization.
 FormGI is forming the generalized inverse of G from B-inverse, IUseBI=4.
 Internal  Forces:  Max     0.001898080 RMS     0.000871835
 Search for a local minimum.
 Step number   1 out of a maximum of   30
 All quantities printed in internal units (Hartrees-Bohrs-Radians)
 RMS Force = .75537D-03 SwitMx=.10000D-02 MixMth= 2
 Mixed Optimization -- En-DIIS/RFO-DIIS
 Second derivative matrix not updated -- first step.
 The second derivative matrix:
                          X1        Y1        Z1        X2        Y2
           X1           0.50000
           Y1           0.00000   0.50000
           Z1           0.00000   0.00000   0.50000
           X2           0.00000   0.00000   0.00000   0.50000
           Y2           0.00000   0.00000   0.00000   0.00000   0.50000
           Z2           0.00000   0.00000   0.00000   0.00000   0.00000
           R1           0.00000   0.00000   0.00000   0.00000   0.00000
           R2           0.00000   0.00000   0.00000   0.00000   0.00000
           R3           0.00000   0.00000   0.00000   0.00000   0.00000
           R4           0.00000   0.00000   0.00000   0.00000   0.00000
           A1           0.00000   0.00000   0.00000   0.00000   0.00000
           A2           0.00000   0.00000   0.00000   0.00000   0.00000
           A3           0.00000   0.00000   0.00000   0.00000   0.00000
           A4           0.00000   0.00000   0.00000   0.00000   0.00000
           A5           0.00000   0.00000   0.00000   0.00000   0.00000
           A6           0.00000   0.00000   0.00000   0.00000   0.00000
           D1           0.00000   0.00000   0.00000   0.00000   0.00000
           D2           0.00000   0.00000   0.00000   0.00000   0.00000
           D3           0.00000   0.00000   0.00000   0.00000   0.00000
           D4           0.00000   0.00000   0.00000   0.00000   0.00000
                          Z2        R1        R2        R3        R4
           Z2           0.50000
           R1           0.00000   0.35377
           R2           0.00000   0.00000   0.35389
           R3           0.00000   0.00000   0.00000   0.35377
           R4           0.00000   0.00000   0.00000   0.00000   0.35389
           A1           0.00000   0.00000   0.00000   0.00000   0.00000
           A2           0.00000   0.00000   0.00000   0.00000   0.00000
           A3           0.00000   0.00000   0.00000   0.00000   0.00000
           A4           0.00000   0.00000   0.00000   0.00000   0.00000
           A5           0.00000   0.00000   0.00000   0.00000   0.00000
           A6           0.00000   0.00000   0.00000   0.00000   0.00000
           D1           0.00000   0.00000   0.00000   0.00000   0.00000
           D2           0.00000   0.00000   0.00000   0.00000   0.00000
           D3           0.00000   0.00000   0.00000   0.00000   0.00000
           D4           0.00000   0.00000   0.00000   0.00000   0.00000
                          A1        A2        A3        A4        A5
           A1           0.16000
           A2           0.00000   0.16000
           A3           0.00000   0.00000   0.16000
           A4           0.00000   0.00000   0.00000   0.16000
           A5           0.00000   0.00000   0.00000   0.00000   0.16000
           A6           0.00000   0.00000   0.00000   0.00000   0.00000
           D1           0.00000   0.00000   0.00000   0.00000   0.00000
           D2           0.00000   0.00000   0.00000   0.00000   0.00000
           D3           0.00000   0.00000   0.00000   0.00000   0.00000
           D4           0.00000   0.00000   0.00000   0.00000   0.00000
                          A6        D1        D2        D3        D4
           A6           0.16000
           D1           0.00000   0.00230
           D2           0.00000   0.00000   0.00230
           D3           0.00000   0.00000   0.00000   0.00230
           D4           0.00000   0.00000   0.00000   0.00000   0.00230
 ITU=  0
     Eigenvalues ---    0.00230   0.00230   0.00230   0.16000   0.16000
     Eigenvalues ---    0.16000   0.16000   0.35377   0.35377   0.35389
     Eigenvalues ---    0.353891000.000001000.000001000.000001000.00000
     Eigenvalues --- 1000.000001000.000001000.000001000.000001000.00000
 RFO step:  Lambda=-4.86584890D-05 EMin= 2.30000000D-03
 Linear search not attempted -- first point.
 Iteration  1 RMS(Cart)=  0.00458254 RMS(Int)=  0.00001148
 Iteration  2 RMS(Cart)=  0.00001153 RMS(Int)=  0.00000000
 Iteration  3 RMS(Cart)=  0.00000000 RMS(Int)=  0.00000000
 ITry= 1 IFail=0 DXMaxC= 9.10D-03 DCOld= 1.00D+10 DXMaxT= 3.00D-01 DXLimC= 3.00D+00 Rises=F
 Variable       Old X    -DE/DX   Delta X   Delta X   Delta X     New X
                                 (Linear)    (Quad)   (Total)
    X1       -2.23182   0.00190   0.00000   0.00000   0.00000  -2.23182
    Y1        0.00000   0.00006   0.00000   0.00000   0.00000   0.00000
    Z1        0.00000   0.00000   0.00000   0.00000   0.00000   0.00000
    X2        2.23182  -0.00190   0.00000   0.00000   0.00000   2.23182
    Y2        0.00000  -0.00006   0.00000   0.00000   0.00000   0.00000
    Z2        0.00000   0.00000   0.00000   0.00000   0.00000   0.00000
    R1        2.05068   0.00026   0.00000   0.00075   0.00075   2.05143
    R2        2.05048   0.00034   0.00000   0.00095   0.00095   2.05144
    R3        2.05068   0.00026   0.00000   0.00075   0.00075   2.05143
    R4        2.05048   0.00034   0.00000   0.00095   0.00095   2.05144
    A1        1.98162  -0.00080   0.00000  -0.00499  -0.00499   1.97663
    A2        1.98155  -0.00079   0.00000  -0.00497  -0.00497   1.97659
    A3        2.32001   0.00159   0.00000   0.00996   0.00996   2.32997
    A4        1.98162  -0.00080   0.00000  -0.00499  -0.00499   1.97663
    A5        1.98155  -0.00079   0.00000  -0.00497  -0.00497   1.97659
    A6        2.32001   0.00159   0.00000   0.00996   0.00996   2.32997
    D1        3.14159   0.00000   0.00000   0.00000   0.00000   3.14159
    D2        0.00000   0.00000   0.00000  -0.00000  -0.00000   0.00000
    D3        0.00000  -0.00000   0.00000   0.00000   0.00000   0.00000
    D4        3.14159  -0.00000   0.00000  -0.00000   0.00000   3.14159
         Item               Value     Threshold  Converged?
 Maximum Force            0.001594     0.000450     NO 
 RMS     Force            0.000755     0.000300     NO 
 Maximum Displacement     0.009101     0.001800     NO 
 RMS     Displacement     0.004583     0.001200     NO 
 Predicted change in Energy=-2.433656D-05
 Lowest energy point so far.  Saving SCF results.
 GradGradGradGradGradGradGradGradGradGradGradGradGradGradGradGradGradGrad

 Leave Link  103 at Tue Dec  3 13:21:41 2024, MaxMem=  2147483648 cpu:               0.7 elap:               0.1
 (Enter /home/szhao/Apps/g16/l202.exe)
                          Input orientation:                          
 ---------------------------------------------------------------------
 Center     Atomic      Atomic             Coordinates (Angstroms)
 Number     Number       Type             X           Y           Z
 ---------------------------------------------------------------------
      1          6           0       -1.181027    0.000000    0.000000
      2          6           0        1.181027    0.000000    0.000000
      3          1           0       -1.609595   -0.997390   -0.000000
      4          1           0       -1.609552    0.997414   -0.000000
      5          1           0        1.609595    0.997390    0.000000
      6          1           0        1.609552   -0.997414    0.000000
 ---------------------------------------------------------------------
                    Distance matrix (angstroms):
                    1          2          3          4          5
     1  C    0.000000
     2  C    2.362054   0.000000
     3  H    1.085568   2.963504   0.000000
     4  H    1.085573   2.963472   1.994804   0.000000
     5  H    2.963504   1.085568   3.787127   3.219147   0.000000
     6  H    2.963472   1.085573   3.219147   3.787080   1.994804
                    6
     6  H    0.000000
 Symmetry turned off by external request.
 Stoichiometry    C2H4(1+,2)
 Framework group  C2H[SGH(C2H4)]
 Deg. of freedom     5
 Full point group                 C2H     NOp   4
 Rotational constants (GHZ):         126.0176865          11.5068625          10.5440679
 Leave Link  202 at Tue Dec  3 13:21:41 2024, MaxMem=  2147483648 cpu:               0.2 elap:               0.0
 (Enter /home/szhao/Apps/g16/l301.exe)
 Standard basis: 6-311+G(d,p) (5D, 7F)
 Ernie: Thresh=  0.10000D-02 Tol=  0.10000D-05 Strict=F.
    68 basis functions,   104 primitive gaussians,    70 cartesian basis functions
     8 alpha electrons        7 beta electrons
       nuclear repulsion energy        25.1886900272 Hartrees.
 IExCor= 4336 DFT=T Ex+Corr=M062X ExCW=0 ScaHFX=  0.540000
 ScaDFX=  1.000000  1.000000  1.000000  1.000000 ScalE2=  1.000000  1.000000
 IRadAn=      7 IRanWt=     -1 IRanGd=            0 ICorTp=0 IEmpDi=  4
 NAtoms=    6 NActive=    6 NUniq=    6 SFac= 1.00D+00 NAtFMM=   60 NAOKFM=F Big=F
 Integral buffers will be    131072 words long.
 Raffenetti 2 integral format.
 Two-electron integral symmetry is turned off.
 Leave Link  301 at Tue Dec  3 13:21:41 2024, MaxMem=  2147483648 cpu:               1.4 elap:               0.1
 (Enter /home/szhao/Apps/g16/l302.exe)
 NPDir=0 NMtPBC=     1 NCelOv=     1 NCel=       1 NClECP=     1 NCelD=      1
         NCelK=      1 NCelE2=     1 NClLst=     1 CellRange=     0.0.
 One-electron integrals computed using PRISM.
 NBasis=    68 RedAO= T EigKep=  2.97D-03  NBF=    68
 NBsUse=    68 1.00D-06 EigRej= -1.00D+00 NBFU=    68
 Precomputing XC quadrature grid using
 IXCGrd= 4 IRadAn=           7 IRanWt=          -1 IRanGd=           0 AccXCQ= 0.00D+00.
 Generated NRdTot=       0 NPtTot=           0 NUsed=           0 NTot=          32
 NSgBfM=    70    70    70    70    70 MxSgAt=     6 MxSgA2=     6.
 Leave Link  302 at Tue Dec  3 13:21:41 2024, MaxMem=  2147483648 cpu:               3.4 elap:               0.2
 (Enter /home/szhao/Apps/g16/l303.exe)
 DipDrv:  MaxL=1.
 Leave Link  303 at Tue Dec  3 13:21:41 2024, MaxMem=  2147483648 cpu:               1.4 elap:               0.1
 (Enter /home/szhao/Apps/g16/l401.exe)
 Initial guess from the checkpoint file:  "opt.chk"
 B after Tr=     0.000000   -0.000000    0.000000
         Rot=    1.000000   -0.000000    0.000000    0.000002 Ang=   0.00 deg.
 Guess basis will be translated and rotated to current coordinates.
 JPrj=2 DoOrth=T DoCkMO=T.
 Initial guess <Sx>= 0.0000 <Sy>= 0.0000 <Sz>= 0.5000 <S**2>= 0.7522 S= 0.5011
 Leave Link  401 at Tue Dec  3 13:21:42 2024, MaxMem=  2147483648 cpu:               2.2 elap:               0.1
 (Enter /home/szhao/Apps/g16/l502.exe)
 Keep R1 and R2 ints in memory in canonical form, NReq=27031774.
 FoFCou: FMM=F IPFlag=           0 FMFlag=           0 FMFlg1=           0
         NFxFlg=           0 DoJE=F BraDBF=F KetDBF=F FulRan=T
         wScrn=  0.000000 ICntrl=       600 IOpCl=  0 I1Cent=           0 NGrid=           0
         NMat0=    1 NMatS0=   2346 NMatT0=    0 NMatD0=    1 NMtDS0=    0 NMtDT0=    0
 Symmetry not used in FoFCou.
 Two-electron integral symmetry not used.
 UHF open shell SCF:
 Using DIIS extrapolation, IDIIS=  1040.
 NGot=  2147483648 LenX=  2141965410 LenY=  2141960069
 Requested convergence on RMS density matrix=1.00D-08 within 128 cycles.
 Requested convergence on MAX density matrix=1.00D-06.
 Requested convergence on             energy=1.00D-06.
 No special actions if energy rises.

 Cycle   1  Pass 1  IDiag  1:
 E= -77.9888078701639    
 DIIS: error= 4.52D-04 at cycle   1 NSaved=   1.
 NSaved= 1 IEnMin= 1 EnMin= -77.9888078701639     IErMin= 1 ErrMin= 4.52D-04
 ErrMax= 4.52D-04  0.00D+00 EMaxC= 1.00D-01 BMatC= 1.44D-05 BMatP= 1.44D-05
 IDIUse=3 WtCom= 9.95D-01 WtEn= 4.52D-03
 Coeff-Com:  0.100D+01
 Coeff-En:   0.100D+01
 Coeff:      0.100D+01
 Gap=     0.514 Goal=   None    Shift=    0.000
 Gap=     0.573 Goal=   None    Shift=    0.000
 RMSDP=2.35D-05 MaxDP=2.33D-04              OVMax= 9.49D-04

 Cycle   2  Pass 1  IDiag  1:
 E= -77.9888122552184     Delta-E=       -0.000004385055 Rises=F Damp=F
 DIIS: error= 8.51D-05 at cycle   2 NSaved=   2.
 NSaved= 2 IEnMin= 2 EnMin= -77.9888122552184     IErMin= 2 ErrMin= 8.51D-05
 ErrMax= 8.51D-05  0.00D+00 EMaxC= 1.00D-01 BMatC= 4.80D-07 BMatP= 1.44D-05
 IDIUse=1 WtCom= 1.00D+00 WtEn= 0.00D+00
 Coeff-Com: -0.127D-01 0.101D+01
 Coeff:     -0.127D-01 0.101D+01
 Gap=     0.153 Goal=   None    Shift=    0.000
 Gap=     0.268 Goal=   None    Shift=    0.000
 RMSDP=5.82D-06 MaxDP=7.17D-05 DE=-4.39D-06 OVMax= 2.49D-04

 Cycle   3  Pass 1  IDiag  1:
 E= -77.9888124096570     Delta-E=       -0.000000154439 Rises=F Damp=F
 DIIS: error= 1.84D-05 at cycle   3 NSaved=   3.
 NSaved= 3 IEnMin= 3 EnMin= -77.9888124096570     IErMin= 3 ErrMin= 1.84D-05
 ErrMax= 1.84D-05  0.00D+00 EMaxC= 1.00D-01 BMatC= 2.48D-08 BMatP= 4.80D-07
 IDIUse=1 WtCom= 1.00D+00 WtEn= 0.00D+00
 Coeff-Com: -0.253D-01 0.130D+00 0.895D+00
 Coeff:     -0.253D-01 0.130D+00 0.895D+00
 Gap=     0.153 Goal=   None    Shift=    0.000
 Gap=     0.268 Goal=   None    Shift=    0.000
 RMSDP=1.25D-06 MaxDP=1.67D-05 DE=-1.54D-07 OVMax= 6.41D-05

 Cycle   4  Pass 1  IDiag  1:
 E= -77.9888124196708     Delta-E=       -0.000000010014 Rises=F Damp=F
 DIIS: error= 2.73D-06 at cycle   4 NSaved=   4.
 NSaved= 4 IEnMin= 4 EnMin= -77.9888124196708     IErMin= 4 ErrMin= 2.73D-06
 ErrMax= 2.73D-06  0.00D+00 EMaxC= 1.00D-01 BMatC= 5.51D-10 BMatP= 2.48D-08
 IDIUse=1 WtCom= 1.00D+00 WtEn= 0.00D+00
 Coeff-Com:  0.373D-02-0.460D-01-0.944D-01 0.114D+01
 Coeff:      0.373D-02-0.460D-01-0.944D-01 0.114D+01
 Gap=     0.153 Goal=   None    Shift=    0.000
 Gap=     0.268 Goal=   None    Shift=    0.000
 RMSDP=3.92D-07 MaxDP=5.52D-06 DE=-1.00D-08 OVMax= 1.35D-05

 Cycle   5  Pass 1  IDiag  1:
 E= -77.9888124199781     Delta-E=       -0.000000000307 Rises=F Damp=F
 DIIS: error= 2.80D-07 at cycle   5 NSaved=   5.
 NSaved= 5 IEnMin= 5 EnMin= -77.9888124199781     IErMin= 5 ErrMin= 2.80D-07
 ErrMax= 2.80D-07  0.00D+00 EMaxC= 1.00D-01 BMatC= 8.33D-12 BMatP= 5.51D-10
 IDIUse=1 WtCom= 1.00D+00 WtEn= 0.00D+00
 Coeff-Com:  0.507D-03-0.518D-02-0.140D-01 0.109D+00 0.910D+00
 Coeff:      0.507D-03-0.518D-02-0.140D-01 0.109D+00 0.910D+00
 Gap=     0.153 Goal=   None    Shift=    0.000
 Gap=     0.268 Goal=   None    Shift=    0.000
 RMSDP=2.94D-08 MaxDP=9.21D-07 DE=-3.07D-10 OVMax= 1.36D-06

 Cycle   6  Pass 1  IDiag  1:
 E= -77.9888124199816     Delta-E=       -0.000000000003 Rises=F Damp=F
 DIIS: error= 1.36D-07 at cycle   6 NSaved=   6.
 NSaved= 6 IEnMin= 6 EnMin= -77.9888124199816     IErMin= 6 ErrMin= 1.36D-07
 ErrMax= 1.36D-07  0.00D+00 EMaxC= 1.00D-01 BMatC= 1.34D-12 BMatP= 8.33D-12
 IDIUse=1 WtCom= 1.00D+00 WtEn= 0.00D+00
 Coeff-Com: -0.232D-03 0.324D-02 0.523D-02-0.889D-01 0.192D+00 0.889D+00
 Coeff:     -0.232D-03 0.324D-02 0.523D-02-0.889D-01 0.192D+00 0.889D+00
 Gap=     0.153 Goal=   None    Shift=    0.000
 Gap=     0.268 Goal=   None    Shift=    0.000
 RMSDP=9.34D-09 MaxDP=2.39D-07 DE=-3.48D-12 OVMax= 4.13D-07

 SCF Done:  E(UM062X) =  -77.9888124200     A.U. after    6 cycles
            NFock=  6  Conv=0.93D-08     -V/T= 2.0098
 <Sx>= 0.0000 <Sy>= 0.0000 <Sz>= 0.5000 <S**2>= 0.7522 S= 0.5011
 <L.S>=  0.00000000000    
 KE= 7.722842037305D+01 PE=-2.263119511932D+02 EE= 4.590602837303D+01
 Annihilation of the first spin contaminant:
 S**2 before annihilation     0.7522,   after     0.7500
 Leave Link  502 at Tue Dec  3 13:21:44 2024, MaxMem=  2147483648 cpu:              47.0 elap:               2.0
 (Enter /home/szhao/Apps/g16/l701.exe)
 ... and contract with generalized density number  0.
 Compute integral first derivatives.
 Leave Link  701 at Tue Dec  3 13:21:44 2024, MaxMem=  2147483648 cpu:               3.0 elap:               0.2
 (Enter /home/szhao/Apps/g16/l702.exe)
 L702 exits ... SP integral derivatives will be done elsewhere.
 Leave Link  702 at Tue Dec  3 13:21:44 2024, MaxMem=  2147483648 cpu:               0.8 elap:               0.1
 (Enter /home/szhao/Apps/g16/l703.exe)
 Integral derivatives from FoFJK, PRISM(SPDF).
 Compute integral first derivatives, UseDBF=F ICtDFT=           0.
 Calling FoFJK, ICntrl=      2127 FMM=F ISym2X=0 I1Cent= 0 IOpClX= 1 NMat=1 NMatS=1 NMatT=0.
 FoFJK:  IHMeth= 1 ICntrl=    2127 DoSepK=F KAlg= 0 I1Cent=           0 FoldK=F
 IRaf=         0 NMat=       1 IRICut=       1 DoRegI=T DoRafI=F ISym2E= 0 IDoP0=0 IntGTp=1.
 FoFCou: FMM=F IPFlag=           0 FMFlag=      100000 FMFlg1=         800
         NFxFlg=           0 DoJE=F BraDBF=F KetDBF=F FulRan=T
         wScrn=  0.000000 ICntrl=      2127 IOpCl=  1 I1Cent=           0 NGrid=           0
         NMat0=    1 NMatS0=      1 NMatT0=    0 NMatD0=    1 NMtDS0=    0 NMtDT0=    0
 Symmetry not used in FoFCou.
 Leave Link  703 at Tue Dec  3 13:21:45 2024, MaxMem=  2147483648 cpu:              15.1 elap:               0.6
 (Enter /home/szhao/Apps/g16/l716.exe)
 Dipole        =-2.57230798D-07-1.26942901D-12-1.82584593D-13
 -------------------------------------------------------------------
 Center     Atomic                   Forces (Hartrees/Bohr)
 Number     Number              X              Y              Z
 -------------------------------------------------------------------
      1        6          -0.000000000   -0.000000000   -0.000000000
      2        6          -0.000000000   -0.000000000   -0.000000000
      3        1           0.000596819   -0.000140556   -0.000000000
      4        1           0.000596975    0.000135901    0.000000000
      5        1          -0.000596812    0.000140564    0.000000000
      6        1          -0.000596968   -0.000135909    0.000000000
 -------------------------------------------------------------------
 Cartesian Forces:  Max     0.000596975 RMS     0.000288827
 Leave Link  716 at Tue Dec  3 13:21:45 2024, MaxMem=  2147483648 cpu:               1.0 elap:               0.1
 (Enter /home/szhao/Apps/g16/l103.exe)

 GradGradGradGradGradGradGradGradGradGradGradGradGradGradGradGradGradGrad
 Berny optimization.
 Using GEDIIS/GDIIS optimizer.
 FormGI is forming the generalized inverse of G from B-inverse, IUseBI=4.
 Internal  Forces:  Max     0.001193794 RMS     0.000496876
 Search for a local minimum.
 Step number   2 out of a maximum of   30
 All quantities printed in internal units (Hartrees-Bohrs-Radians)
 RMS Force = .38613D-03 SwitMx=.10000D-02 MixMth= 2
 Mixed Optimization -- En-DIIS/RFO-DIIS
 Swapping is turned off.
 Update second derivatives using D2CorX and points    1    2
 DE= -3.64D-05 DEPred=-2.43D-05 R= 1.50D+00
 TightC=F SS=  1.41D+00  RLast= 1.73D-02 DXNew= 5.0454D-01 5.2003D-02
 Trust test= 1.50D+00 RLast= 1.73D-02 DXMaxT set to 3.00D-01
 The second derivative matrix:
                          X1        Y1        Z1        X2        Y2
           X1           0.52034
           Y1           0.00203   0.50020
           Z1           0.00000   0.00000   0.50000
           X2          -0.02034  -0.00203  -0.00000   0.52034
           Y2          -0.00203  -0.00020  -0.00000   0.00203   0.50020
           Z2          -0.00000  -0.00000  -0.00000   0.00000   0.00000
           R1           0.01070   0.00107   0.00000  -0.01070  -0.00107
           R2           0.01292   0.00129   0.00000  -0.01292  -0.00129
           R3           0.01070   0.00107   0.00000  -0.01070  -0.00107
           R4           0.01292   0.00129   0.00000  -0.01292  -0.00129
           A1          -0.01112  -0.00111  -0.00000   0.01112   0.00111
           A2          -0.01110  -0.00111  -0.00000   0.01110   0.00111
           A3           0.02222   0.00222   0.00000  -0.02222  -0.00222
           A4          -0.01112  -0.00111  -0.00000   0.01112   0.00111
           A5          -0.01110  -0.00111  -0.00000   0.01110   0.00111
           A6           0.02222   0.00222   0.00000  -0.02222  -0.00222
           D1          -0.00000  -0.00000  -0.00000   0.00000   0.00000
           D2           0.00000   0.00000   0.00000  -0.00000  -0.00000
           D3          -0.00000  -0.00000  -0.00000   0.00000   0.00000
           D4           0.00000   0.00000   0.00000  -0.00000  -0.00000
                          Z2        R1        R2        R3        R4
           Z2           0.50000
           R1          -0.00000   0.35796
           R2          -0.00000   0.00497   0.35977
           R3          -0.00000   0.00419   0.00497   0.35796
           R4          -0.00000   0.00497   0.00588   0.00497   0.35977
           A1           0.00000  -0.00151  -0.00153  -0.00151  -0.00153
           A2           0.00000  -0.00153  -0.00155  -0.00153  -0.00155
           A3          -0.00000   0.00304   0.00309   0.00304   0.00309
           A4           0.00000  -0.00151  -0.00153  -0.00151  -0.00153
           A5           0.00000  -0.00153  -0.00155  -0.00153  -0.00155
           A6          -0.00000   0.00304   0.00309   0.00304   0.00309
           D1           0.00000  -0.00000  -0.00000  -0.00000  -0.00000
           D2          -0.00000   0.00000   0.00000   0.00000   0.00000
           D3           0.00000  -0.00000  -0.00000  -0.00000  -0.00000
           D4          -0.00000   0.00000   0.00000   0.00000   0.00000
                          A1        A2        A3        A4        A5
           A1           0.15296
           A2          -0.00698   0.15307
           A3           0.01402   0.01391   0.13207
           A4          -0.00704  -0.00698   0.01402   0.15296
           A5          -0.00698  -0.00693   0.01391  -0.00698   0.15307
           A6           0.01402   0.01391  -0.02793   0.01402   0.01391
           D1           0.00000   0.00000  -0.00000   0.00000   0.00000
           D2          -0.00000  -0.00000   0.00000  -0.00000  -0.00000
           D3           0.00000   0.00000  -0.00000   0.00000   0.00000
           D4          -0.00000  -0.00000   0.00000  -0.00000  -0.00000
                          A6        D1        D2        D3        D4
           A6           0.13207
           D1          -0.00000   0.00230
           D2           0.00000  -0.00000   0.00230
           D3          -0.00000   0.00000  -0.00000   0.00230
           D4           0.00000  -0.00000   0.00000  -0.00000   0.00230
 ITU=  1  0
     Eigenvalues ---    0.00230   0.00230   0.00230   0.07582   0.16000
     Eigenvalues ---    0.16000   0.16000   0.35377   0.35381   0.35389
     Eigenvalues ---    0.374371000.000001000.000001000.000001000.00000
     Eigenvalues --- 1000.000001000.000001000.000001000.000001000.00000
 En-DIIS/RFO-DIIS/Sim-DIIS IScMMF=       -3 using points:     2    1
 RFO step:  Lambda=-2.72357040D-05.
 NNeg= 0 NGDIIS= 2 SimSw=  2.50D-03 Rises=F DC= -3.64D-05 SmlDif=  1.00D-05
 NRisDI= 0 DoIntr=F SqrtH=F CThrHd= 10.0 CDAdj=  3.0
 RMS Error=  0.4232074064D-02 NUsed= 2 OKEnD=T EnDIS=F
 InvSVX:  RCond= 7.50D-05 Info=           0 Equed=N FErr=  5.05D-15 BErr=  2.07D-17
 DidBck=F Rises=F RFO-DIIS coefs:    2.07868   -1.07868
 Iteration  1 RMS(Cart)=  0.00501132 RMS(Int)=  0.00001370
 Iteration  2 RMS(Cart)=  0.00001371 RMS(Int)=  0.00000000
 Iteration  3 RMS(Cart)=  0.00000000 RMS(Int)=  0.00000000
 ITry= 1 IFail=0 DXMaxC= 1.06D-02 DCOld= 1.00D+10 DXMaxT= 3.00D-01 DXLimC= 3.00D+00 Rises=F
 Variable       Old X    -DE/DX   Delta X   Delta X   Delta X     New X
                                 (Linear)    (Quad)   (Total)
    X1       -2.23182   0.00119  -0.00000   0.00000   0.00000  -2.23182
    Y1        0.00000  -0.00001   0.00000   0.00000   0.00000   0.00000
    Z1        0.00000  -0.00000   0.00000   0.00000   0.00000   0.00000
    X2        2.23182  -0.00119   0.00000   0.00000   0.00000   2.23182
    Y2        0.00000   0.00001   0.00000   0.00000   0.00000   0.00000
    Z2        0.00000   0.00000   0.00000   0.00000   0.00000   0.00000
    R1        2.05143  -0.00011   0.00080  -0.00136  -0.00055   2.05087
    R2        2.05144  -0.00011   0.00103  -0.00159  -0.00056   2.05087
    R3        2.05143  -0.00011   0.00080  -0.00136  -0.00055   2.05087
    R4        2.05144  -0.00011   0.00103  -0.00159  -0.00056   2.05087
    A1        1.97663  -0.00041  -0.00538  -0.00009  -0.00548   1.97115
    A2        1.97659  -0.00041  -0.00536  -0.00008  -0.00543   1.97115
    A3        2.32997   0.00082   0.01074   0.00017   0.01091   2.34088
    A4        1.97663  -0.00041  -0.00538  -0.00009  -0.00548   1.97115
    A5        1.97659  -0.00041  -0.00536  -0.00008  -0.00543   1.97115
    A6        2.32997   0.00082   0.01074   0.00017   0.01091   2.34088
    D1        3.14159   0.00000   0.00000   0.00000   0.00000   3.14159
    D2       -0.00000  -0.00000   0.00000  -0.00000   0.00000   0.00000
    D3        0.00000   0.00000   0.00000   0.00000   0.00000   0.00000
    D4        3.14159  -0.00000   0.00000  -0.00000   0.00000   3.14159
         Item               Value     Threshold  Converged?
 Maximum Force            0.000825     0.000450     NO 
 RMS     Force            0.000386     0.000300     NO 
 Maximum Displacement     0.010553     0.001800     NO 
 RMS     Displacement     0.005011     0.001200     NO 
 Predicted change in Energy=-1.361943D-05
 Lowest energy point so far.  Saving SCF results.
 GradGradGradGradGradGradGradGradGradGradGradGradGradGradGradGradGradGrad

 Leave Link  103 at Tue Dec  3 13:21:45 2024, MaxMem=  2147483648 cpu:               1.2 elap:               0.1
 (Enter /home/szhao/Apps/g16/l202.exe)
                          Input orientation:                          
 ---------------------------------------------------------------------
 Center     Atomic      Atomic             Coordinates (Angstroms)
 Number     Number       Type             X           Y           Z
 ---------------------------------------------------------------------
      1          6           0       -1.181027    0.000000    0.000000
      2          6           0        1.181027    0.000000    0.000000
      3          1           0       -1.604010   -0.999453   -0.000000
      4          1           0       -1.604010    0.999453    0.000000
      5          1           0        1.604011    0.999453    0.000000
      6          1           0        1.604010   -0.999453    0.000000
 ---------------------------------------------------------------------
                    Distance matrix (angstroms):
                    1          2          3          4          5
     1  C    0.000000
     2  C    2.362054   0.000000
     3  H    1.085275   2.958942   0.000000
     4  H    1.085275   2.958942   1.998906   0.000000
     5  H    2.958942   1.085275   3.779818   3.208020   0.000000
     6  H    2.958942   1.085275   3.208020   3.779817   1.998906
                    6
     6  H    0.000000
 Symmetry turned off by external request.
 Stoichiometry    C2H4(1+,2)
 Framework group  CS[SG(C2H4)]
 Deg. of freedom     9
 Full point group                 CS      NOp   2
 Rotational constants (GHZ):         125.5010002          11.5257764          10.5563051
 Leave Link  202 at Tue Dec  3 13:21:45 2024, MaxMem=  2147483648 cpu:               0.2 elap:               0.0
 (Enter /home/szhao/Apps/g16/l301.exe)
 Standard basis: 6-311+G(d,p) (5D, 7F)
 Ernie: Thresh=  0.10000D-02 Tol=  0.10000D-05 Strict=F.
    68 basis functions,   104 primitive gaussians,    70 cartesian basis functions
     8 alpha electrons        7 beta electrons
       nuclear repulsion energy        25.1990511777 Hartrees.
 IExCor= 4336 DFT=T Ex+Corr=M062X ExCW=0 ScaHFX=  0.540000
 ScaDFX=  1.000000  1.000000  1.000000  1.000000 ScalE2=  1.000000  1.000000
 IRadAn=      7 IRanWt=     -1 IRanGd=            0 ICorTp=0 IEmpDi=  4
 NAtoms=    6 NActive=    6 NUniq=    6 SFac= 1.00D+00 NAtFMM=   60 NAOKFM=F Big=F
 Integral buffers will be    131072 words long.
 Raffenetti 2 integral format.
 Two-electron integral symmetry is turned off.
 Leave Link  301 at Tue Dec  3 13:21:45 2024, MaxMem=  2147483648 cpu:               1.1 elap:               0.1
 (Enter /home/szhao/Apps/g16/l302.exe)
 NPDir=0 NMtPBC=     1 NCelOv=     1 NCel=       1 NClECP=     1 NCelD=      1
         NCelK=      1 NCelE2=     1 NClLst=     1 CellRange=     0.0.
 One-electron integrals computed using PRISM.
 NBasis=    68 RedAO= T EigKep=  2.96D-03  NBF=    68
 NBsUse=    68 1.00D-06 EigRej= -1.00D+00 NBFU=    68
 Precomputing XC quadrature grid using
 IXCGrd= 4 IRadAn=           7 IRanWt=          -1 IRanGd=           0 AccXCQ= 0.00D+00.
 Generated NRdTot=       0 NPtTot=           0 NUsed=           0 NTot=          32
 NSgBfM=    70    70    70    70    70 MxSgAt=     6 MxSgA2=     6.
 Leave Link  302 at Tue Dec  3 13:21:45 2024, MaxMem=  2147483648 cpu:               3.7 elap:               0.2
 (Enter /home/szhao/Apps/g16/l303.exe)
 DipDrv:  MaxL=1.
 Leave Link  303 at Tue Dec  3 13:21:46 2024, MaxMem=  2147483648 cpu:               0.9 elap:               0.0
 (Enter /home/szhao/Apps/g16/l401.exe)
 Initial guess from the checkpoint file:  "opt.chk"
 B after Tr=     0.000000    0.000000    0.000000
         Rot=    1.000000    0.000000    0.000000   -0.000003 Ang=  -0.00 deg.
 Guess basis will be translated and rotated to current coordinates.
 JPrj=2 DoOrth=T DoCkMO=T.
 Initial guess <Sx>= 0.0000 <Sy>= 0.0000 <Sz>= 0.5000 <S**2>= 0.7522 S= 0.5011
 Leave Link  401 at Tue Dec  3 13:21:46 2024, MaxMem=  2147483648 cpu:               2.4 elap:               0.1
 (Enter /home/szhao/Apps/g16/l502.exe)
 Keep R1 and R2 ints in memory in canonical form, NReq=27031774.
 FoFCou: FMM=F IPFlag=           0 FMFlag=           0 FMFlg1=           0
         NFxFlg=           0 DoJE=F BraDBF=F KetDBF=F FulRan=T
         wScrn=  0.000000 ICntrl=       600 IOpCl=  0 I1Cent=           0 NGrid=           0
         NMat0=    1 NMatS0=   2346 NMatT0=    0 NMatD0=    1 NMtDS0=    0 NMtDT0=    0
 Symmetry not used in FoFCou.
 Two-electron integral symmetry not used.
 UHF open shell SCF:
 Using DIIS extrapolation, IDIIS=  1040.
 NGot=  2147483648 LenX=  2141965410 LenY=  2141960069
 Requested convergence on RMS density matrix=1.00D-08 within 128 cycles.
 Requested convergence on MAX density matrix=1.00D-06.
 Requested convergence on             energy=1.00D-06.
 No special actions if energy rises.

 Cycle   1  Pass 1  IDiag  1:
 E= -77.9888207589026    
 DIIS: error= 4.67D-04 at cycle   1 NSaved=   1.
 NSaved= 1 IEnMin= 1 EnMin= -77.9888207589026     IErMin= 1 ErrMin= 4.67D-04
 ErrMax= 4.67D-04  0.00D+00 EMaxC= 1.00D-01 BMatC= 1.74D-05 BMatP= 1.74D-05
 IDIUse=3 WtCom= 9.95D-01 WtEn= 4.67D-03
 Coeff-Com:  0.100D+01
 Coeff-En:   0.100D+01
 Coeff:      0.100D+01
 Gap=     0.514 Goal=   None    Shift=    0.000
 Gap=     0.572 Goal=   None    Shift=    0.000
 RMSDP=2.56D-05 MaxDP=2.22D-04              OVMax= 9.49D-04

 Cycle   2  Pass 1  IDiag  1:
 E= -77.9888260008877     Delta-E=       -0.000005241985 Rises=F Damp=F
 DIIS: error= 8.93D-05 at cycle   2 NSaved=   2.
 NSaved= 2 IEnMin= 2 EnMin= -77.9888260008877     IErMin= 2 ErrMin= 8.93D-05
 ErrMax= 8.93D-05  0.00D+00 EMaxC= 1.00D-01 BMatC= 5.19D-07 BMatP= 1.74D-05
 IDIUse=1 WtCom= 1.00D+00 WtEn= 0.00D+00
 Coeff-Com: -0.364D-01 0.104D+01
 Coeff:     -0.364D-01 0.104D+01
 Gap=     0.153 Goal=   None    Shift=    0.000
 Gap=     0.267 Goal=   None    Shift=    0.000
 RMSDP=6.58D-06 MaxDP=6.36D-05 DE=-5.24D-06 OVMax= 2.94D-04

 Cycle   3  Pass 1  IDiag  1:
 E= -77.9888261834665     Delta-E=       -0.000000182579 Rises=F Damp=F
 DIIS: error= 1.90D-05 at cycle   3 NSaved=   3.
 NSaved= 3 IEnMin= 3 EnMin= -77.9888261834665     IErMin= 3 ErrMin= 1.90D-05
 ErrMax= 1.90D-05  0.00D+00 EMaxC= 1.00D-01 BMatC= 4.64D-08 BMatP= 5.19D-07
 IDIUse=1 WtCom= 1.00D+00 WtEn= 0.00D+00
 Coeff-Com: -0.283D-01 0.196D+00 0.832D+00
 Coeff:     -0.283D-01 0.196D+00 0.832D+00
 Gap=     0.153 Goal=   None    Shift=    0.000
 Gap=     0.267 Goal=   None    Shift=    0.000
 RMSDP=1.61D-06 MaxDP=2.88D-05 DE=-1.83D-07 OVMax= 6.71D-05

 Cycle   4  Pass 1  IDiag  1:
 E= -77.9888261992527     Delta-E=       -0.000000015786 Rises=F Damp=F
 DIIS: error= 4.28D-06 at cycle   4 NSaved=   4.
 NSaved= 4 IEnMin= 4 EnMin= -77.9888261992527     IErMin= 4 ErrMin= 4.28D-06
 ErrMax= 4.28D-06  0.00D+00 EMaxC= 1.00D-01 BMatC= 2.23D-09 BMatP= 4.64D-08
 IDIUse=1 WtCom= 1.00D+00 WtEn= 0.00D+00
 Coeff-Com: -0.243D-02-0.138D-01 0.121D+00 0.895D+00
 Coeff:     -0.243D-02-0.138D-01 0.121D+00 0.895D+00
 Gap=     0.153 Goal=   None    Shift=    0.000
 Gap=     0.267 Goal=   None    Shift=    0.000
 RMSDP=4.57D-07 MaxDP=7.57D-06 DE=-1.58D-08 OVMax= 1.50D-05

 Cycle   5  Pass 1  IDiag  1:
 E= -77.9888262000426     Delta-E=       -0.000000000790 Rises=F Damp=F
 DIIS: error= 8.88D-07 at cycle   5 NSaved=   5.
 NSaved= 5 IEnMin= 5 EnMin= -77.9888262000426     IErMin= 5 ErrMin= 8.88D-07
 ErrMax= 8.88D-07  0.00D+00 EMaxC= 1.00D-01 BMatC= 1.40D-10 BMatP= 2.23D-09
 IDIUse=1 WtCom= 1.00D+00 WtEn= 0.00D+00
 Coeff-Com:  0.154D-02-0.183D-01-0.320D-01 0.180D+00 0.869D+00
 Coeff:      0.154D-02-0.183D-01-0.320D-01 0.180D+00 0.869D+00
 Gap=     0.153 Goal=   None    Shift=    0.000
 Gap=     0.267 Goal=   None    Shift=    0.000
 RMSDP=1.42D-07 MaxDP=2.81D-06 DE=-7.90D-10 OVMax= 5.18D-06

 Cycle   6  Pass 1  IDiag  1:
 E= -77.9888262000730     Delta-E=       -0.000000000030 Rises=F Damp=F
 DIIS: error= 9.04D-07 at cycle   6 NSaved=   6.
 NSaved= 6 IEnMin= 6 EnMin= -77.9888262000730     IErMin= 5 ErrMin= 8.88D-07
 ErrMax= 9.04D-07  0.00D+00 EMaxC= 1.00D-01 BMatC= 6.10D-11 BMatP= 1.40D-10
 IDIUse=1 WtCom= 1.00D+00 WtEn= 0.00D+00
 Coeff-Com:  0.108D-02-0.123D-01-0.235D-01 0.112D+00 0.594D+00 0.329D+00
 Coeff:      0.108D-02-0.123D-01-0.235D-01 0.112D+00 0.594D+00 0.329D+00
 Gap=     0.153 Goal=   None    Shift=    0.000
 Gap=     0.267 Goal=   None    Shift=    0.000
 RMSDP=4.40D-08 MaxDP=9.93D-07 DE=-3.05D-11 OVMax= 4.40D-06

 Cycle   7  Pass 1  IDiag  1:
 E= -77.9888262000917     Delta-E=       -0.000000000019 Rises=F Damp=F
 DIIS: error= 2.25D-07 at cycle   7 NSaved=   7.
 NSaved= 7 IEnMin= 7 EnMin= -77.9888262000917     IErMin= 7 ErrMin= 2.25D-07
 ErrMax= 2.25D-07  0.00D+00 EMaxC= 1.00D-01 BMatC= 4.30D-12 BMatP= 6.10D-11
 IDIUse=1 WtCom= 1.00D+00 WtEn= 0.00D+00
 Coeff-Com: -0.277D-03 0.363D-02 0.483D-02-0.400D-01-0.162D+00 0.185D+00
 Coeff-Com:  0.101D+01
 Coeff:     -0.277D-03 0.363D-02 0.483D-02-0.400D-01-0.162D+00 0.185D+00
 Coeff:      0.101D+01
 Gap=     0.153 Goal=   None    Shift=    0.000
 Gap=     0.267 Goal=   None    Shift=    0.000
 RMSDP=1.44D-08 MaxDP=3.58D-07 DE=-1.87D-11 OVMax= 9.17D-07

 Cycle   8  Pass 1  IDiag  1:
 E= -77.9888262000934     Delta-E=       -0.000000000002 Rises=F Damp=F
 DIIS: error= 1.83D-08 at cycle   8 NSaved=   8.
 NSaved= 8 IEnMin= 8 EnMin= -77.9888262000934     IErMin= 8 ErrMin= 1.83D-08
 ErrMax= 1.83D-08  0.00D+00 EMaxC= 1.00D-01 BMatC= 3.11D-14 BMatP= 4.30D-12
 IDIUse=1 WtCom= 1.00D+00 WtEn= 0.00D+00
 Coeff-Com:  0.525D-04-0.743D-03-0.687D-03 0.919D-02 0.302D-01-0.721D-01
 Coeff-Com: -0.323D+00 0.136D+01
 Coeff:      0.525D-04-0.743D-03-0.687D-03 0.919D-02 0.302D-01-0.721D-01
 Coeff:     -0.323D+00 0.136D+01
 Gap=     0.153 Goal=   None    Shift=    0.000
 Gap=     0.267 Goal=   None    Shift=    0.000
 RMSDP=2.57D-09 MaxDP=6.78D-08 DE=-1.68D-12 OVMax= 9.75D-08

 SCF Done:  E(UM062X) =  -77.9888262001     A.U. after    8 cycles
            NFock=  8  Conv=0.26D-08     -V/T= 2.0098
 <Sx>= 0.0000 <Sy>= 0.0000 <Sz>= 0.5000 <S**2>= 0.7522 S= 0.5011
 <L.S>=  0.00000000000    
 KE= 7.723041057759D+01 PE=-2.263343073636D+02 EE= 4.591601940829D+01
 Annihilation of the first spin contaminant:
 S**2 before annihilation     0.7522,   after     0.7500
 Leave Link  502 at Tue Dec  3 13:21:49 2024, MaxMem=  2147483648 cpu:              62.7 elap:               2.7
 (Enter /home/szhao/Apps/g16/l701.exe)
 ... and contract with generalized density number  0.
 Compute integral first derivatives.
 Leave Link  701 at Tue Dec  3 13:21:49 2024, MaxMem=  2147483648 cpu:               2.7 elap:               0.1
 (Enter /home/szhao/Apps/g16/l702.exe)
 L702 exits ... SP integral derivatives will be done elsewhere.
 Leave Link  702 at Tue Dec  3 13:21:49 2024, MaxMem=  2147483648 cpu:               0.9 elap:               0.1
 (Enter /home/szhao/Apps/g16/l703.exe)
 Integral derivatives from FoFJK, PRISM(SPDF).
 Compute integral first derivatives, UseDBF=F ICtDFT=           0.
 Calling FoFJK, ICntrl=      2127 FMM=F ISym2X=0 I1Cent= 0 IOpClX= 1 NMat=1 NMatS=1 NMatT=0.
 FoFJK:  IHMeth= 1 ICntrl=    2127 DoSepK=F KAlg= 0 I1Cent=           0 FoldK=F
 IRaf=         0 NMat=       1 IRICut=       1 DoRegI=T DoRafI=F ISym2E= 0 IDoP0=0 IntGTp=1.
 FoFCou: FMM=F IPFlag=           0 FMFlag=      100000 FMFlg1=         800
         NFxFlg=           0 DoJE=F BraDBF=F KetDBF=F FulRan=T
         wScrn=  0.000000 ICntrl=      2127 IOpCl=  1 I1Cent=           0 NGrid=           0
         NMat0=    1 NMatS0=      1 NMatT0=    0 NMatD0=    1 NMtDS0=    0 NMtDT0=    0
 Symmetry not used in FoFCou.
 Leave Link  703 at Tue Dec  3 13:21:50 2024, MaxMem=  2147483648 cpu:              14.8 elap:               0.6
 (Enter /home/szhao/Apps/g16/l716.exe)
 Dipole        = 1.04571572D-07 4.25059987D-12 3.33713902D-10
 -------------------------------------------------------------------
 Center     Atomic                   Forces (Hartrees/Bohr)
 Number     Number              X              Y              Z
 -------------------------------------------------------------------
      1        6          -0.000000000   -0.000000000   -0.000000000
      2        6          -0.000000000   -0.000000000   -0.000000000
      3        1           0.000012178    0.000009178   -0.000000000
      4        1           0.000012109   -0.000009069   -0.000000000
      5        1          -0.000012185   -0.000009198   -0.000000000
      6        1          -0.000012116    0.000009089   -0.000000000
 -------------------------------------------------------------------
 Cartesian Forces:  Max     0.000012185 RMS     0.000007164
 Leave Link  716 at Tue Dec  3 13:21:50 2024, MaxMem=  2147483648 cpu:               0.9 elap:               0.1
 (Enter /home/szhao/Apps/g16/l103.exe)

 GradGradGradGradGradGradGradGradGradGradGradGradGradGradGradGradGradGrad
 Berny optimization.
 Using GEDIIS/GDIIS optimizer.
 FormGI is forming the generalized inverse of G from B-inverse, IUseBI=4.
 Internal  Forces:  Max     0.000024301 RMS     0.000010483
 Search for a local minimum.
 Step number   3 out of a maximum of   30
 All quantities printed in internal units (Hartrees-Bohrs-Radians)
 RMS Force = .85249D-05 SwitMx=.10000D-02 MixMth= 2
 Mixed Optimization -- En-DIIS/RFO-DIIS
 Swapping is turned off.
 Update second derivatives using D2CorX and points    1    2    3
 DE= -1.38D-05 DEPred=-1.36D-05 R= 1.01D+00
 TightC=F SS=  1.41D+00  RLast= 1.89D-02 DXNew= 5.0454D-01 5.6799D-02
 Trust test= 1.01D+00 RLast= 1.89D-02 DXMaxT set to 3.00D-01
 The second derivative matrix:
                          X1        Y1        Z1        X2        Y2
           X1           0.55405
           Y1          -0.00008   0.50001
           Z1           0.00000  -0.00000   0.50000
           X2          -0.05404   0.00008  -0.00000   0.55404
           Y2           0.00008  -0.00001   0.00000  -0.00008   0.50001
           Z2           0.00000  -0.00000   0.00000  -0.00000   0.00000
           R1           0.01163   0.00101   0.00000  -0.01163  -0.00101
           R2           0.01416   0.00119   0.00000  -0.01416  -0.00119
           R3           0.01163   0.00101   0.00000  -0.01163  -0.00101
           R4           0.01416   0.00119   0.00000  -0.01416  -0.00119
           A1          -0.01833   0.00006  -0.00000   0.01833  -0.00006
           A2          -0.01827   0.00006  -0.00000   0.01827  -0.00006
           A3           0.03661  -0.00012   0.00000  -0.03661   0.00012
           A4          -0.01833   0.00006  -0.00000   0.01833  -0.00006
           A5          -0.01827   0.00006  -0.00000   0.01827  -0.00006
           A6           0.03661  -0.00012   0.00000  -0.03661   0.00012
           D1           0.00000  -0.00000   0.00000  -0.00000   0.00000
           D2           0.00000  -0.00000   0.00000  -0.00000   0.00000
           D3          -0.00000   0.00000  -0.00000   0.00000  -0.00000
           D4          -0.00000   0.00000  -0.00000   0.00000  -0.00000
                          Z2        R1        R2        R3        R4
           Z2           0.50000
           R1           0.00000   0.35799
           R2           0.00000   0.00501   0.35982
           R3           0.00000   0.00423   0.00501   0.35799
           R4           0.00000   0.00501   0.00593   0.00501   0.35982
           A1          -0.00000  -0.00172  -0.00174  -0.00172  -0.00174
           A2          -0.00000  -0.00173  -0.00175  -0.00173  -0.00175
           A3           0.00000   0.00344   0.00349   0.00344   0.00349
           A4          -0.00000  -0.00172  -0.00174  -0.00172  -0.00174
           A5          -0.00000  -0.00173  -0.00175  -0.00173  -0.00175
           A6           0.00000   0.00344   0.00349   0.00344   0.00349
           D1           0.00000   0.00000   0.00000   0.00000   0.00000
           D2           0.00000   0.00000   0.00000   0.00000   0.00000
           D3          -0.00000  -0.00000  -0.00000  -0.00000  -0.00000
           D4          -0.00000  -0.00000  -0.00000  -0.00000  -0.00000
                          A1        A2        A3        A4        A5
           A1           0.15289
           A2          -0.00706   0.15300
           A3           0.01417   0.01405   0.13178
           A4          -0.00711  -0.00706   0.01417   0.15289
           A5          -0.00706  -0.00700   0.01405  -0.00706   0.15300
           A6           0.01417   0.01405  -0.02822   0.01417   0.01405
           D1          -0.00000  -0.00000   0.00000  -0.00000  -0.00000
           D2          -0.00000  -0.00000   0.00000  -0.00000  -0.00000
           D3           0.00000   0.00000  -0.00000   0.00000   0.00000
           D4           0.00000   0.00000  -0.00000   0.00000   0.00000
                          A6        D1        D2        D3        D4
           A6           0.13178
           D1           0.00000   0.00230
           D2           0.00000   0.00000   0.00230
           D3          -0.00000  -0.00000  -0.00000   0.00230
           D4          -0.00000  -0.00000  -0.00000   0.00000   0.00230
 ITU=  1  1  0
     Eigenvalues ---    0.00230   0.00230   0.00230   0.07485   0.16000
     Eigenvalues ---    0.16000   0.16000   0.35377   0.35381   0.35389
     Eigenvalues ---    0.374641000.000001000.000001000.000001000.00000
     Eigenvalues --- 1000.000001000.000001000.000001000.000001000.00000
 En-DIIS/RFO-DIIS/Sim-DIIS IScMMF=       -3 using points:     3    2    1
 RFO step:  Lambda=-4.52420544D-09.
 NNeg= 0 NGDIIS= 3 SimSw=  2.50D-03 Rises=F DC= -1.38D-05 SmlDif=  1.00D-05
 NRisDI= 0 DoIntr=F SqrtH=F CThrHd= 10.0 CDAdj=  3.0
 RMS Error=  0.5906891390D-04 NUsed= 3 OKEnD=T EnDIS=F
 InvSVX:  RCond= 3.20D-07 Info=           0 Equed=N FErr=  2.68D-14 BErr=  6.99D-17
 DidBck=F Rises=F RFO-DIIS coefs:    1.03521   -0.05893    0.02371
 Iteration  1 RMS(Cart)=  0.00007024 RMS(Int)=  0.00000000
 Iteration  2 RMS(Cart)=  0.00000000 RMS(Int)=  0.00000000
 ITry= 1 IFail=0 DXMaxC= 1.56D-04 DCOld= 1.00D+10 DXMaxT= 3.00D-01 DXLimC= 3.00D+00 Rises=F
 Variable       Old X    -DE/DX   Delta X   Delta X   Delta X     New X
                                 (Linear)    (Quad)   (Total)
    X1       -2.23182   0.00002  -0.00000   0.00000   0.00000  -2.23182
    Y1        0.00000   0.00000   0.00000   0.00000   0.00000   0.00000
    Z1        0.00000  -0.00000   0.00000   0.00000   0.00000   0.00000
    X2        2.23182  -0.00002   0.00000   0.00000   0.00000   2.23182
    Y2        0.00000  -0.00000   0.00000   0.00000   0.00000   0.00000
    Z2        0.00000  -0.00000   0.00000   0.00000   0.00000   0.00000
    R1        2.05087  -0.00001  -0.00004  -0.00000  -0.00004   2.05083
    R2        2.05087  -0.00001  -0.00004   0.00000  -0.00004   2.05083
    R3        2.05087  -0.00001  -0.00004  -0.00000  -0.00004   2.05083
    R4        2.05087  -0.00001  -0.00004   0.00000  -0.00004   2.05083
    A1        1.97115  -0.00001  -0.00007   0.00000  -0.00007   1.97108
    A2        1.97115  -0.00001  -0.00007  -0.00000  -0.00007   1.97108
    A3        2.34088   0.00001   0.00015  -0.00000   0.00015   2.34103
    A4        1.97115  -0.00001  -0.00007   0.00000  -0.00007   1.97108
    A5        1.97115  -0.00001  -0.00007  -0.00000  -0.00007   1.97108
    A6        2.34088   0.00001   0.00015  -0.00000   0.00015   2.34103
    D1        3.14159  -0.00000   0.00000  -0.00000   0.00000   3.14159
    D2       -0.00000  -0.00000   0.00000  -0.00000   0.00000   0.00000
    D3        0.00000   0.00000   0.00000   0.00000   0.00000   0.00000
    D4        3.14159   0.00000   0.00000   0.00000   0.00000   3.14159
         Item               Value     Threshold  Converged?
 Maximum Force            0.000013     0.000450     YES
 RMS     Force            0.000009     0.000300     YES
 Maximum Displacement     0.000156     0.001800     YES
 RMS     Displacement     0.000070     0.001200     YES
 Predicted change in Energy=-3.307546D-09
 Optimization completed.
    -- Stationary point found.
                           ----------------------------
                           !   Optimized Parameters   !
                           ! (Angstroms and Degrees)  !
 --------------------------                            --------------------------
 ! Name  Definition              Value          Derivative Info.                !
 --------------------------------------------------------------------------------
 ! X1    R(1,-1)                -1.181          -DE/DX =    0.0                 !
 ! Y1    R(1,-2)                 0.0            -DE/DX =    0.0                 !
 ! Z1    R(1,-3)                 0.0            -DE/DX =    0.0                 !
 ! X2    R(2,-1)                 1.181          -DE/DX =    0.0                 !
 ! Y2    R(2,-2)                 0.0            -DE/DX =    0.0                 !
 ! Z2    R(2,-3)                 0.0            -DE/DX =    0.0                 !
 ! R1    R(1,3)                  1.0853         -DE/DX =    0.0                 !
 ! R2    R(1,4)                  1.0853         -DE/DX =    0.0                 !
 ! R3    R(2,5)                  1.0853         -DE/DX =    0.0                 !
 ! R4    R(2,6)                  1.0853         -DE/DX =    0.0                 !
 ! A1    A(2,1,3)              112.9388         -DE/DX =    0.0                 !
 ! A2    A(2,1,4)              112.9388         -DE/DX =    0.0                 !
 ! A3    A(3,1,4)              134.1224         -DE/DX =    0.0                 !
 ! A4    A(1,2,5)              112.9388         -DE/DX =    0.0                 !
 ! A5    A(1,2,6)              112.9388         -DE/DX =    0.0                 !
 ! A6    A(5,2,6)              134.1224         -DE/DX =    0.0                 !
 ! D1    D(3,1,2,5)            180.0            -DE/DX =    0.0                 !
 ! D2    D(3,1,2,6)              0.0            -DE/DX =    0.0                 !
 ! D3    D(4,1,2,5)              0.0            -DE/DX =    0.0                 !
 ! D4    D(4,1,2,6)            180.0            -DE/DX =    0.0                 !
 --------------------------------------------------------------------------------
 Lowest energy point so far.  Saving SCF results.
 Largest change from initial coordinates is atom    3       0.011 Angstoms.
 GradGradGradGradGradGradGradGradGradGradGradGradGradGradGradGradGradGrad

 Leave Link  103 at Tue Dec  3 13:21:50 2024, MaxMem=  2147483648 cpu:               0.8 elap:               0.1
 (Enter /home/szhao/Apps/g16/l202.exe)
                          Input orientation:                          
 ---------------------------------------------------------------------
 Center     Atomic      Atomic             Coordinates (Angstroms)
 Number     Number       Type             X           Y           Z
 ---------------------------------------------------------------------
      1          6           0       -1.181027    0.000000    0.000000
      2          6           0        1.181027    0.000000    0.000000
      3          1           0       -1.604010   -0.999453   -0.000000
      4          1           0       -1.604010    0.999453    0.000000
      5          1           0        1.604011    0.999453    0.000000
      6          1           0        1.604010   -0.999453    0.000000
 ---------------------------------------------------------------------
                    Distance matrix (angstroms):
                    1          2          3          4          5
     1  C    0.000000
     2  C    2.362054   0.000000
     3  H    1.085275   2.958942   0.000000
     4  H    1.085275   2.958942   1.998906   0.000000
     5  H    2.958942   1.085275   3.779818   3.208020   0.000000
     6  H    2.958942   1.085275   3.208020   3.779817   1.998906
                    6
     6  H    0.000000
 Symmetry turned off by external request.
 Stoichiometry    C2H4(1+,2)
 Framework group  CS[SG(C2H4)]
 Deg. of freedom     9
 Full point group                 CS      NOp   2
 Rotational constants (GHZ):         125.5010002          11.5257764          10.5563051
 Leave Link  202 at Tue Dec  3 13:21:50 2024, MaxMem=  2147483648 cpu:               0.7 elap:               0.1
 (Enter /home/szhao/Apps/g16/l601.exe)
 Copying SCF densities to generalized density rwf, IOpCl= 1 IROHF=0.

 **********************************************************************

            Population analysis using the SCF density.

 **********************************************************************

 Alpha  occ. eigenvalues --  -10.92385 -10.92376  -1.04378  -1.00679  -0.79992
 Alpha  occ. eigenvalues --   -0.78400  -0.61997  -0.53491
 Alpha virt. eigenvalues --   -0.38197  -0.30832  -0.13753  -0.10863  -0.10433
 Alpha virt. eigenvalues --   -0.08019  -0.07553  -0.06896  -0.04713  -0.03752
 Alpha virt. eigenvalues --   -0.03664   0.00473   0.01799   0.09215   0.18130
 Alpha virt. eigenvalues --    0.22297   0.24003   0.32032   0.38308   0.41013
 Alpha virt. eigenvalues --    0.41449   0.42067   0.45726   0.47395   0.52457
 Alpha virt. eigenvalues --    0.56090   0.80410   0.81037   0.90444   0.93603
 Alpha virt. eigenvalues --    1.09271   1.11844   1.12822   1.25419   1.26001
 Alpha virt. eigenvalues --    1.40123   1.46755   1.47057   1.54269   1.58420
 Alpha virt. eigenvalues --    1.65452   1.72204   1.76661   1.78291   2.12744
 Alpha virt. eigenvalues --    2.24871   2.26219   2.32758   2.37138   2.39987
 Alpha virt. eigenvalues --    2.40701   2.42177   2.45707   2.46413   2.60592
 Alpha virt. eigenvalues --    2.80144   3.39650   3.42666  23.49420  23.51484
  Beta  occ. eigenvalues --  -10.92136 -10.92130  -1.01490  -0.98325  -0.79553
  Beta  occ. eigenvalues --   -0.78038  -0.60284
  Beta virt. eigenvalues --   -0.33579  -0.28856  -0.28627  -0.14904  -0.11109
  Beta virt. eigenvalues --   -0.10614  -0.07423  -0.07374  -0.07107  -0.03906
  Beta virt. eigenvalues --   -0.03779  -0.03233   0.00733   0.00958   0.10137
  Beta virt. eigenvalues --    0.18178   0.22651   0.24488   0.33491   0.37399
  Beta virt. eigenvalues --    0.40767   0.41827   0.42581   0.47326   0.48604
  Beta virt. eigenvalues --    0.53303   0.56423   0.83473   0.83907   0.94059
  Beta virt. eigenvalues --    0.96515   1.11533   1.13554   1.13900   1.28241
  Beta virt. eigenvalues --    1.28702   1.43737   1.48230   1.48484   1.55475
  Beta virt. eigenvalues --    1.59533   1.66661   1.73215   1.78233   1.79809
  Beta virt. eigenvalues --    2.16328   2.28289   2.28377   2.34321   2.38604
  Beta virt. eigenvalues --    2.41336   2.44292   2.46649   2.50104   2.50524
  Beta virt. eigenvalues --    2.63052   2.83109   3.43883   3.46962  23.50659
  Beta virt. eigenvalues --   23.52753
          Condensed to atoms (all electrons):
               1          2          3          4          5          6
     1  C    5.068868   0.288995   0.364916   0.364916  -0.009963  -0.009963
     2  C    0.288995   5.068868  -0.009963  -0.009963   0.364916   0.364916
     3  H    0.364916  -0.009963   0.367856  -0.007482   0.000191   0.000596
     4  H    0.364916  -0.009963  -0.007482   0.367856   0.000596   0.000191
     5  H   -0.009963   0.364916   0.000191   0.000596   0.367856  -0.007482
     6  H   -0.009963   0.364916   0.000596   0.000191  -0.007482   0.367856
          Atomic-Atomic Spin Densities.
               1          2          3          4          5          6
     1  C    0.510927   0.040446  -0.005445  -0.005445   0.000697   0.000697
     2  C    0.040446   0.510927   0.000697   0.000697  -0.005445  -0.005445
     3  H   -0.005445   0.000697  -0.016279   0.000183  -0.000016  -0.000077
     4  H   -0.005445   0.000697   0.000183  -0.016279  -0.000077  -0.000016
     5  H    0.000697  -0.005445  -0.000016  -0.000077  -0.016279   0.000183
     6  H    0.000697  -0.005445  -0.000077  -0.000016   0.000183  -0.016279
 Mulliken charges and spin densities:
               1          2
     1  C   -0.067771   0.541877
     2  C   -0.067771   0.541877
     3  H    0.283885  -0.020938
     4  H    0.283885  -0.020938
     5  H    0.283885  -0.020938
     6  H    0.283885  -0.020938
 Sum of Mulliken charges =   1.00000   1.00000
 Mulliken charges and spin densities with hydrogens summed into heavy atoms:
               1          2
     1  C    0.500000   0.500000
     2  C    0.500000   0.500000
 Electronic spatial extent (au):  <R**2>=            125.9039
 Charge=              1.0000 electrons
 Dipole moment (field-independent basis, Debye):
    X=              0.0000    Y=              0.0000    Z=              0.0000  Tot=              0.0000
 Quadrupole moment (field-independent basis, Debye-Ang):
   XX=              0.4313   YY=             -7.9613   ZZ=            -12.7959
   XY=              0.0000   XZ=              0.0000   YZ=              0.0000
 Traceless Quadrupole moment (field-independent basis, Debye-Ang):
   XX=              7.2066   YY=             -1.1860   ZZ=             -6.0206
   XY=              0.0000   XZ=              0.0000   YZ=              0.0000
 Octapole moment (field-independent basis, Debye-Ang**2):
  XXX=              0.0000  YYY=              0.0000  ZZZ=             -0.0000  XYY=              0.0000
  XXY=              0.0000  XXZ=              0.0000  XZZ=              0.0000  YZZ=             -0.0000
  YYZ=              0.0000  XYZ=             -0.0000
 Hexadecapole moment (field-independent basis, Debye-Ang**3):
 XXXX=           -102.1816 YYYY=            -17.4827 ZZZZ=            -13.5113 XXXY=              0.0000
 XXXZ=             -0.0000 YYYX=             -0.0000 YYYZ=              0.0000 ZZZX=             -0.0000
 ZZZY=              0.0000 XXYY=            -10.9319 XXZZ=            -23.5434 YYZZ=             -6.6887
 XXYZ=             -0.0000 YYXZ=              0.0000 ZZXY=             -0.0000
 N-N= 2.519905117767D+01 E-N=-2.263343073878D+02  KE= 7.723041057759D+01
                          Isotropic Fermi Contact Couplings
        Atom                 a.u.       MegaHertz       Gauss      10(-4) cm-1
     1  C(13)              0.09157     102.94749      36.73423      34.33959
     2  C(13)              0.09157     102.94746      36.73422      34.33958
     3  H(1)              -0.00798     -35.66596     -12.72650     -11.89688
     4  H(1)              -0.00798     -35.66595     -12.72650     -11.89688
     5  H(1)              -0.00798     -35.66596     -12.72650     -11.89688
     6  H(1)              -0.00798     -35.66595     -12.72650     -11.89688
 --------------------------------------------------------
       Center         ----  Spin Dipole Couplings  ----
                      3XX-RR        3YY-RR        3ZZ-RR
 --------------------------------------------------------
     1   Atom       -0.287309     -0.289410      0.576718
     2   Atom       -0.287309     -0.289409      0.576718
     3   Atom       -0.019266      0.023995     -0.004729
     4   Atom       -0.019266      0.023995     -0.004729
     5   Atom       -0.019266      0.023995     -0.004729
     6   Atom       -0.019266      0.023995     -0.004729
 --------------------------------------------------------
                        XY            XZ            YZ
 --------------------------------------------------------
     1   Atom        0.000000      0.000000     -0.000000
     2   Atom        0.000000      0.000000      0.000000
     3   Atom        0.030357      0.000000     -0.000000
     4   Atom       -0.030357      0.000000      0.000000
     5   Atom        0.030357      0.000000      0.000000
     6   Atom       -0.030357      0.000000     -0.000000
 --------------------------------------------------------


 ---------------------------------------------------------------------------------
              Anisotropic Spin Dipole Couplings in Principal Axis System
 ---------------------------------------------------------------------------------

       Atom             a.u.   MegaHertz   Gauss  10(-4) cm-1        Axes

              Baa    -0.2894   -38.836   -13.858   -12.954 -0.0000  1.0000  0.0000
     1 C(13)  Bbb    -0.2873   -38.554   -13.757   -12.860  1.0000  0.0000 -0.0000
              Bcc     0.5767    77.390    27.615    25.815  0.0000 -0.0000  1.0000
 
              Baa    -0.2894   -38.836   -13.858   -12.954 -0.0000  1.0000 -0.0000
     2 C(13)  Bbb    -0.2873   -38.554   -13.757   -12.860  1.0000  0.0000 -0.0000
              Bcc     0.5767    77.390    27.615    25.815  0.0000  0.0000  1.0000
 
              Baa    -0.0349   -18.626    -6.646    -6.213  0.8889 -0.4581 -0.0000
     3 H(1)   Bbb    -0.0047    -2.523    -0.900    -0.842  0.0000 -0.0000  1.0000
              Bcc     0.0396    21.149     7.547     7.055  0.4581  0.8889  0.0000
 
              Baa    -0.0349   -18.626    -6.646    -6.213  0.8889  0.4581 -0.0000
     4 H(1)   Bbb    -0.0047    -2.523    -0.900    -0.842  0.0000  0.0000  1.0000
              Bcc     0.0396    21.149     7.547     7.055 -0.4581  0.8889  0.0000
 
              Baa    -0.0349   -18.626    -6.646    -6.213  0.8889 -0.4581 -0.0000
     5 H(1)   Bbb    -0.0047    -2.523    -0.900    -0.842 -0.0000 -0.0000  1.0000
              Bcc     0.0396    21.149     7.547     7.055  0.4581  0.8889  0.0000
 
              Baa    -0.0349   -18.626    -6.646    -6.213  0.8889  0.4581 -0.0000
     6 H(1)   Bbb    -0.0047    -2.523    -0.900    -0.842 -0.0000  0.0000  1.0000
              Bcc     0.0396    21.149     7.547     7.055 -0.4581  0.8889 -0.0000
 

 ---------------------------------------------------------------------------------

 No NMR shielding tensors so no spin-rotation constants.
 Leave Link  601 at Tue Dec  3 13:21:50 2024, MaxMem=  2147483648 cpu:               4.4 elap:               0.2
 (Enter /home/szhao/Apps/g16/l9999.exe)
 1\1\GINC-NODE02\FOpt\UM062X\6-311+G(d,p)\C2H4(1+,2)\SZHAO\03-Dec-2024\
 0\\#p opt UM062X/6-311+G** nosymm int=superfine SCF=NoVarAcc\\Title Ca
 rd Required\\1,2\C,-1.181027,0.,0.\C,1.181027,0.,0.\H,-1.6040104761,-0
 .9994530905,-0.0000000001\H,-1.6040097902,0.999453181,0.\H,1.604010511
 6,0.9994531099,0.0000000005\H,1.6040098258,-0.9994532003,0.0000000006\
 \Version=ES64L-G16RevA.03\HF=-77.9888262\S2=0.752191\S2-1=0.\S2A=0.750
 004\RMSD=2.574e-09\RMSF=7.164e-06\Dipole=0.,0.,0.\Quadrupole=5.3579302
 ,-0.8817687,-4.4761615,0.0000018,0.,0.\PG=CS [SG(C2H4)]\\@


 The impersonal hand of government can
 never replace the helping hand of a neighbor.
                        -- Hubert H. Humphrey
 Job cpu time:       0 days  0 hours  4 minutes 59.9 seconds.
 Elapsed time:       0 days  0 hours  0 minutes 13.6 seconds.
 File lengths (MBytes):  RWF=     22 Int=      0 D2E=      0 Chk=      2 Scr=      2
 Normal termination of Gaussian 16 at Tue Dec  3 13:21:50 2024.
