Title Card Required                                                     
FOpt      UM062X                                                      6-311+G(d,p)        
Number of atoms                            I                4
Info1-9                                    I   N=           9
          13          13           0           0           0         110
           2          18        -502
Full Title                                 C   N=           2
Title Card Required     
Route                                      C   N=           4
#p opt UM062X/6-311+G** nosymm int=superfine    
Charge                                     I                1
Multiplicity                               I                2
Number of electrons                        I               13
Number of alpha electrons                  I                7
Number of beta electrons                   I                6
Number of basis functions                  I               56
Number of independent functions            I               56
Number of point charges in /Mol/           I                0
Number of translation vectors              I                0
Atomic numbers                             I   N=           4
           6           6           1           1
Nuclear charges                            R   N=           4
  6.00000000E+00  6.00000000E+00  1.00000000E+00  1.00000000E+00
Current cartesian coordinates              R   N=          12
 -3.13157854E+00  0.00000000E+00  0.00000000E+00  3.13157854E+00  0.00000000E+00
  0.00000000E+00 -5.24458889E+00  6.53756929E-14  4.18592208E-14  5.24458707E+00
  2.38024305E-14  4.18588100E-14
Number of symbols in /Mol/                 I                0
Force Field                                I                0
Atom Types                                 C   N=           4
                                                
Int Atom Types                             I   N=           4
           0           0           0           0
MM charges                                 R   N=           4
  0.00000000E+00  0.00000000E+00  0.00000000E+00  0.00000000E+00
Integer atomic weights                     I   N=           4
          12          12           1           1
Real atomic weights                        R   N=           4
  1.20000000E+01  1.20000000E+01  1.00782504E+00  1.00782504E+00
Atom fragment info                         I   N=           4
           0           0           0           0
Atom residue num                           I   N=           4
           0           0           0           0
Nuclear spins                              I   N=           4
           0           0           1           1
Nuclear ZEff                               R   N=           4
 -3.60000000E+00 -3.60000000E+00 -1.00000000E+00 -1.00000000E+00
Nuclear ZNuc                               R   N=           4
  6.00000000E+00  6.00000000E+00  1.00000000E+00  1.00000000E+00
Nuclear QMom                               R   N=           4
  0.00000000E+00  0.00000000E+00  0.00000000E+00  0.00000000E+00
Nuclear GFac                               R   N=           4
  0.00000000E+00  0.00000000E+00  2.79284600E+00  2.79284600E+00
MicOpt                                     I   N=           4
          -2          -2          -1          -1
Number of residues                         I                0
Number of secondary structures             I                0
Redundant internal dimensions              I   N=           4
          12           8           4           0
Redundant internal coordinate indices      I   N=          48
           1          -1           0           0           1          -2
           0           0           1          -3           0           0
           2          -1           0           0           2          -2
           0           0           2          -3           0           0
           1           3           0           0           2           4
           0           0           2           1           3          -4
           1           2           4          -4           2           1
           3          -8           1           2           4          -8
Redundant internal coordinates             R   N=          12
 -3.13157854E+00  0.00000000E+00  0.00000000E+00  3.13157854E+00  0.00000000E+00
  0.00000000E+00  2.11301035E+00  2.11300852E+00  3.14159265E+00  3.14159267E+00
  3.14159265E+00  3.14159264E+00
ZRed-IntVec                                I   N=          12
          -1          -1          -1          -1          -1          -1
           0           0           0           0           0           0
ZRed-FPVec                                 R   N=          12
  0.00000000E+00  0.00000000E+00  0.00000000E+00  0.00000000E+00  0.00000000E+00
  0.00000000E+00  0.00000000E+00  0.00000000E+00  0.00000000E+00  0.00000000E+00
  0.00000000E+00  0.00000000E+00
ZRed-Constraint1                           R   N=          12
 -3.13157854E+00  0.00000000E+00  0.00000000E+00  3.13157854E+00  0.00000000E+00
  0.00000000E+00  2.08057524E+00  2.08053366E+00  3.14159265E+00  3.14159265E+00
  3.14159265E+00  3.14159265E+00
ZRed-Constraint2                           R   N=          12
 -3.13157854E+00  0.00000000E+00  0.00000000E+00  3.13157854E+00  0.00000000E+00
  0.00000000E+00  0.00000000E+00  0.00000000E+00  0.00000000E+00  0.00000000E+00
  0.00000000E+00  0.00000000E+00
Number of contracted shells                I               20
Number of primitive shells                 I               38
Pure/Cartesian d shells                    I                0
Pure/Cartesian f shells                    I                0
Highest angular momentum                   I                2
Largest degree of contraction              I                6
Shell types                                I   N=          20
           0          -1          -1          -1          -1          -2
           0          -1          -1          -1          -1          -2
           0           0           0           1           0           0
           0           1
Number of primitives per shell             I   N=          20
           6           3           1           1           1           1
           6           3           1           1           1           1
           3           1           1           1           3           1
           1           1
Shell to atom map                          I   N=          20
           1           1           1           1           1           1
           2           2           2           2           2           2
           3           3           3           3           4           4
           4           4
Primitive exponents                        R   N=          38
  4.56324000E+03  6.82024000E+02  1.54973000E+02  4.44553000E+01  1.30290000E+01
  1.82773000E+00  2.09642000E+01  4.80331000E+00  1.45933000E+00  4.83456000E-01
  1.45585000E-01  4.38000000E-02  6.26000000E-01  4.56324000E+03  6.82024000E+02
  1.54973000E+02  4.44553000E+01  1.30290000E+01  1.82773000E+00  2.09642000E+01
  4.80331000E+00  1.45933000E+00  4.83456000E-01  1.45585000E-01  4.38000000E-02
  6.26000000E-01  3.38650000E+01  5.09479000E+00  1.15879000E+00  3.25840000E-01
  1.02741000E-01  7.50000000E-01  3.38650000E+01  5.09479000E+00  1.15879000E+00
  3.25840000E-01  1.02741000E-01  7.50000000E-01
Contraction coefficients                   R   N=          38
  1.96665025E-03  1.52306019E-02  7.61269097E-02  2.60801033E-01  6.16462078E-01
  2.21006028E-01  1.14660081E-01  9.19999648E-01 -3.03068213E-03  1.00000000E+00
  1.00000000E+00  1.00000000E+00  1.00000000E+00  1.96665025E-03  1.52306019E-02
  7.61269097E-02  2.60801033E-01  6.16462078E-01  2.21006028E-01  1.14660081E-01
  9.19999648E-01 -3.03068213E-03  1.00000000E+00  1.00000000E+00  1.00000000E+00
  1.00000000E+00  2.54938145E-02  1.90373109E-01  8.52161486E-01  1.00000000E+00
  1.00000000E+00  1.00000000E+00  2.54938145E-02  1.90373109E-01  8.52161486E-01
  1.00000000E+00  1.00000000E+00  1.00000000E+00
P(S=P) Contraction coefficients            R   N=          38
  0.00000000E+00  0.00000000E+00  0.00000000E+00  0.00000000E+00  0.00000000E+00
  0.00000000E+00  4.02486927E-02  2.37593957E-01  8.15853851E-01  1.00000000E+00
  1.00000000E+00  1.00000000E+00  0.00000000E+00  0.00000000E+00  0.00000000E+00
  0.00000000E+00  0.00000000E+00  0.00000000E+00  0.00000000E+00  4.02486927E-02
  2.37593957E-01  8.15853851E-01  1.00000000E+00  1.00000000E+00  1.00000000E+00
  0.00000000E+00  0.00000000E+00  0.00000000E+00  0.00000000E+00  0.00000000E+00
  0.00000000E+00  0.00000000E+00  0.00000000E+00  0.00000000E+00  0.00000000E+00
  0.00000000E+00  0.00000000E+00  0.00000000E+00
Coordinates of each shell                  R   N=          60
 -3.13157854E+00  0.00000000E+00  0.00000000E+00 -3.13157854E+00  0.00000000E+00
  0.00000000E+00 -3.13157854E+00  0.00000000E+00  0.00000000E+00 -3.13157854E+00
  0.00000000E+00  0.00000000E+00 -3.13157854E+00  0.00000000E+00  0.00000000E+00
 -3.13157854E+00  0.00000000E+00  0.00000000E+00  3.13157854E+00  0.00000000E+00
  0.00000000E+00  3.13157854E+00  0.00000000E+00  0.00000000E+00  3.13157854E+00
  0.00000000E+00  0.00000000E+00  3.13157854E+00  0.00000000E+00  0.00000000E+00
  3.13157854E+00  0.00000000E+00  0.00000000E+00  3.13157854E+00  0.00000000E+00
  0.00000000E+00 -5.24458889E+00  6.53756929E-14  4.18592208E-14 -5.24458889E+00
  6.53756929E-14  4.18592208E-14 -5.24458889E+00  6.53756929E-14  4.18592208E-14
 -5.24458889E+00  6.53756929E-14  4.18592208E-14  5.24458707E+00  2.38024305E-14
  4.18588100E-14  5.24458707E+00  2.38024305E-14  4.18588100E-14  5.24458707E+00
  2.38024305E-14  4.18588100E-14  5.24458707E+00  2.38024305E-14  4.18588100E-14
Num ILSW                                   I              100
ILSW                                       I   N=         100
           1           0           0           0           2           0
           0           0           0           0        4336          -1
           7           0           0           0           2           0
           0           0           0           0           1           0
           1           1           0           0           0           0
           0           0      100000           0          -1           0
           0           0           0           0           0           0
           0           0           0           1           0           0
           0 -2000000000           1           0           0           0
           0           0           4          52           0           0
           0           0          55           0           0           0
           0           0           0           4           0           1
           0           0           0           0           0           0
           0           0           0           0           0           0
           0           0           0           0           0           0
           0           0           0           0           0           0
           0           0           0           0
Num RLSW                                   I               52
RLSW                                       R   N=          52
  1.00000000E+00  1.00000000E+00  1.00000000E+00  1.00000000E+00  5.40000000E-01
  0.00000000E+00  0.00000000E+00  1.00000000E+00  0.00000000E+00  0.00000000E+00
  0.00000000E+00  0.00000000E+00  1.00000000E+00  0.00000000E+00  0.00000000E+00
  0.00000000E+00  0.00000000E+00  1.00000000E+00  0.00000000E+00  0.00000000E+00
  0.00000000E+00  0.00000000E+00  1.00000000E+00  0.00000000E+00  0.00000000E+00
  0.00000000E+00  0.00000000E+00  1.00000000E+00  0.00000000E+00  0.00000000E+00
  0.00000000E+00  0.00000000E+00  1.00000000E+00  0.00000000E+00  0.00000000E+00
  0.00000000E+00  0.00000000E+00  0.00000000E+00  1.00000000E+00  1.00000000E+00
  0.00000000E+00  1.00000000E+00  0.00000000E+00  0.00000000E+00  0.00000000E+00
  0.00000000E+00  0.00000000E+00  0.00000000E+00  0.00000000E+00  0.00000000E+00
  0.00000000E+00  0.00000000E+00
MxBond                                     I                2
NBond                                      I   N=           4
           2           2           1           1
IBond                                      I   N=           8
           2           3           1           4           1           0
           2           0
RBond                                      R   N=           8
  1.00000000E-01  1.00000000E+00  1.00000000E-01  1.00000000E+00  1.00000000E+00
  0.00000000E+00  1.00000000E+00  0.00000000E+00
Virial Ratio                               R      2.002963783447048E+00
SCF Energy                                 R     -7.658663739378775E+01
Total Energy                               R     -7.658663739378775E+01
S**2                                       R      7.512125709665778E-01
S**2 after annihilation                    R      7.500010491081123E-01
RMS Force                                  R      1.323666152739605E-04
RMS Density                                R      9.139411444553644E-09
Job Status                                 I                1
Nuclear derivative order                   I                1
External E-field                           R   N=          35
  0.00000000E+00  0.00000000E+00  0.00000000E+00  0.00000000E+00  0.00000000E+00
  0.00000000E+00  0.00000000E+00  0.00000000E+00  0.00000000E+00  0.00000000E+00
  0.00000000E+00  0.00000000E+00  0.00000000E+00  0.00000000E+00  0.00000000E+00
  0.00000000E+00  0.00000000E+00  0.00000000E+00  0.00000000E+00  0.00000000E+00
  0.00000000E+00  0.00000000E+00  0.00000000E+00  0.00000000E+00  0.00000000E+00
  0.00000000E+00  0.00000000E+00  0.00000000E+00  0.00000000E+00  0.00000000E+00
  0.00000000E+00  0.00000000E+00  0.00000000E+00  0.00000000E+00  0.00000000E+00
IOpCl                                      I                1
IROHF                                      I                0
Alpha Orbital Energies                     R   N=          56
 -1.09496812E+01 -1.09496720E+01 -9.86885035E-01 -9.83730801E-01 -6.54174794E-01
 -6.23532496E-01 -4.92393066E-01 -4.03585367E-01 -3.40519763E-01 -3.32693165E-01
 -1.26873732E-01 -1.15417857E-01 -7.91486107E-02 -7.40540633E-02 -5.43367537E-02
 -4.96157544E-02 -4.57575295E-02 -1.49619103E-02 -1.47573768E-03  5.99310679E-02
  2.34691931E-01  3.08991758E-01  3.48006496E-01  3.55640104E-01  3.56584984E-01
  3.85678958E-01  3.93636708E-01  5.29274296E-01  5.59673525E-01  6.03759049E-01
  8.88262752E-01  8.89575040E-01  8.95133268E-01  8.98128876E-01  1.07234606E+00
  1.07324141E+00  1.08288323E+00  1.08376698E+00  1.32816898E+00  1.37406186E+00
  1.62041017E+00  1.62350264E+00  1.62784223E+00  1.63052570E+00  2.15633284E+00
  2.18621876E+00  2.26763661E+00  2.34040945E+00  2.42151368E+00  2.43632188E+00
  2.45381986E+00  2.46794955E+00  2.90117177E+00  3.04592147E+00  2.32490305E+01
  2.32703737E+01
Beta Orbital Energies                      R   N=          56
 -1.09456438E+01 -1.09456396E+01 -9.62894686E-01 -9.61035101E-01 -6.40975817E-01
 -6.09375370E-01 -3.22866042E-01 -3.13456249E-01 -3.07174021E-01 -2.96877754E-01
 -1.31970329E-01 -1.14611244E-01 -7.42216349E-02 -6.70389613E-02 -6.26344007E-02
 -4.25706721E-02 -3.34194654E-02 -2.14369292E-02  1.53330000E-02  7.42037910E-02
  2.27814642E-01  3.20988094E-01  3.54691667E-01  3.55892780E-01  3.81921118E-01
  3.88871478E-01  3.91493495E-01  5.56691449E-01  5.63913750E-01  6.22165060E-01
  9.60279402E-01  9.67140958E-01  9.69410733E-01  9.76073250E-01  1.10527500E+00
  1.10529866E+00  1.10536702E+00  1.10542872E+00  1.33211544E+00  1.37825906E+00
  1.63801172E+00  1.64462118E+00  1.64539795E+00  1.65200093E+00  2.30952952E+00
  2.31447978E+00  2.35043558E+00  2.38865185E+00  2.44820604E+00  2.47188761E+00
  2.47886867E+00  2.50124459E+00  2.99938777E+00  3.14260015E+00  2.32622117E+01
  2.32835252E+01
Alpha MO coefficients                      R   N=        3136
  4.02051773E-01  3.31221913E-01 -1.38443737E-03 -6.23659022E-16 -4.40162713E-16
  6.78587431E-03 -9.29905302E-04  6.85867694E-17  5.71051982E-17 -3.40917618E-03
  1.35145726E-04 -3.58719709E-17  1.41911477E-16 -7.20896520E-05  8.52022908E-04
  9.12333582E-17 -2.11992851E-16 -3.39511199E-04  1.01649374E-16  1.11323714E-05
  5.84287842E-04  1.08324258E-16  3.95573544E-01  3.25885381E-01  1.36101367E-03
 -5.33692516E-16 -4.31921843E-16  6.67328921E-03  9.19434666E-04  4.35587392E-16
  2.21858113E-16 -3.34419332E-03 -1.36767941E-04 -1.42529096E-16 -2.40577962E-16
 -1.09962626E-04 -8.17025835E-04 -4.69803178E-17  1.75254719E-16 -3.34426694E-04
 -6.62856354E-17  1.08529885E-05  5.75575700E-04 -8.98857727E-17  2.84637683E-04
 -1.95307100E-03  2.38651660E-03 -1.28911772E-03  2.88738339E-16  1.52530415E-16
  2.79711019E-04 -1.92338748E-03  2.34978839E-03  1.26965727E-03  6.88747820E-17
  2.27628245E-16 -3.95574588E-01 -3.25859822E-01  1.43085994E-03  9.90632709E-16
  1.10425518E-15 -6.87679373E-03  6.37663641E-04 -8.58736791E-16 -9.60897972E-16
  3.97296212E-03  1.00925228E-04  7.45704334E-16  5.22019544E-16 -2.33198734E-03
 -2.14770904E-03 -2.24075551E-16 -2.35716733E-16  3.10418813E-04 -7.76751427E-17
 -1.71079474E-05 -5.31875722E-04 -6.71882800E-17  4.02052800E-01  3.31196764E-01
  1.45315821E-03 -1.97731253E-16 -5.87781718E-16  6.98611493E-03  6.52692393E-04
  7.72558419E-17  2.85654054E-16 -4.02781122E-03  9.87166398E-05 -9.19490309E-17
 -1.31305330E-16  2.33050617E-03 -2.16126571E-03  4.06415782E-17  9.39743972E-17
 -3.15894653E-04 -5.19435785E-17  1.72864738E-05  5.41299813E-04 -8.61127838E-17
 -3.00910065E-04  1.81240045E-03 -2.24227519E-03  1.18808017E-03 -2.75726996E-16
 -1.27248048E-16  3.05492242E-04 -1.84389621E-03  2.28074903E-03  1.20886912E-03
  1.19975645E-16  1.86269216E-16 -8.01768425E-02 -1.30813365E-01 -5.42709665E-02
 -1.15523451E-14 -6.77478759E-15  3.84737068E-01 -8.35113344E-02 -2.79707826E-14
 -1.73212319E-14  2.50402327E-01 -2.77679714E-02 -2.82563384E-14 -1.80558170E-14
 -1.45879679E-03 -6.63183892E-03  4.96431940E-15  3.33979121E-15 -4.03096158E-03
  1.10786160E-14 -5.21217854E-04  7.15825704E-03  1.58437136E-14 -8.01821394E-02
 -1.30822000E-01  5.42748607E-02 -4.05511728E-15 -7.18261162E-15  3.84762353E-01
  8.35172723E-02 -1.02117739E-14 -1.77788268E-14  2.50419365E-01  2.77703985E-02
 -1.06466367E-14 -1.85594044E-14 -1.46087843E-03  6.63359384E-03  2.40839287E-15
  3.85087850E-15 -4.03126762E-03 -9.55231924E-15 -5.21232163E-04  7.15879197E-03
 -6.42693897E-15  9.68087620E-02  1.21722710E-01 -1.01879912E-02  1.67893308E-02
  3.51393943E-14  2.26819133E-14  9.68154598E-02  1.21730858E-01 -1.01890932E-02
 -1.67904278E-02  1.29865323E-14  2.20844499E-14 -7.98785502E-02 -1.30279548E-01
 -5.70705509E-02 -1.06778410E-14 -6.78028875E-15  3.82248265E-01 -8.78497686E-02
 -2.89654556E-14 -1.71546141E-14  2.59304762E-01 -3.64812380E-02 -2.70151512E-14
 -1.70038007E-14 -3.19513668E-02 -2.68462282E-02  4.44780898E-15  2.30955405E-15
 -4.43762089E-03  1.09295560E-14 -1.78151935E-04  7.74649276E-03  1.58871171E-14
  7.98731948E-02  1.30270807E-01 -5.70670433E-02  3.63305570E-15  6.75306745E-15
 -3.82222504E-01 -8.78443177E-02  1.06429110E-14  1.79692657E-14 -2.59287897E-01
 -3.64794058E-02  9.54491218E-15  1.76251126E-14  3.19512680E-02 -2.68457781E-02
 -6.99302918E-16 -2.39710117E-15  4.43736523E-03  9.93083030E-15  1.78119485E-04
 -7.74603897E-03  6.36007444E-15  9.86245783E-02  1.21145013E-01 -1.65378571E-02
  1.63463848E-02  3.55691707E-14  2.28101839E-14 -9.86182763E-02 -1.21136990E-01
  1.65371862E-02  1.63452745E-02 -1.30932887E-14 -2.27551606E-14 -3.86705163E-02
 -6.44168243E-02  1.64519721E-01  6.00040421E-14  4.67327395E-14  1.98885628E-01
  2.44183511E-01  8.08181288E-14  6.45253529E-14  2.34321394E-01  1.45580840E-01
  8.65003099E-14  6.33330385E-14  1.73665868E-02  1.71699055E-03  5.11751627E-16
 -2.43368472E-15  1.40295735E-02 -1.76161045E-14 -1.94559427E-04 -2.42340159E-02
 -2.79935663E-14 -3.86705782E-02 -6.44169290E-02 -1.64519851E-01  2.79417216E-14
  3.53821841E-14  1.98885938E-01 -2.44183656E-01  3.89589484E-14  4.66439451E-14
  2.34321917E-01 -1.45580852E-01  3.70267984E-14  5.21675557E-14  1.73665932E-02
 -1.71695388E-03 -4.63827286E-15 -1.55466872E-15  1.40295889E-02  1.80854708E-14
 -1.94559949E-04 -2.42340424E-02  9.73771422E-15 -9.42756866E-02 -1.63081144E-01
 -6.14925456E-02 -8.15215160E-03 -1.83330756E-14 -1.15212222E-14 -9.42757246E-02
 -1.63081178E-01 -6.14926154E-02  8.15214448E-03 -6.59138165E-15 -1.14971059E-14
 -4.49978249E-02 -7.50309069E-02  1.70833813E-01  6.60673100E-14  5.46912670E-14
  2.33820950E-01  2.46863595E-01  8.98698336E-14  7.73788463E-14  2.62777502E-01
  1.65716690E-01  9.56348734E-14  7.37659608E-14  2.39354011E-02  1.02745934E-02
  6.34708504E-15  6.48317262E-15  1.59943886E-02 -1.86711550E-14  2.53266514E-04
 -2.77887507E-02 -2.91691017E-14  4.49978216E-02  7.50309032E-02  1.70833718E-01
 -3.12078852E-14 -3.92697038E-14 -2.33820923E-01  2.46863404E-01 -4.50380941E-14
 -5.21323580E-14 -2.62777620E-01  1.65716536E-01 -3.96475564E-14 -5.67966095E-14
 -2.39354157E-02  1.02745831E-02 -7.50669503E-15 -5.90008854E-15 -1.59943837E-02
 -1.91252186E-14 -2.53265501E-04  2.77887418E-02 -1.04683689E-14 -9.70499191E-02
 -1.69967787E-01 -5.78902757E-02 -7.47168421E-03 -1.70612029E-14 -1.05033870E-14
  9.70498248E-02  1.69967568E-01  5.78902048E-02 -7.47166687E-03  6.08369545E-15
  1.08140816E-14  7.52656886E-16  1.65241804E-15  1.00037352E-14 -1.33023354E-01
  1.57427133E-01  3.02861849E-14  3.35985425E-14 -2.08759199E-01  2.47057118E-01
 -3.76224289E-13  2.52217829E-13 -1.91884652E-01  2.27086445E-01  1.67154979E-13
  3.41210482E-13 -1.35539540E-02  1.60404795E-02  1.37760659E-14 -1.13621426E-02
 -2.97438498E-15 -3.79704524E-14  9.60087884E-03 -1.23316250E-15 -2.91367363E-15
  1.58614724E-14 -1.33023380E-01  1.57427163E-01 -3.82632085E-14  7.01255592E-14
 -2.08759247E-01  2.47057173E-01  5.15644724E-13  3.32160816E-13 -1.91884698E-01
  2.27086499E-01 -8.35763251E-14  4.05548924E-13 -1.35539581E-02  1.60404843E-02
 -3.36267878E-14  1.13621589E-02  7.06745627E-16  4.91422625E-14 -9.60089265E-03
 -6.64805845E-15  1.34970836E-13  4.62415222E-13  5.28676160E-14 -9.55298235E-03
  1.13055421E-02  1.00269445E-14 -1.91083166E-13 -6.63306562E-13  8.17365440E-14
 -9.55299347E-03  1.13055552E-02  2.23315130E-15  4.61794924E-15  3.90658023E-15
 -1.35323160E-01  1.60148900E-01  3.67862160E-15  6.05411063E-14 -2.12793891E-01
  2.51832067E-01 -2.05064266E-13  9.22737708E-14 -1.92685596E-01  2.28034415E-01
 -2.07174524E-13  4.35419237E-14 -2.11876359E-02  2.50746343E-02  9.64903480E-15
 -1.57701666E-02 -2.53270674E-15 -3.02188960E-14  1.33255842E-02  1.39289103E-15
  3.62842531E-15 -1.48190956E-14  1.35323122E-01 -1.60148854E-01  2.59165882E-14
 -9.26333889E-14  2.12793839E-01 -2.51832004E-01 -4.12889235E-13 -2.40003352E-13
  1.92685552E-01 -2.28034362E-01 -1.53401003E-13 -2.28192524E-13  2.11876314E-02
 -2.50746288E-02  3.19058337E-14 -1.57701759E-02 -1.21466980E-15 -4.60986954E-14
  1.33255922E-02 -2.34009649E-15  9.23826461E-14  2.89078127E-13  4.68630007E-14
 -1.08501611E-02  1.28406958E-02 -8.73318087E-15  1.66282794E-13  5.69847261E-13
 -7.94361057E-14  1.08501671E-02 -1.28407029E-02 -3.12563018E-15 -1.01312050E-14
 -8.12417458E-14  1.47187280E-01  1.24370988E-01 -1.49536560E-13 -4.17037162E-13
  2.37197191E-01  2.00428009E-01  1.98148757E-12 -1.21267329E-12  2.29566024E-01
  1.93979420E-01  7.73072064E-13 -1.22600975E-12  3.97874873E-02  3.36197912E-02
 -1.22812195E-13 -9.84697089E-03 -7.61626351E-15  2.17773664E-13 -1.16534938E-02
 -5.93338663E-15 -1.38020716E-14  3.38817654E-14  1.47186523E-01  1.24370349E-01
 -3.05503880E-14  2.76357062E-13  2.37195973E-01  2.00426981E-01  8.68143823E-13
  4.52716103E-13  2.29564885E-01  1.93978459E-01  1.09191898E-12  1.78722291E-13
  3.97872556E-02  3.36195956E-02 -6.58115035E-14  9.84692083E-03 -5.06739375E-15
  1.11177171E-13  1.16534345E-02  4.62305971E-14 -7.01853562E-13 -2.91313141E-12
 -3.56349626E-13  1.23929621E-02  1.04718778E-02  1.80827135E-14 -3.48726586E-13
 -1.39101016E-12  1.97188870E-13  1.23929073E-02  1.04718315E-02 -2.87512878E-15
 -1.33458582E-15  1.05485237E-13 -1.51516285E-01 -1.28028868E-01  2.47997094E-13
  3.72431645E-13 -2.44561591E-01 -2.06650710E-01 -2.58250865E-12  1.72147532E-12
 -2.33184032E-01 -1.97036506E-01  3.86568931E-13  2.24284568E-12 -4.97959804E-02
 -4.20768228E-02  1.42538657E-13  1.17042642E-02  7.69138331E-15 -2.52577164E-13
  1.38515235E-02  4.98592245E-15  7.28554747E-15  7.39219871E-14  1.51516996E-01
  1.28029470E-01 -1.98498028E-13  1.83575724E-13  2.44562740E-01  2.06651682E-01
  1.82277223E-12  1.27198808E-12  2.33185168E-01  1.97037467E-01 -8.85529387E-13
  1.87473424E-12  4.97961888E-02  4.20769990E-02 -9.51712257E-14  1.17043197E-02
 -4.99211454E-15  1.61932795E-13  1.38515891E-02 -6.23341773E-14  8.63640992E-13
  3.55756210E-12  3.90268707E-13 -1.31573671E-02 -1.11177811E-02  4.48297163E-14
 -5.73151702E-13 -2.41508623E-12  2.41381832E-13  1.31574378E-02  1.11178409E-02
  3.00067270E-02  5.09896742E-02  3.49582198E-02  1.57679257E-14  9.70223489E-15
 -1.63444608E-01  8.12377258E-02  1.59498334E-14  9.47757901E-15 -4.89934919E-01
  9.97383697E-02  6.80580854E-15  4.04652626E-15  9.60634591E-01 -3.56060451E-01
  1.07522358E-14  5.80589672E-15  4.43558989E-03  3.05056808E-15 -2.08000367E-03
 -6.97869364E-03  4.98435031E-15  3.00066350E-02  5.09895207E-02 -3.49577573E-02
  5.96411481E-15  1.15471140E-14 -1.63444104E-01 -8.12370778E-02  5.99395610E-15
  1.28288862E-14 -4.89933654E-01 -9.97371938E-02  4.31622442E-15  7.78077562E-15
  9.60634495E-01  3.56056620E-01 -6.64596695E-15 -2.23491067E-15  4.43559209E-03
 -2.88179140E-15 -2.07999868E-03 -6.97869916E-03 -1.73409677E-15  5.15713665E-03
  1.53107005E-01 -1.43373252E-01 -4.85776512E-03 -2.79242879E-14 -1.76383156E-14
  5.15702824E-03  1.53106421E-01 -1.43373507E-01  4.85764903E-03 -9.95619139E-15
 -1.79167709E-14 -1.96410120E-02 -3.41732582E-02 -6.58498876E-02  5.34194374E-15
  4.80418991E-15  1.26670595E-01 -1.14762631E-01  3.53531110E-14  2.53644877E-14
  2.10950137E-01 -1.40553167E-01  3.75457515E-14  2.56647229E-14 -2.16531173E-01
  1.00678647E+00 -6.26033006E-14 -3.32006890E-14 -4.99339178E-03 -5.29121923E-17
  1.26252520E-03  8.22148182E-03 -1.70161195E-16  1.96411135E-02  3.41734346E-02
 -6.58498291E-02 -2.71055273E-15 -1.06639368E-15 -1.26671215E-01 -1.14762737E-01
 -1.42026877E-14 -1.89764052E-14 -2.10951427E-01 -1.40552647E-01 -1.37372482E-14
 -1.89543289E-14  2.16536173E-01  1.00678816E+00  1.66938746E-14  4.01701785E-14
  4.99343323E-03 -1.33983058E-16 -1.26253491E-03 -8.22155033E-03 -9.23424799E-17
  5.00989854E-03 -1.13012262E-01  2.48559398E-01  1.39872668E-02  2.88356246E-14
  1.86026460E-14 -5.01004309E-03  1.13012510E-01 -2.48561654E-01  1.39872441E-02
 -1.02459294E-14 -1.81116223E-14 -5.64710280E-15 -3.09938683E-15 -1.33356286E-14
 -7.04189166E-02 -5.95040976E-02 -1.53420475E-14  1.40625742E-13 -8.31859437E-02
 -7.02920364E-02  1.87712335E-13  1.11906688E-14 -2.33981257E-01 -1.97714738E-01
  4.42481419E-13 -4.84419973E-13  5.44510251E-01  4.60113132E-01  3.87006827E-14
  6.86918661E-03  2.60067090E-15 -6.87158193E-14  8.12924538E-03 -3.58366086E-15
 -2.18572058E-15 -1.17493783E-15 -7.04188839E-02 -5.95040700E-02 -8.57247780E-15
 -9.09256111E-14 -8.31859074E-02 -7.02920058E-02  1.07400678E-13 -5.79139164E-14
 -2.33981162E-01 -1.97714658E-01  3.40169116E-13  3.24687022E-13  5.44509838E-01
  4.60112782E-01  2.43639466E-14 -6.86919262E-03  1.70786202E-15 -4.12109144E-14
 -8.12925249E-03 -4.87869488E-14  4.55341017E-13 -1.02364463E-12  1.09353334E-13
 -2.65842557E-04 -2.24611791E-04 -2.99376590E-14  2.80226904E-13 -5.87355300E-13
 -6.32186777E-14 -2.65855824E-04 -2.24623005E-04  7.52768854E-16  4.52721091E-16
  7.80174496E-15  5.50232922E-02 -6.51158874E-02  4.03775201E-15 -1.07879424E-14
  5.76278844E-02 -6.81979317E-02 -6.10900782E-14  4.37552787E-14  1.86075971E-01
 -2.20207051E-01  2.74749973E-15  8.44599261E-14 -4.60861045E-01  5.45395478E-01
 -2.09813939E-15  7.62849778E-03  5.99921138E-16  7.08687335E-15 -6.44615857E-03
 -1.43670209E-15 -1.10474243E-15  9.59021257E-15  5.50232639E-02 -6.51158539E-02
 -5.14031709E-15 -1.97301880E-14  5.76278576E-02 -6.81979001E-02  9.28819681E-14
  5.28692502E-14  1.86075886E-01 -2.20206950E-01  5.65175203E-14  1.36520461E-13
 -4.60860719E-01  5.45395092E-01  7.41422012E-15 -7.62850495E-03 -3.05510055E-16
 -1.06678145E-14  6.44616462E-03  5.25220487E-15 -4.83301723E-14  1.91482754E-13
 -1.19992430E-14 -6.98020241E-04  8.26088997E-04 -9.87037362E-15  8.17550028E-14
 -3.10584956E-13 -1.94109366E-14 -6.98009387E-04  8.26076148E-04 -7.25918714E-03
 -1.21106289E-02  1.01614834E-01  1.05289516E-13  4.05841976E-14  4.15790069E-02
  1.04221385E-01  2.52192587E-13  1.38648985E-13 -4.55657810E-03  5.77822970E-01
  3.85244076E-13  1.34379575E-13 -4.68532495E-01 -5.72907659E-01 -1.10393399E-12
 -3.10385097E-13 -1.08464764E-03  9.79816807E-16  1.53940892E-03  1.35775481E-03
  2.60940061E-15 -7.25918313E-03 -1.21106216E-02 -1.01614544E-01 -6.92733384E-14
 -7.62072135E-15  4.15789606E-02 -1.04221013E-01 -2.27888531E-14  7.43797068E-14
 -4.55669962E-03 -5.77821917E-01 -2.77003994E-13 -3.50593753E-14 -4.68528683E-01
  5.72908238E-01  1.05513670E-12  2.69625739E-13 -1.08461013E-03 -1.50296143E-15
  1.53940419E-03  1.35769144E-03 -3.21854288E-16  1.16045572E-02  1.23911059E-01
  6.19915401E-01 -1.43122452E-02 -2.13749345E-14 -1.03578992E-14  1.16042896E-02
  1.23910707E-01  6.19912450E-01  1.43122201E-02  3.53295764E-15 -6.95770250E-15
 -2.18496130E-14 -3.01086942E-14 -3.68573190E-14 -6.37393193E-02 -5.38592763E-02
  1.32575732E-14  6.47431767E-14 -7.13007929E-02 -6.02485396E-02  1.14913424E-12
 -3.72746498E-13 -2.42661504E-01 -2.05047364E-01  9.91130691E-13 -1.71242951E-12
  8.49927621E-01  7.18183520E-01  2.54746476E-14 -4.02404791E-04  2.10347636E-15