Title Card Required                                                     
Force     UM062X                                                      6-311+G(d,p)        
Number of atoms                            I                6
Info1-9                                    I   N=           9
          15          15           0           0           0         100
           5          18        -502
Full Title                                 C   N=           2
Title Card Required     
Route                                      C   N=           4
#p UM062X/6-311+G** force int=superfine         
Charge                                     I                0
Multiplicity                               I                1
Number of electrons                        I               16
Number of alpha electrons                  I                8
Number of beta electrons                   I                8
Number of basis functions                  I               68
Number of independent functions            I               68
Number of point charges in /Mol/           I                0
Number of translation vectors              I                0
Atomic numbers                             I   N=           6
           6           6           1           1           1           1
Nuclear charges                            R   N=           6
  6.00000000E+00  6.00000000E+00  1.00000000E+00  1.00000000E+00  1.00000000E+00
  1.00000000E+00
Current cartesian coordinates              R   N=          18
 -4.64157739E-21  1.97918198E+00  0.00000000E+00 -2.42372152E-16 -1.97918198E+00
  0.00000000E+00  1.84678021E+00  2.83869556E+00  0.00000000E+00 -1.84667249E+00
  2.83859730E+00  0.00000000E+00 -1.84678021E+00 -2.83869556E+00  0.00000000E+00
  1.84667249E+00 -2.83859730E+00  0.00000000E+00
Number of symbols in /Mol/                 I                0
Force Field                                I                0
Atom Types                                 C   N=           6
                                                            
            
Int Atom Types                             I   N=           6
           0           0           0           0           0           0
MM charges                                 R   N=           6
  0.00000000E+00  0.00000000E+00  0.00000000E+00  0.00000000E+00  0.00000000E+00
  0.00000000E+00
Integer atomic weights                     I   N=           6
          12          12           1           1           1           1
Real atomic weights                        R   N=           6
  1.20000000E+01  1.20000000E+01  1.00782504E+00  1.00782504E+00  1.00782504E+00
  1.00782504E+00
Atom fragment info                         I   N=           6
           0           0           0           0           0           0
Atom residue num                           I   N=           6
           0           0           0           0           0           0
Nuclear spins                              I   N=           6
           0           0           1           1           1           1
Nuclear ZEff                               R   N=           6
 -3.60000000E+00 -3.60000000E+00 -1.00000000E+00 -1.00000000E+00 -1.00000000E+00
 -1.00000000E+00
Nuclear ZNuc                               R   N=           6
  6.00000000E+00  6.00000000E+00  1.00000000E+00  1.00000000E+00  1.00000000E+00
  1.00000000E+00
Nuclear QMom                               R   N=           6
  0.00000000E+00  0.00000000E+00  0.00000000E+00  0.00000000E+00  0.00000000E+00
  0.00000000E+00
Nuclear GFac                               R   N=           6
  0.00000000E+00  0.00000000E+00  2.79284600E+00  2.79284600E+00  2.79284600E+00
  2.79284600E+00
MicOpt                                     I   N=           6
          -1          -1          -1          -1          -1          -1
Number of residues                         I                0
Number of secondary structures             I                0
SymInf integers                            I   N=          26
           2           4           1           1           1          -1
          -1           1           1           1          -1          -1
          -1          -1           0           0           0           0
           0           0           0           0           0           0
           0           0
RotTr to input orientation                 R   N=          12
 -1.04284612E-16 -1.00000000E+00 -1.81928288E-21 -1.00000000E+00  1.04285393E-16
 -1.22464680E-16  1.22464680E-16  1.81928288E-21 -1.00000000E+00 -2.77555756E-17
  0.00000000E+00  0.00000000E+00
Number of contracted shells                I               28
Number of primitive shells                 I               50
Pure/Cartesian d shells                    I                0
Pure/Cartesian f shells                    I                0
Highest angular momentum                   I                2
Largest degree of contraction              I                6
Shell types                                I   N=          28
           0          -1          -1          -1          -1          -2
           0          -1          -1          -1          -1          -2
           0           0           0           1           0           0
           0           1           0           0           0           1
           0           0           0           1
Number of primitives per shell             I   N=          28
           6           3           1           1           1           1
           6           3           1           1           1           1
           3           1           1           1           3           1
           1           1           3           1           1           1
           3           1           1           1
Shell to atom map                          I   N=          28
           1           1           1           1           1           1
           2           2           2           2           2           2
           3           3           3           3           4           4
           4           4           5           5           5           5
           6           6           6           6
Primitive exponents                        R   N=          50
  4.56324000E+03  6.82024000E+02  1.54973000E+02  4.44553000E+01  1.30290000E+01
  1.82773000E+00  2.09642000E+01  4.80331000E+00  1.45933000E+00  4.83456000E-01
  1.45585000E-01  4.38000000E-02  6.26000000E-01  4.56324000E+03  6.82024000E+02
  1.54973000E+02  4.44553000E+01  1.30290000E+01  1.82773000E+00  2.09642000E+01
  4.80331000E+00  1.45933000E+00  4.83456000E-01  1.45585000E-01  4.38000000E-02
  6.26000000E-01  3.38650000E+01  5.09479000E+00  1.15879000E+00  3.25840000E-01
  1.02741000E-01  7.50000000E-01  3.38650000E+01  5.09479000E+00  1.15879000E+00
  3.25840000E-01  1.02741000E-01  7.50000000E-01  3.38650000E+01  5.09479000E+00
  1.15879000E+00  3.25840000E-01  1.02741000E-01  7.50000000E-01  3.38650000E+01
  5.09479000E+00  1.15879000E+00  3.25840000E-01  1.02741000E-01  7.50000000E-01
Contraction coefficients                   R   N=          50
  1.96665025E-03  1.52306019E-02  7.61269097E-02  2.60801033E-01  6.16462078E-01
  2.21006028E-01  1.14660081E-01  9.19999648E-01 -3.03068213E-03  1.00000000E+00
  1.00000000E+00  1.00000000E+00  1.00000000E+00  1.96665025E-03  1.52306019E-02
  7.61269097E-02  2.60801033E-01  6.16462078E-01  2.21006028E-01  1.14660081E-01
  9.19999648E-01 -3.03068213E-03  1.00000000E+00  1.00000000E+00  1.00000000E+00
  1.00000000E+00  2.54938145E-02  1.90373109E-01  8.52161486E-01  1.00000000E+00
  1.00000000E+00  1.00000000E+00  2.54938145E-02  1.90373109E-01  8.52161486E-01
  1.00000000E+00  1.00000000E+00  1.00000000E+00  2.54938145E-02  1.90373109E-01
  8.52161486E-01  1.00000000E+00  1.00000000E+00  1.00000000E+00  2.54938145E-02
  1.90373109E-01  8.52161486E-01  1.00000000E+00  1.00000000E+00  1.00000000E+00
P(S=P) Contraction coefficients            R   N=          50
  0.00000000E+00  0.00000000E+00  0.00000000E+00  0.00000000E+00  0.00000000E+00
  0.00000000E+00  4.02486927E-02  2.37593957E-01  8.15853851E-01  1.00000000E+00
  1.00000000E+00  1.00000000E+00  0.00000000E+00  0.00000000E+00  0.00000000E+00
  0.00000000E+00  0.00000000E+00  0.00000000E+00  0.00000000E+00  4.02486927E-02
  2.37593957E-01  8.15853851E-01  1.00000000E+00  1.00000000E+00  1.00000000E+00
  0.00000000E+00  0.00000000E+00  0.00000000E+00  0.00000000E+00  0.00000000E+00
  0.00000000E+00  0.00000000E+00  0.00000000E+00  0.00000000E+00  0.00000000E+00
  0.00000000E+00  0.00000000E+00  0.00000000E+00  0.00000000E+00  0.00000000E+00
  0.00000000E+00  0.00000000E+00  0.00000000E+00  0.00000000E+00  0.00000000E+00
  0.00000000E+00  0.00000000E+00  0.00000000E+00  0.00000000E+00  0.00000000E+00
Coordinates of each shell                  R   N=          84
 -3.09438492E-21  1.97918198E+00  0.00000000E+00 -3.09438492E-21  1.97918198E+00
  0.00000000E+00 -3.09438492E-21  1.97918198E+00  0.00000000E+00 -3.09438492E-21
  1.97918198E+00  0.00000000E+00 -3.09438492E-21  1.97918198E+00  0.00000000E+00
 -3.09438492E-21  1.97918198E+00  0.00000000E+00 -2.42373699E-16 -1.97918198E+00
  1.16397824E-57 -2.42373699E-16 -1.97918198E+00  1.16397824E-57 -2.42373699E-16
 -1.97918198E+00  1.16397824E-57 -2.42373699E-16 -1.97918198E+00  1.16397824E-57
 -2.42373699E-16 -1.97918198E+00  1.16397824E-57 -2.42373699E-16 -1.97918198E+00
  1.16397824E-57  1.84678021E+00  2.83869556E+00  0.00000000E+00  1.84678021E+00
  2.83869556E+00  0.00000000E+00  1.84678021E+00  2.83869556E+00  0.00000000E+00
  1.84678021E+00  2.83869556E+00  0.00000000E+00 -1.84667249E+00  2.83859730E+00
  0.00000000E+00 -1.84667249E+00  2.83859730E+00  0.00000000E+00 -1.84667249E+00
  2.83859730E+00  0.00000000E+00 -1.84667249E+00  2.83859730E+00  0.00000000E+00
 -1.84678021E+00 -2.83869556E+00 -6.94681505E-37 -1.84678021E+00 -2.83869556E+00
 -6.94681505E-37 -1.84678021E+00 -2.83869556E+00 -6.94681505E-37 -1.84678021E+00
 -2.83869556E+00 -6.94681505E-37  1.84667249E+00 -2.83859730E+00  6.94640987E-37
  1.84667249E+00 -2.83859730E+00  6.94640987E-37  1.84667249E+00 -2.83859730E+00
  6.94640987E-37  1.84667249E+00 -2.83859730E+00  6.94640987E-37
Num ILSW                                   I              100
ILSW                                       I   N=         100
           1           0           0           0           2           0
           0           0           0           0        4336          -1
           7           0           0           0           2           0
           0           0           0           0           1           0
           1           0           0           0           0           0
           0           0      100000           0          -1           0
           0           0           0           0           0           0
           0           0           0           1           0           0
           0 -2000000000           1           0           0           0
           0           0           4          52           0           0
           0           0          55           0           0           0
           0           0           0           6           0           1
           0           0           0           0           0           0
           0           0           0           0           0           0
           0           0           0           0           0           0
           0           0           0           0           0           0
           0           0           0           0
Num RLSW                                   I               52
RLSW                                       R   N=          52
  1.00000000E+00  1.00000000E+00  1.00000000E+00  1.00000000E+00  5.40000000E-01
  0.00000000E+00  0.00000000E+00  1.00000000E+00  0.00000000E+00  0.00000000E+00
  0.00000000E+00  0.00000000E+00  1.00000000E+00  0.00000000E+00  0.00000000E+00
  0.00000000E+00  0.00000000E+00  1.00000000E+00  0.00000000E+00  0.00000000E+00
  0.00000000E+00  0.00000000E+00  1.00000000E+00  0.00000000E+00  0.00000000E+00
  0.00000000E+00  0.00000000E+00  1.00000000E+00  0.00000000E+00  0.00000000E+00
  0.00000000E+00  0.00000000E+00  1.00000000E+00  0.00000000E+00  0.00000000E+00
  0.00000000E+00  0.00000000E+00  0.00000000E+00  1.00000000E+00  1.00000000E+00
  0.00000000E+00  1.00000000E+00  0.00000000E+00  0.00000000E+00  0.00000000E+00
  0.00000000E+00  0.00000000E+00  0.00000000E+00  0.00000000E+00  0.00000000E+00
  0.00000000E+00  0.00000000E+00
MxBond                                     I                2
NBond                                      I   N=           6
           2           2           1           1           1           1
IBond                                      I   N=          12
           3           4           5           6           1           0
           1           0           2           0           2           0
RBond                                      R   N=          12
  1.00000000E+00  1.00000000E+00  1.00000000E+00  1.00000000E+00  1.00000000E+00
  0.00000000E+00  1.00000000E+00  0.00000000E+00  1.00000000E+00  0.00000000E+00
  1.00000000E+00  0.00000000E+00
Virial Ratio                               R      2.012082606203922E+00
SCF Energy                                 R     -7.835024156735676E+01
Total Energy                               R     -7.835024156735676E+01
S**2                                       R      8.881784197001252E-15
S**2 after annihilation                    R      9.325873406851286E-14
RMS Force                                  R      5.122578456927893E-02
RMS Density                                R      4.787799055448330E-09
Job Status                                 I                1
Nuclear derivative order                   I                1
External E-field                           R   N=          35
  0.00000000E+00  0.00000000E+00  0.00000000E+00  0.00000000E+00  0.00000000E+00
  0.00000000E+00  0.00000000E+00  0.00000000E+00  0.00000000E+00  0.00000000E+00
  0.00000000E+00  0.00000000E+00  0.00000000E+00  0.00000000E+00  0.00000000E+00
  0.00000000E+00  0.00000000E+00  0.00000000E+00  0.00000000E+00  0.00000000E+00
  0.00000000E+00  0.00000000E+00  0.00000000E+00  0.00000000E+00  0.00000000E+00
  0.00000000E+00  0.00000000E+00  0.00000000E+00  0.00000000E+00  0.00000000E+00
  0.00000000E+00  0.00000000E+00  0.00000000E+00  0.00000000E+00  0.00000000E+00
IOpCl                                      I                1
IROHF                                      I                0
Alpha Orbital Energies                     R   N=          68
 -1.06146600E+01 -1.06145397E+01 -7.71249327E-01 -7.18879105E-01 -5.30509413E-01
 -5.03644940E-01 -3.68149790E-01 -2.56621177E-01 -7.29464886E-02  7.88623340E-03
  3.36279214E-02  5.38091009E-02  7.26545698E-02  8.00420463E-02  9.18699081E-02
  9.92766149E-02  1.13395530E-01  1.51998065E-01  1.64076650E-01  2.03033788E-01
  2.13349099E-01  2.79455492E-01  3.94865319E-01  4.34225145E-01  4.46559068E-01
  5.83573600E-01  6.18609451E-01  6.40380611E-01  6.49372917E-01  6.70136562E-01
  7.02733136E-01  7.62988156E-01  7.64078499E-01  8.22313952E-01  1.07855589E+00
  1.09284855E+00  1.16969143E+00  1.18181741E+00  1.39720486E+00  1.41541720E+00
  1.44650370E+00  1.51485366E+00  1.52278349E+00  1.70338714E+00  1.73632431E+00
  1.77549624E+00  1.81418252E+00  1.86579606E+00  1.92961024E+00  2.00834652E+00
  2.02080821E+00  2.05709719E+00  2.35845578E+00  2.53251085E+00  2.57233283E+00
  2.59451221E+00  2.62297396E+00  2.63673118E+00  2.64934425E+00  2.70013006E+00
  2.76344738E+00  2.77429094E+00  2.78512336E+00  3.31947039E+00  3.70946521E+00
  3.74657473E+00  2.38233834E+01  2.38265537E+01
Beta Orbital Energies                      R   N=          68
 -1.06146600E+01 -1.06145397E+01 -7.71249327E-01 -7.18879105E-01 -5.30509413E-01
 -5.03644940E-01 -3.68149790E-01 -2.56621177E-01 -7.29464886E-02  7.88623340E-03
  3.36279214E-02  5.38091009E-02  7.26545698E-02  8.00420463E-02  9.18699081E-02
  9.92766149E-02  1.13395530E-01  1.51998065E-01  1.64076650E-01  2.03033788E-01
  2.13349099E-01  2.79455492E-01  3.94865319E-01  4.34225145E-01  4.46559068E-01
  5.83573600E-01  6.18609451E-01  6.40380611E-01  6.49372917E-01  6.70136562E-01
  7.02733136E-01  7.62988156E-01  7.64078499E-01  8.22313952E-01  1.07855589E+00
  1.09284855E+00  1.16969143E+00  1.18181741E+00  1.39720486E+00  1.41541720E+00
  1.44650370E+00  1.51485366E+00  1.52278349E+00  1.70338714E+00  1.73632431E+00
  1.77549624E+00  1.81418252E+00  1.86579606E+00  1.92961024E+00  2.00834652E+00
  2.02080821E+00  2.05709719E+00  2.35845578E+00  2.53251085E+00  2.57233283E+00
  2.59451221E+00  2.62297396E+00  2.63673118E+00  2.64934425E+00  2.70013006E+00
  2.76344738E+00  2.77429094E+00  2.78512336E+00  3.31947039E+00  3.70946521E+00
  3.74657473E+00  2.38233834E+01  2.38265537E+01
Alpha MO coefficients                      R   N=        4624
  3.98972439E-01  3.28088713E-01  7.48322744E-08 -3.66732679E-04  0.00000000E+00
  8.08230000E-03 -8.36001126E-07  1.33976989E-03  0.00000000E+00 -1.92552872E-03
 -4.40812569E-08 -1.54351791E-05  0.00000000E+00 -5.53638638E-04  2.63505363E-07
 -3.75616238E-04  0.00000000E+00 -9.01625474E-04  0.00000000E+00  0.00000000E+00
  9.90746056E-04 -2.44703049E-07  3.98972439E-01  3.28088713E-01 -7.48322744E-08
  3.66732679E-04  0.00000000E+00  8.08230000E-03  8.36001126E-07 -1.33976989E-03
  0.00000000E+00 -1.92552872E-03  4.40812569E-08  1.54351791E-05  0.00000000E+00
 -5.53638638E-04 -2.63505363E-07  3.75616238E-04  0.00000000E+00 -9.01625474E-04
  0.00000000E+00  0.00000000E+00  9.90746056E-04 -2.44703049E-07  1.15718679E-04
 -2.36776949E-03  1.49617976E-03  1.32201471E-03  6.90070173E-04  0.00000000E+00
  1.15547110E-04 -2.36910988E-03  1.49703523E-03 -1.32257871E-03  6.90302283E-04
  0.00000000E+00  1.15718679E-04 -2.36776949E-03  1.49617976E-03 -1.32201471E-03
 -6.90070173E-04  0.00000000E+00  1.15547110E-04 -2.36910988E-03  1.49703523E-03
  1.32257871E-03 -6.90302283E-04  0.00000000E+00  3.98987344E-01  3.28112175E-01
  7.09013819E-08 -4.42405035E-04  0.00000000E+00  8.22948525E-03 -8.20109745E-07
  1.74528624E-03  0.00000000E+00 -3.11804695E-03  9.44871179E-08  3.68818822E-04
  0.00000000E+00  6.22972472E-04  1.22483589E-07 -8.72955075E-04  0.00000000E+00
 -8.04503693E-04  0.00000000E+00  0.00000000E+00  1.19933054E-03 -2.50925417E-07
 -3.98987344E-01 -3.28112175E-01  7.09013819E-08 -4.42405035E-04  0.00000000E+00
 -8.22948525E-03 -8.20109745E-07  1.74528624E-03  0.00000000E+00  3.11804695E-03
  9.44871179E-08  3.68818822E-04  0.00000000E+00 -6.22972472E-04  1.22483589E-07
 -8.72955075E-04  0.00000000E+00  8.04503693E-04  0.00000000E+00  0.00000000E+00
 -1.19933054E-03  2.50925417E-07  7.63903080E-05 -2.27497134E-03  1.69690114E-03
  1.35368412E-03  6.48890552E-04  0.00000000E+00  7.61845137E-05 -2.27612539E-03
  1.69771927E-03 -1.35424154E-03  6.49101169E-04  0.00000000E+00 -7.63903080E-05
  2.27497134E-03 -1.69690114E-03  1.35368412E-03  6.48890552E-04  0.00000000E+00
 -7.61845137E-05  2.27612539E-03 -1.69771927E-03 -1.35424154E-03  6.49101169E-04
  0.00000000E+00 -7.79619218E-02 -1.25575900E-01 -8.49259002E-06  1.32120365E-02
  0.00000000E+00  3.37298378E-01 -8.32145757E-06  1.33238093E-02  0.00000000E+00
  2.33105268E-01 -2.60776659E-06  2.88917733E-03  0.00000000E+00  3.15122285E-03
 -4.14408569E-07  3.67750380E-03  0.00000000E+00 -8.48116460E-03  0.00000000E+00
  0.00000000E+00  1.70193004E-03 -5.01303931E-07 -7.79619218E-02 -1.25575900E-01
  8.49259002E-06 -1.32120365E-02  0.00000000E+00  3.37298378E-01  8.32145757E-06
 -1.33238093E-02  0.00000000E+00  2.33105268E-01  2.60776659E-06 -2.88917733E-03
  0.00000000E+00  3.15122285E-03  4.14408569E-07 -3.67750380E-03  0.00000000E+00
 -8.48116460E-03  0.00000000E+00  0.00000000E+00  1.70193004E-03 -5.01303931E-07
  7.37121354E-02  8.50563179E-02  4.78509704E-03 -1.13000463E-02 -4.24467376E-03
  0.00000000E+00  7.37268965E-02  8.50704711E-02  4.78500495E-03  1.13020276E-02
 -4.24545632E-03  0.00000000E+00  7.37121354E-02  8.50563179E-02  4.78509704E-03
  1.13000463E-02  4.24467376E-03  0.00000000E+00  7.37268965E-02  8.50704711E-02
  4.78500495E-03 -1.13020276E-02  4.24545632E-03  0.00000000E+00 -7.50829803E-02
 -1.21284937E-01 -1.21010944E-05  4.69099695E-02  0.00000000E+00  3.30528499E-01
 -1.33086851E-05  6.87443935E-02  0.00000000E+00  2.27940922E-01 -5.00693404E-06
  3.29279390E-02  0.00000000E+00 -2.12175057E-02 -6.04147516E-08  1.07240263E-02
  0.00000000E+00 -6.91687193E-03  0.00000000E+00  0.00000000E+00  9.46485693E-03
 -6.59223133E-07  7.50829803E-02  1.21284937E-01 -1.21010944E-05  4.69099695E-02
  0.00000000E+00 -3.30528499E-01 -1.33086851E-05  6.87443935E-02  0.00000000E+00
 -2.27940922E-01 -5.00693404E-06  3.29279390E-02  0.00000000E+00  2.12175057E-02
 -6.04147516E-08  1.07240263E-02  0.00000000E+00  6.91687193E-03  0.00000000E+00
  0.00000000E+00 -9.46485693E-03  6.59223133E-07  8.47310480E-02  1.01483708E-01
  1.18085151E-02 -1.22172605E-02 -2.90718715E-03  0.00000000E+00  8.47501761E-02
  1.01502530E-01  1.18100285E-02  1.22195573E-02 -2.90801178E-03  0.00000000E+00
 -8.47310480E-02 -1.01483708E-01 -1.18085151E-02 -1.22172605E-02 -2.90718715E-03
  0.00000000E+00 -8.47501761E-02 -1.01502530E-01 -1.18100285E-02  1.22195573E-02
 -2.90801178E-03  0.00000000E+00 -3.97865770E-06 -6.67866832E-06  1.49162306E-01
  2.69853166E-06  0.00000000E+00  1.95367072E-05  2.06527962E-01  5.72737797E-06
  0.00000000E+00  2.49068790E-05  1.18369378E-01  3.79486901E-06  0.00000000E+00
 -3.00359419E-06  3.73501761E-03  2.50248600E-06  0.00000000E+00 -2.62775513E-07
  0.00000000E+00  0.00000000E+00 -1.08652975E-07  1.13442952E-02  3.97865770E-06
  6.67866832E-06  1.49162306E-01  2.69853166E-06  0.00000000E+00 -1.95367072E-05
  2.06527962E-01  5.72737797E-06  0.00000000E+00 -2.49068790E-05  1.18369378E-01
  3.79486901E-06  0.00000000E+00  3.00359419E-06  3.73501761E-03  2.50248600E-06
  0.00000000E+00  2.62775513E-07  0.00000000E+00  0.00000000E+00  1.08652975E-07
 -1.13442952E-02  1.06644939E-01  1.48059800E-01  4.35360622E-02 -1.00869830E-02
 -7.30471884E-03  0.00000000E+00 -1.06638312E-01 -1.48043961E-01 -4.35316155E-02
 -1.00855568E-02  7.30443889E-03  0.00000000E+00 -1.06644939E-01 -1.48059800E-01
 -4.35360622E-02 -1.00869830E-02 -7.30471884E-03  0.00000000E+00  1.06638312E-01
  1.48043961E-01  4.35316155E-02 -1.00855568E-02  7.30443889E-03  0.00000000E+00
 -2.74291356E-06 -4.69423849E-06  1.52514152E-01 -3.74236392E-06  0.00000000E+00
  1.40704732E-05  2.08669257E-01 -3.94103265E-06  0.00000000E+00  2.23355870E-05
  1.23269179E-01 -2.38717463E-06  0.00000000E+00  2.12832044E-06  1.01136611E-02
  5.43820424E-07  0.00000000E+00 -1.48926130E-07  0.00000000E+00  0.00000000E+00
 -7.60304498E-07  1.84973071E-02 -2.74291356E-06 -4.69423849E-06 -1.52514152E-01
  3.74236392E-06  0.00000000E+00  1.40704732E-05 -2.08669257E-01  3.94103265E-06
  0.00000000E+00  2.23355870E-05 -1.23269179E-01  2.38717463E-06  0.00000000E+00
  2.12832044E-06 -1.01136611E-02 -5.43820424E-07  0.00000000E+00 -1.48926130E-07
  0.00000000E+00  0.00000000E+00 -7.60304498E-07  1.84973071E-02  1.12046692E-01
  1.60348994E-01  5.04585905E-02 -1.02934106E-02 -7.58852244E-03  0.00000000E+00
 -1.12046832E-01 -1.60342465E-01 -5.04568361E-02 -1.02930742E-02  7.58808385E-03
  0.00000000E+00  1.12046692E-01  1.60348994E-01  5.04585905E-02  1.02934106E-02
  7.58852244E-03  0.00000000E+00 -1.12046832E-01 -1.60342465E-01 -5.04568361E-02
  1.02930742E-02 -7.58808385E-03  0.00000000E+00  1.42560598E-02  2.36139863E-02
 -5.27868383E-07  1.70594486E-01  0.00000000E+00 -6.33793113E-02  1.19343835E-06
  2.62747570E-01  0.00000000E+00 -1.15905578E-01  8.43582104E-07  2.15921488E-01
  0.00000000E+00 -7.15550831E-03  1.01627513E-06  2.05704518E-02  0.00000000E+00
 -9.32215066E-04  0.00000000E+00  0.00000000E+00  1.24281883E-02  3.08528304E-09
  1.42560598E-02  2.36139863E-02  5.27868383E-07 -1.70594486E-01  0.00000000E+00
 -6.33793113E-02 -1.19343835E-06 -2.62747570E-01  0.00000000E+00 -1.15905578E-01
 -8.43582104E-07 -2.15921488E-01  0.00000000E+00 -7.15550831E-03 -1.01627513E-06
 -2.05704518E-02  0.00000000E+00 -9.32215066E-04  0.00000000E+00  0.00000000E+00
  1.24281883E-02  3.08528304E-09  5.35230712E-02  8.43282205E-02  4.43524773E-02
 -7.70540879E-03  8.04929638E-03  0.00000000E+00  5.35194952E-02  8.43192221E-02
  4.43470522E-02  7.70536564E-03  8.05035043E-03  0.00000000E+00  5.35230712E-02
  8.43282205E-02  4.43524773E-02  7.70540879E-03 -8.04929638E-03  0.00000000E+00
  5.35194952E-02  8.43192221E-02  4.43470522E-02 -7.70536564E-03 -8.05035043E-03
  0.00000000E+00  0.00000000E+00  0.00000000E+00  0.00000000E+00  0.00000000E+00
  1.71832997E-01  0.00000000E+00  0.00000000E+00  0.00000000E+00  2.67015255E-01
  0.00000000E+00  0.00000000E+00  0.00000000E+00  3.00129457E-01  0.00000000E+00
  0.00000000E+00  0.00000000E+00  6.36294704E-02  0.00000000E+00 -4.02711844E-07
 -4.86040094E-03  0.00000000E+00  0.00000000E+00  0.00000000E+00  0.00000000E+00
  0.00000000E+00  0.00000000E+00  1.71832997E-01  0.00000000E+00  0.00000000E+00
  0.00000000E+00  2.67015255E-01  0.00000000E+00  0.00000000E+00  0.00000000E+00
  3.00129457E-01  0.00000000E+00  0.00000000E+00  0.00000000E+00  6.36294704E-02
  0.00000000E+00  4.02711844E-07  4.86040094E-03  0.00000000E+00  0.00000000E+00
  0.00000000E+00  0.00000000E+00  0.00000000E+00  0.00000000E+00  0.00000000E+00
  1.46783614E-02  0.00000000E+00  0.00000000E+00  0.00000000E+00  0.00000000E+00
  0.00000000E+00  1.46794166E-02  0.00000000E+00  0.00000000E+00  0.00000000E+00
  0.00000000E+00  0.00000000E+00  1.46783614E-02  0.00000000E+00  0.00000000E+00
  0.00000000E+00  0.00000000E+00  0.00000000E+00  1.46794166E-02  0.00000000E+00
  0.00000000E+00  0.00000000E+00  0.00000000E+00  1.85293620E-01  0.00000000E+00
  0.00000000E+00  0.00000000E+00  2.82949138E-01  0.00000000E+00  0.00000000E+00
  0.00000000E+00  3.58420576E-01  0.00000000E+00  0.00000000E+00  0.00000000E+00
  2.41262826E-01  0.00000000E+00 -3.88135451E-07  1.69572663E-02  0.00000000E+00
  0.00000000E+00  0.00000000E+00  0.00000000E+00  0.00000000E+00  0.00000000E+00
 -1.85293620E-01  0.00000000E+00  0.00000000E+00  0.00000000E+00 -2.82949138E-01
  0.00000000E+00  0.00000000E+00  0.00000000E+00 -3.58420576E-01  0.00000000E+00
  0.00000000E+00  0.00000000E+00 -2.41262826E-01  0.00000000E+00 -3.88135451E-07
  1.69572663E-02  0.00000000E+00  0.00000000E+00  0.00000000E+00  0.00000000E+00
  0.00000000E+00  0.00000000E+00  0.00000000E+00  1.89368484E-02  0.00000000E+00
  0.00000000E+00  0.00000000E+00  0.00000000E+00  0.00000000E+00  1.89378270E-02
  0.00000000E+00  0.00000000E+00  0.00000000E+00  0.00000000E+00  0.00000000E+00
 -1.89368484E-02  0.00000000E+00  0.00000000E+00  0.00000000E+00  0.00000000E+00
  0.00000000E+00 -1.89378270E-02 -4.39496974E-02 -7.36282978E-02  5.18328848E-06
 -1.14622832E-01  0.00000000E+00  2.15829591E-01  3.69069037E-06 -1.71201373E-01
  0.00000000E+00  4.74573714E-01  1.84979204E-05 -2.42588475E-01  0.00000000E+00
  1.68666682E+00  9.91871061E-06 -1.27124791E+00  0.00000000E+00  7.29065514E-03
  0.00000000E+00  0.00000000E+00  1.98363119E-02 -1.00571216E-06  4.39496974E-02
  7.36282978E-02  5.18328848E-06 -1.14622832E-01  0.00000000E+00 -2.15829591E-01
  3.69069037E-06 -1.71201373E-01  0.00000000E+00 -4.74573714E-01  1.84979204E-05
 -2.42588475E-01  0.00000000E+00 -1.68666682E+00  9.91871061E-06 -1.27124791E+00
  0.00000000E+00 -7.29065514E-03  0.00000000E+00  0.00000000E+00 -1.98363119E-02
  1.00571216E-06 -1.44818097E-02 -6.94349223E-02 -6.43567109E-03  3.30176219E-03
 -1.46893898E-02  0.00000000E+00 -1.44786459E-02 -6.94305988E-02 -6.39406168E-03
 -3.30331022E-03 -1.46882468E-02  0.00000000E+00  1.44818097E-02  6.94349223E-02
  6.43567109E-03  3.30176219E-03 -1.46893898E-02  0.00000000E+00  1.44786459E-02
  6.94305988E-02  6.39406168E-03 -3.30331022E-03 -1.46882468E-02  0.00000000E+00
  2.22245932E-02  3.73883263E-02 -3.41216713E-06 -3.21826086E-02  0.00000000E+00
 -9.83981729E-02  3.73394884E-06 -4.90596971E-02  0.00000000E+00 -4.01762006E-01
 -1.64951369E-05 -1.04451860E-01  0.00000000E+00  1.17427060E+00 -2.13706229E-05
  4.88762961E-01  0.00000000E+00  1.43925827E-02  0.00000000E+00  0.00000000E+00
 -1.05223074E-02  1.59860251E-06  2.22245932E-02  3.73883263E-02  3.41216713E-06
  3.21826086E-02  0.00000000E+00 -9.83981729E-02 -3.73394884E-06  4.90596971E-02
  0.00000000E+00 -4.01762006E-01  1.64951369E-05  1.04451860E-01  0.00000000E+00
  1.17427060E+00  2.13706229E-05 -4.88762961E-01  0.00000000E+00  1.43925827E-02
  0.00000000E+00  0.00000000E+00 -1.05223074E-02  1.59860251E-06 -1.63326111E-02
  8.89123136E-02 -3.15173600E-01  1.04114638E-03 -2.88799744E-04  0.00000000E+00
 -1.63335805E-02  8.89271492E-02 -3.15230109E-01 -1.03713836E-03 -2.91180155E-04
  0.00000000E+00 -1.63326111E-02  8.89123136E-02 -3.15173600E-01 -1.04114638E-03
  2.88799744E-04  0.00000000E+00 -1.63335805E-02  8.89271492E-02 -3.15230109E-01
  1.03713836E-03  2.91180155E-04  0.00000000E+00  1.48979030E-06  2.14751998E-06
 -5.21356220E-02  2.90660237E-06  0.00000000E+00 -7.47539811E-07 -9.00862980E-02
  6.86424462E-06  0.00000000E+00 -4.64058056E-05 -1.68902777E-01 -3.92187803E-06
  0.00000000E+00 -1.51944210E-04  8.69309782E-01  3.45437589E-05  0.00000000E+00
 -1.70169448E-06  0.00000000E+00  0.00000000E+00  1.22768440E-06 -1.79857365E-02
 -1.48979030E-06 -2.14751998E-06 -5.21356220E-02  2.90660237E-06  0.00000000E+00
  7.47539811E-07 -9.00862980E-02  6.86424462E-06  0.00000000E+00  4.64058056E-05
 -1.68902777E-01 -3.92187803E-06  0.00000000E+00  1.51944210E-04  8.69309782E-01
  3.45437589E-05  0.00000000E+00  1.70169448E-06  0.00000000E+00  0.00000000E+00
 -1.22768440E-06  1.79857365E-02 -2.57436927E-02  7.84201963E-02 -4.34251062E-01
  2.76927474E-03 -1.62079720E-04  0.00000000E+00  2.57495715E-02 -7.84225156E-02
  4.34340547E-01  2.76719127E-03  1.63194900E-04  0.00000000E+00  2.57436927E-02