Title Card Required                                                     
FOpt      UM062X                                                      6-311+G(d,p)        
Number of atoms                            I                4
Info1-9                                    I   N=           9
          13          13           0           0           0         110
           2          18        -502
Full Title                                 C   N=           2
Title Card Required     
Route                                      C   N=           4
#p opt UM062X/6-311+G** nosymm int=superfine    
Charge                                     I                0
Multiplicity                               I                1
Number of electrons                        I               14
Number of alpha electrons                  I                7
Number of beta electrons                   I                7
Number of basis functions                  I               56
Number of independent functions            I               56
Number of point charges in /Mol/           I                0
Number of translation vectors              I                0
Atomic numbers                             I   N=           4
           6           6           1           1
Nuclear charges                            R   N=           4
  6.00000000E+00  6.00000000E+00  1.00000000E+00  1.00000000E+00
Current cartesian coordinates              R   N=          12
 -3.84110456E+00  0.00000000E+00  0.00000000E+00  3.84110456E+00  0.00000000E+00
  0.00000000E+00 -3.48248791E+00 -1.23237416E+00  1.67968185E+00  3.48298070E+00
  1.23147088E+00 -1.68044942E+00
Number of symbols in /Mol/                 I                0
Force Field                                I                0
Atom Types                                 C   N=           4
                                                
Int Atom Types                             I   N=           4
           0           0           0           0
MM charges                                 R   N=           4
  0.00000000E+00  0.00000000E+00  0.00000000E+00  0.00000000E+00
Integer atomic weights                     I   N=           4
          12          12           1           1
Real atomic weights                        R   N=           4
  1.20000000E+01  1.20000000E+01  1.00782504E+00  1.00782504E+00
Atom fragment info                         I   N=           4
           0           0           0           0
Atom residue num                           I   N=           4
           0           0           0           0
Nuclear spins                              I   N=           4
           0           0           1           1
Nuclear ZEff                               R   N=           4
 -3.60000000E+00 -3.60000000E+00 -1.00000000E+00 -1.00000000E+00
Nuclear ZNuc                               R   N=           4
  6.00000000E+00  6.00000000E+00  1.00000000E+00  1.00000000E+00
Nuclear QMom                               R   N=           4
  0.00000000E+00  0.00000000E+00  0.00000000E+00  0.00000000E+00
Nuclear GFac                               R   N=           4
  0.00000000E+00  0.00000000E+00  2.79284600E+00  2.79284600E+00
MicOpt                                     I   N=           4
          -2          -2          -1          -1
Number of residues                         I                0
Number of secondary structures             I                0
Redundant internal dimensions              I   N=           4
          11           8           2           1
Redundant internal coordinate indices      I   N=          44
           1          -1           0           0           1          -2
           0           0           1          -3           0           0
           2          -1           0           0           2          -2
           0           0           2          -3           0           0
           1           3           0           0           2           4
           0           0           2           1           3           0
           1           2           4           0           3           1
           2           4
Redundant internal coordinates             R   N=          11
 -3.84110456E+00  0.00000000E+00  0.00000000E+00  3.84110456E+00  0.00000000E+00
  0.00000000E+00  2.11392599E+00  2.11392608E+00  1.40032704E+00  1.40056359E+00
  3.14102514E+00
ZRed-IntVec                                I   N=          11
          -1          -1          -1          -1          -1          -1
           0           0           0           0           0
ZRed-FPVec                                 R   N=          11
  0.00000000E+00  0.00000000E+00  0.00000000E+00  0.00000000E+00  0.00000000E+00
  0.00000000E+00  0.00000000E+00  0.00000000E+00  0.00000000E+00  0.00000000E+00
  0.00000000E+00
ZRed-Constraint1                           R   N=          11
 -3.84110456E+00  0.00000000E+00  0.00000000E+00  3.84110456E+00  0.00000000E+00
  0.00000000E+00  2.11079913E+00  2.11070705E+00  1.67217611E+00  1.67276462E+00
 -1.65242814E+00
ZRed-Constraint2                           R   N=          11
 -3.84110456E+00  0.00000000E+00  0.00000000E+00  3.84110456E+00  0.00000000E+00
  0.00000000E+00  0.00000000E+00  0.00000000E+00  0.00000000E+00  0.00000000E+00
  0.00000000E+00
Number of contracted shells                I               20
Number of primitive shells                 I               38
Pure/Cartesian d shells                    I                0
Pure/Cartesian f shells                    I                0
Highest angular momentum                   I                2
Largest degree of contraction              I                6
Shell types                                I   N=          20
           0          -1          -1          -1          -1          -2
           0          -1          -1          -1          -1          -2
           0           0           0           1           0           0
           0           1
Number of primitives per shell             I   N=          20
           6           3           1           1           1           1
           6           3           1           1           1           1
           3           1           1           1           3           1
           1           1
Shell to atom map                          I   N=          20
           1           1           1           1           1           1
           2           2           2           2           2           2
           3           3           3           3           4           4
           4           4
Primitive exponents                        R   N=          38
  4.56324000E+03  6.82024000E+02  1.54973000E+02  4.44553000E+01  1.30290000E+01
  1.82773000E+00  2.09642000E+01  4.80331000E+00  1.45933000E+00  4.83456000E-01
  1.45585000E-01  4.38000000E-02  6.26000000E-01  4.56324000E+03  6.82024000E+02
  1.54973000E+02  4.44553000E+01  1.30290000E+01  1.82773000E+00  2.09642000E+01
  4.80331000E+00  1.45933000E+00  4.83456000E-01  1.45585000E-01  4.38000000E-02
  6.26000000E-01  3.38650000E+01  5.09479000E+00  1.15879000E+00  3.25840000E-01
  1.02741000E-01  7.50000000E-01  3.38650000E+01  5.09479000E+00  1.15879000E+00
  3.25840000E-01  1.02741000E-01  7.50000000E-01
Contraction coefficients                   R   N=          38
  1.96665025E-03  1.52306019E-02  7.61269097E-02  2.60801033E-01  6.16462078E-01
  2.21006028E-01  1.14660081E-01  9.19999648E-01 -3.03068213E-03  1.00000000E+00
  1.00000000E+00  1.00000000E+00  1.00000000E+00  1.96665025E-03  1.52306019E-02
  7.61269097E-02  2.60801033E-01  6.16462078E-01  2.21006028E-01  1.14660081E-01
  9.19999648E-01 -3.03068213E-03  1.00000000E+00  1.00000000E+00  1.00000000E+00
  1.00000000E+00  2.54938145E-02  1.90373109E-01  8.52161486E-01  1.00000000E+00
  1.00000000E+00  1.00000000E+00  2.54938145E-02  1.90373109E-01  8.52161486E-01
  1.00000000E+00  1.00000000E+00  1.00000000E+00
P(S=P) Contraction coefficients            R   N=          38
  0.00000000E+00  0.00000000E+00  0.00000000E+00  0.00000000E+00  0.00000000E+00
  0.00000000E+00  4.02486927E-02  2.37593957E-01  8.15853851E-01  1.00000000E+00
  1.00000000E+00  1.00000000E+00  0.00000000E+00  0.00000000E+00  0.00000000E+00
  0.00000000E+00  0.00000000E+00  0.00000000E+00  0.00000000E+00  4.02486927E-02
  2.37593957E-01  8.15853851E-01  1.00000000E+00  1.00000000E+00  1.00000000E+00
  0.00000000E+00  0.00000000E+00  0.00000000E+00  0.00000000E+00  0.00000000E+00
  0.00000000E+00  0.00000000E+00  0.00000000E+00  0.00000000E+00  0.00000000E+00
  0.00000000E+00  0.00000000E+00  0.00000000E+00
Coordinates of each shell                  R   N=          60
 -3.84110456E+00  0.00000000E+00  0.00000000E+00 -3.84110456E+00  0.00000000E+00
  0.00000000E+00 -3.84110456E+00  0.00000000E+00  0.00000000E+00 -3.84110456E+00
  0.00000000E+00  0.00000000E+00 -3.84110456E+00  0.00000000E+00  0.00000000E+00
 -3.84110456E+00  0.00000000E+00  0.00000000E+00  3.84110456E+00  0.00000000E+00
  0.00000000E+00  3.84110456E+00  0.00000000E+00  0.00000000E+00  3.84110456E+00
  0.00000000E+00  0.00000000E+00  3.84110456E+00  0.00000000E+00  0.00000000E+00
  3.84110456E+00  0.00000000E+00  0.00000000E+00  3.84110456E+00  0.00000000E+00
  0.00000000E+00 -3.48248791E+00 -1.23237416E+00  1.67968185E+00 -3.48248791E+00
 -1.23237416E+00  1.67968185E+00 -3.48248791E+00 -1.23237416E+00  1.67968185E+00
 -3.48248791E+00 -1.23237416E+00  1.67968185E+00  3.48298070E+00  1.23147088E+00
 -1.68044942E+00  3.48298070E+00  1.23147088E+00 -1.68044942E+00  3.48298070E+00
  1.23147088E+00 -1.68044942E+00  3.48298070E+00  1.23147088E+00 -1.68044942E+00
Num ILSW                                   I              100
ILSW                                       I   N=         100
           1           0           0           1           2           0
           0           0           0           0        4336          -1
           7           0           0           0           2           0
           0           0           0           0           1           0
           1           1           0           0           0           0
           0           0      100000           0          -1           0
           0           0           0           0           0           0
           0           0           0           1           0           0
           0 -2000000000           1           0           0           0
           0           0           4          52           0           0
           0           0          55           0           0           0
           0           0           0           4           0           1
           0           0           0           0           0           0
           0           0           0           0           0           0
           0           0           0           0           0           0
           0           0           0           0           0           0
           0           0           0           0
Num RLSW                                   I               52
RLSW                                       R   N=          52
  1.00000000E+00  1.00000000E+00  1.00000000E+00  1.00000000E+00  5.40000000E-01
  0.00000000E+00  0.00000000E+00  1.00000000E+00  0.00000000E+00  0.00000000E+00
  0.00000000E+00  0.00000000E+00  1.00000000E+00  0.00000000E+00  0.00000000E+00
  0.00000000E+00  0.00000000E+00  1.00000000E+00  0.00000000E+00  0.00000000E+00
  0.00000000E+00  0.00000000E+00  1.00000000E+00  0.00000000E+00  0.00000000E+00
  0.00000000E+00  0.00000000E+00  1.00000000E+00  0.00000000E+00  0.00000000E+00
  0.00000000E+00  0.00000000E+00  1.00000000E+00  0.00000000E+00  0.00000000E+00
  0.00000000E+00  0.00000000E+00  0.00000000E+00  1.00000000E+00  1.00000000E+00
  0.00000000E+00  1.00000000E+00  0.00000000E+00  0.00000000E+00  0.00000000E+00
  0.00000000E+00  0.00000000E+00  0.00000000E+00  0.00000000E+00  0.00000000E+00
  0.00000000E+00  0.00000000E+00
MxBond                                     I                2
NBond                                      I   N=           4
           2           2           1           1
IBond                                      I   N=           8
           2           3           1           4           1           0
           2           0
RBond                                      R   N=           8
  1.00000000E-01  1.00000000E+00  1.00000000E-01  1.00000000E+00  1.00000000E+00
  0.00000000E+00  1.00000000E+00  0.00000000E+00
Virial Ratio                               R      2.004619038077398E+00
SCF Energy                                 R     -7.686140679343946E+01
Total Energy                               R     -7.686140679343946E+01
S**2                                       R     -1.509903313490213E-14
S**2 after annihilation                    R      8.348877145181154E-14
RMS Force                                  R      3.417225639610812E-06
RMS Density                                R      3.802485880293164E-10
Job Status                                 I                1
Nuclear derivative order                   I                1
External E-field                           R   N=          35
  0.00000000E+00  0.00000000E+00  0.00000000E+00  0.00000000E+00  0.00000000E+00
  0.00000000E+00  0.00000000E+00  0.00000000E+00  0.00000000E+00  0.00000000E+00
  0.00000000E+00  0.00000000E+00  0.00000000E+00  0.00000000E+00  0.00000000E+00
  0.00000000E+00  0.00000000E+00  0.00000000E+00  0.00000000E+00  0.00000000E+00
  0.00000000E+00  0.00000000E+00  0.00000000E+00  0.00000000E+00  0.00000000E+00
  0.00000000E+00  0.00000000E+00  0.00000000E+00  0.00000000E+00  0.00000000E+00
  0.00000000E+00  0.00000000E+00  0.00000000E+00  0.00000000E+00  0.00000000E+00
IOpCl                                      I                1
IROHF                                      I                0
Alpha Orbital Energies                     R   N=          56
 -1.06765185E+01 -1.06765073E+01 -7.30090351E-01 -7.26943872E-01 -3.91789132E-01
 -3.90473712E-01 -2.30765595E-01 -1.36587781E-01 -1.03321532E-01 -9.77259473E-02
  3.14309156E-02  4.44502465E-02  7.23076642E-02  7.23097305E-02  9.16766576E-02
  9.57133316E-02  1.06808536E-01  1.37567763E-01  1.80544702E-01  1.90683626E-01
  4.53760506E-01  4.55657572E-01  5.59522199E-01  5.66471003E-01  5.76517744E-01
  6.09384930E-01  6.16261175E-01  6.31666747E-01  6.76544410E-01  7.00659342E-01
  1.12422764E+00  1.12482363E+00  1.13607037E+00  1.13839336E+00  1.32959702E+00
  1.33052682E+00  1.34217021E+00  1.35360309E+00  1.57910887E+00  1.58195140E+00
  1.84751701E+00  1.84902138E+00  1.85213646E+00  1.86785958E+00  2.38480897E+00
  2.40155385E+00  2.47658320E+00  2.50454282E+00  2.69115763E+00  2.69570154E+00
  2.70554620E+00  2.74495815E+00  3.16914169E+00  3.17691058E+00  2.35032277E+01
  2.35041549E+01
Beta Orbital Energies                      R   N=          56
 -1.06765185E+01 -1.06765073E+01 -7.30090352E-01 -7.26943872E-01 -3.91789132E-01
 -3.90473712E-01 -2.30765595E-01 -1.36587781E-01 -1.03321532E-01 -9.77259473E-02
  3.14309155E-02  4.44502465E-02  7.23076641E-02  7.23097306E-02  9.16766576E-02
  9.57133316E-02  1.06808536E-01  1.37567763E-01  1.80544702E-01  1.90683625E-01
  4.53760506E-01  4.55657572E-01  5.59522199E-01  5.66471003E-01  5.76517744E-01
  6.09384930E-01  6.16261175E-01  6.31666747E-01  6.76544410E-01  7.00659342E-01
  1.12422764E+00  1.12482363E+00  1.13607037E+00  1.13839336E+00  1.32959702E+00
  1.33052682E+00  1.34217021E+00  1.35360309E+00  1.57910887E+00  1.58195140E+00
  1.84751701E+00  1.84902138E+00  1.85213646E+00  1.86785958E+00  2.38480897E+00
  2.40155385E+00  2.47658320E+00  2.50454282E+00  2.69115763E+00  2.69570154E+00
  2.70554620E+00  2.74495815E+00  3.16914169E+00  3.17691058E+00  2.35032277E+01
  2.35041549E+01
Alpha MO coefficients                      R   N=        3136
  4.29721275E-01  3.54021101E-01  4.63095732E-04 -7.57009474E-04  1.03190187E-03
  7.18561699E-03  9.17632322E-05 -6.31663346E-04  8.60833016E-04 -2.96651759E-03
  4.92191004E-05 -4.61142401E-05  6.29004784E-05  3.59550095E-04 -6.87545634E-05
  2.95311365E-04 -4.02538403E-04  3.83023005E-04  1.98300457E-04 -6.45112409E-04
 -2.57490018E-04 -1.45452255E-04  3.65318231E-01  3.00963515E-01 -3.95969733E-04
  6.42708746E-04 -8.77128160E-04  6.10500989E-03 -7.83838607E-05  5.38507893E-04
 -7.34771129E-04 -2.49602580E-03 -5.01767629E-05  4.11607069E-05 -5.61945285E-05
  2.56167647E-04  9.13463884E-05 -2.56835425E-04  3.50460259E-04  3.27988703E-04
  1.69444624E-04 -5.50672593E-04 -2.20213924E-04 -1.24142900E-04  2.51616056E-04
 -2.13139880E-03  1.62259510E-03  2.51988750E-04 -8.66888207E-04  1.18154636E-03
  2.15464803E-04 -1.82497553E-03  1.38774931E-03 -2.13051924E-04  7.38939375E-04
 -1.00835751E-03 -3.65318647E-01 -3.00962777E-01 -3.78112120E-04  6.46114445E-04
 -8.80734191E-04 -6.13162603E-03 -7.43034273E-05  5.24980322E-04 -7.15450158E-04
  2.68292564E-03  1.00844659E-05  2.68557456E-05 -3.66309048E-05 -6.13182818E-04
 -1.46468060E-04 -2.14033862E-04  2.91704541E-04 -3.14604102E-04 -1.62209542E-04
  5.33505601E-04  2.09211833E-04  1.18977071E-04  4.29721632E-01  3.54020469E-01
 -4.47452623E-04  7.59017192E-04 -1.03585879E-03  7.20824869E-03 -8.78419744E-05
  6.19337081E-04 -8.45045556E-04 -3.12540215E-03  2.03078766E-06  3.39262079E-05
 -4.63379540E-05  6.63048481E-04 -1.33599092E-04 -2.58594286E-04  3.52908563E-04
  3.72841239E-04  1.91827777E-04 -6.30221404E-04 -2.47648519E-04 -1.40542213E-04
 -2.04163165E-04  1.73081537E-03 -1.32761756E-03 -2.19700926E-04  7.21297052E-04
 -9.83113124E-04  2.42008879E-04 -2.05136250E-03  1.57148720E-03 -2.57052592E-04
  8.50808375E-04 -1.16100988E-03 -7.69266483E-02 -1.24470660E-01  1.02967688E-02
 -3.14711707E-02  4.28935090E-02  3.55054166E-01  1.56436944E-02 -4.75141017E-02
  6.47591540E-02  2.46280768E-01  7.25963655E-03 -1.85759678E-02  2.53178788E-02
 -4.82744930E-04  3.82257734E-04 -2.52371234E-04  3.43547427E-04  5.33709306E-03
  2.78368798E-03 -6.70246979E-03 -5.02667140E-03 -2.04242245E-03 -7.69100760E-02
 -1.24443827E-01 -1.02830180E-02  3.14410121E-02 -4.29040083E-02  3.54977122E-01
 -1.56229590E-02  4.74686422E-02 -6.47751723E-02  2.46228217E-01 -7.25287089E-03
  1.85576129E-02 -2.53247113E-02 -4.81098297E-04 -3.82877797E-04  2.51827816E-04
 -3.43838697E-04  5.34358469E-03  2.78048670E-03 -6.69944885E-03 -5.02271186E-03
 -2.03791627E-03  1.01840930E-01  1.27671736E-01  1.50070719E-02 -2.95578521E-03
  9.17068409E-03 -1.24993381E-02  1.01819123E-01  1.27644067E-01  1.50040066E-02
  2.95136074E-03 -9.16209533E-03  1.25022412E-02  7.70770004E-02  1.24750363E-01
 -7.18708437E-03  3.22494096E-02 -4.39540961E-02 -3.56549043E-01 -1.06321843E-02
  4.87313587E-02 -6.64180711E-02 -2.45800771E-01 -1.10607503E-03  1.89034832E-02
 -2.57640200E-02  5.79867952E-03  3.08554252E-03  3.05392150E-04 -4.16302698E-04
 -5.83316005E-03 -2.65608165E-03  6.76213678E-03  5.84836706E-03  1.94876810E-03
 -7.70932658E-02 -1.24776665E-01 -7.17672812E-03  3.22322057E-02 -4.39831512E-02
  3.56623747E-01 -1.06165274E-02  4.87053679E-02 -6.64619946E-02  2.45852534E-01
 -1.10070281E-03  1.88922310E-02 -2.57806379E-02 -5.79856909E-03  3.08557169E-03
  3.05484243E-04 -4.16699581E-04  5.84203539E-03  2.65373227E-03 -6.76189104E-03
 -5.84666529E-03 -1.94509228E-03 -1.02664119E-01 -1.29621246E-01 -1.62910204E-02
  3.33347910E-03 -9.17626838E-03  1.25069575E-02  1.02686171E-01  1.29649685E-01
  1.62947626E-02  3.33022973E-03 -9.17170448E-03  1.25153995E-02 -4.28333756E-02
 -7.07377983E-02 -2.96566256E-02  8.98156192E-02 -1.22416712E-01  2.09312950E-01
 -4.26621324E-02  1.29334033E-01 -1.76279261E-01  2.91769877E-01 -3.14865840E-02
  8.59387600E-02 -1.17133405E-01  4.21818207E-02 -1.64546183E-03  5.87206875E-03
 -8.00492541E-03 -1.00025483E-02 -6.12141730E-03  2.11748533E-02  3.99970670E-03
  4.49065743E-03  4.28041400E-02  7.06895238E-02 -2.96030993E-02  8.96882729E-02
 -1.22387375E-01 -2.09170315E-01 -4.25847284E-02  1.29150630E-01 -1.76236810E-01
 -2.91568622E-01 -3.14355718E-02  8.58188966E-02 -1.17106433E-01 -4.21526316E-02
 -1.64346956E-03  5.86677656E-03 -8.00449138E-03  1.00182375E-02  6.11341341E-03
 -2.11543782E-02 -3.98698812E-03 -4.47938612E-03 -9.43543359E-02 -1.71069860E-01
 -1.10130366E-01  1.21880968E-03 -4.18568240E-03  5.70499101E-03  9.42889051E-02
  1.70950623E-01  1.10052322E-01  1.21583208E-03 -4.17972317E-03  5.70334904E-03
 -4.21421973E-02 -6.95733624E-02 -2.44214738E-02  9.11904285E-02 -1.24289325E-01
  2.05047114E-01 -3.55974721E-02  1.31187937E-01 -1.78804265E-01  2.91677925E-01
 -2.08974643E-02  8.65160836E-02 -1.17918227E-01  4.22690212E-02 -1.56426406E-05
  4.80173702E-03 -6.54370129E-03 -1.02998558E-02 -5.43306198E-03  2.11205068E-02
  4.54894562E-03  3.98592904E-03 -4.21720546E-02 -6.96226612E-02  2.44072044E-02
 -9.11841807E-02  1.24428860E-01  2.05192793E-01  3.55769786E-02 -1.31178882E-01
  1.79004787E-01  2.91881940E-01  2.08872438E-02 -8.65101464E-02  1.18050323E-01
  4.22999435E-02  1.46703346E-05 -4.80101052E-03  6.55237714E-03 -1.03290670E-02
 -5.43297528E-03  2.11288793E-02  4.54154434E-03  3.98045677E-03 -9.56312404E-02
 -1.75863632E-01 -1.10973799E-01  2.11223740E-03 -4.45823966E-03  6.07659051E-03
 -9.56956263E-02 -1.75981093E-01 -1.11053256E-01 -2.11078311E-03  4.45815731E-03
 -6.08327791E-03 -3.71049711E-03 -6.33583003E-03 -1.79014352E-01 -1.74370063E-02
  2.37559805E-02  2.27256537E-02 -2.72120865E-01 -2.70846365E-02  3.69012026E-02
  1.66328678E-02 -3.06094328E-01 -2.32955724E-02  3.17350772E-02 -1.88499417E-02
 -8.49600098E-02 -1.05999303E-02  1.44519317E-02  4.14323003E-03 -1.18235069E-02
 -1.27163956E-03 -6.37766422E-03  8.67488721E-03 -3.71099421E-03 -6.33663789E-03
  1.79023123E-01  1.74065069E-02 -2.37226215E-02  2.27276608E-02  2.72133838E-01
  2.70389037E-02 -3.68507478E-02  1.66393226E-02  3.06106387E-01  2.32459180E-02
 -3.16758250E-02 -1.88749109E-02  8.49805594E-02  1.05900484E-02 -1.44309421E-02
  4.13975482E-03 -1.18311645E-02 -1.26785746E-03 -6.37290884E-03  8.66948723E-03
  1.11230566E-03  9.08009470E-03  4.69394195E-03 -1.70364414E-02 -7.74894450E-04
  1.05546437E-03  1.11109687E-03  9.07720827E-03  4.70507358E-03  1.70361485E-02
  7.73003980E-04 -1.05218752E-03 -4.44230555E-03 -7.42366270E-03  1.91044652E-01
  2.00849906E-02 -2.73564159E-02  2.57913499E-02  2.92792565E-01  2.99832322E-02
 -4.08367514E-02  1.71034274E-02  3.17686415E-01  3.86902841E-02 -5.27076938E-02
 -7.64547553E-03  1.09835705E-01  1.21158126E-02 -1.64970916E-02 -2.06072557E-03
  1.24490817E-02  3.22832237E-03  1.54025269E-03 -9.13385489E-03  4.44254206E-03
  7.42401256E-03  1.91050312E-01  2.00592582E-02 -2.73226729E-02 -2.57917525E-02
  2.92800400E-01  2.99438428E-02 -4.07853573E-02 -1.71083122E-02  3.17698377E-01
  3.86454640E-02 -5.26499268E-02  7.64160110E-03  1.09841285E-01  1.20939006E-02
 -1.64811621E-02  2.05896747E-03 -1.24562868E-02 -3.22475754E-03 -1.53462427E-03
  9.12762244E-03  1.96627660E-03  5.27100979E-03  6.39442973E-03  1.69038043E-02
  2.28506303E-03 -3.11279777E-03 -1.96389656E-03 -5.26950454E-03 -6.38643422E-03
  1.69055014E-02  2.28223127E-03 -3.10989953E-03  3.97084055E-07  7.58931939E-07
 -1.34506855E-05  1.38577633E-01  1.01678662E-01 -2.82373311E-06 -2.12040924E-05
  2.18594169E-01  1.60389023E-01 -2.25362683E-06 -2.41729058E-05  2.41028747E-01
  1.76849294E-01 -6.97737649E-06 -1.28439823E-05  1.15736265E-01  8.49134741E-02
  1.15866826E-02  1.87048565E-03  4.20884878E-03  6.68928389E-03  2.55119686E-03
 -5.12329244E-07 -9.53139194E-07 -2.56163695E-05  1.38616514E-01  1.01584230E-01
  3.71464520E-06 -4.03186145E-05  2.18655897E-01  1.60239628E-01  1.74014019E-06
 -4.54853599E-05  2.41093463E-01  1.76688404E-01 -1.23700526E-05 -1.75709363E-05
  1.15765992E-01  8.48458708E-02 -1.15813790E-02 -1.86671419E-03 -4.22441176E-03
 -6.68599157E-03 -2.54989048E-03  9.91785517E-07  3.60724246E-07  6.30180565E-06
 -1.67592892E-06  1.34030940E-02  9.83393025E-03  1.39639355E-06  8.94393283E-07
  8.69399801E-06 -2.01053477E-06  1.34065360E-02  9.82533697E-03  7.67596322E-07
  1.18264454E-06  2.92728690E-08 -1.43309203E-01 -1.05142490E-01 -3.54050200E-06
  6.54544742E-07 -2.26220402E-01 -1.65972567E-01 -5.45688214E-06  2.10535450E-06
 -2.49740027E-01 -1.83228061E-01  2.36780470E-06  2.17875728E-06 -1.19623000E-01
 -8.77681196E-02 -1.19867582E-02 -1.19193713E-03 -4.35525633E-03 -6.92049855E-03
 -1.62376097E-03 -4.58761520E-07 -8.56533936E-07 -1.81640800E-05  1.43382896E-01
  1.05080543E-01  3.17396272E-06 -2.89395196E-05  2.26336638E-01  1.65874147E-01
  2.25208137E-06 -3.28203573E-05  2.49868811E-01  1.83121378E-01 -4.44313055E-06
 -1.49256074E-05  1.19687694E-01  8.77141730E-02 -1.19851678E-02 -1.18794062E-03
 -4.37098364E-03 -6.91869115E-03 -1.62339743E-03  7.25813650E-07 -8.37411922E-08
  1.66978933E-07 -2.10412256E-07 -1.36174532E-02 -9.99093473E-03 -1.03010369E-06
 -8.01369771E-07  2.75580100E-07 -2.26818766E-06  1.36249371E-02  9.98493282E-03
  2.61687828E-02  4.27663164E-02 -1.24168496E-02  1.33375509E-02 -1.81593084E-02
 -1.07459436E-01 -2.82700773E-02  3.88997223E-02 -5.29946082E-02 -5.01553516E-01
 -5.02584202E-03  2.69538075E-02 -3.66776698E-02  1.02974720E+00 -7.36556209E-02
 -2.38732587E-01  3.25317853E-01 -7.38599394E-03 -4.93322940E-03  1.05323776E-02
  6.16707269E-03  3.61888942E-03  2.61712332E-02  4.27702828E-02  1.24108043E-02
 -1.33103383E-02  1.81849647E-02 -1.07468581E-01  2.82543945E-02 -3.88530089E-02
  5.30449770E-02 -5.01604424E-01  5.01430118E-03 -2.68734808E-02  3.67401659E-02
  1.02982552E+00  7.37565310E-02  2.38490769E-01 -3.25521039E-01 -7.39979358E-03
 -4.92990368E-03  1.05298934E-02  6.16220794E-03  3.61352403E-03 -1.27695507E-02
  1.07900705E-01 -2.99096243E-01 -1.31408252E-03  3.22013941E-04 -4.38707983E-04
 -1.27696141E-02  1.07910467E-01 -2.99114689E-01  1.31417335E-03 -3.21732134E-04
  4.39338194E-04  1.34787098E-02  2.20294179E-02  3.31331534E-02  3.28264219E-02
 -4.47585538E-02 -5.00611894E-02  3.07817649E-02  5.79287089E-02 -7.89761446E-02
 -3.12936265E-01  1.09867492E-01  8.65478119E-02 -1.18014795E-01  1.08375644E+00
  6.42716640E-03 -4.14508289E-01  5.64997686E-01 -8.30939129E-03 -7.05293142E-04
  1.54042813E-02  4.69739192E-03  5.18186435E-04 -1.34746988E-02 -2.20230049E-02
  3.31430177E-02  3.28145172E-02 -4.47617855E-02  5.00469089E-02  3.08008693E-02
  5.78965607E-02 -7.89854913E-02  3.12850479E-01  1.09895022E-01  8.65293021E-02
 -1.18026155E-01 -1.08367731E+00  6.31071981E-03 -4.14259544E-01  5.65247769E-01
  8.32422325E-03  7.00469634E-04 -1.54002508E-02 -4.69009854E-03 -5.12467883E-04
 -2.14575786E-02  1.23173650E-01 -4.93746160E-01  1.68853788E-03 -1.30852351E-03
  1.78338594E-03  2.14613298E-02 -1.23164319E-01  4.93761729E-01  1.68864297E-03
 -1.30808655E-03  1.78478747E-03  7.92403085E-04  1.27950315E-03  2.02329744E-03
 -8.52016524E-02 -6.08076696E-02 -3.08832265E-03  1.77078082E-03 -9.12054285E-02
 -6.61426403E-02 -1.67335235E-02  8.78422272E-03 -3.24802474E-01 -2.30935086E-01
  9.04042418E-03 -2.98300988E-02  6.19070397E-01  4.25241322E-01 -6.83196368E-03
  6.66616877E-04 -2.79536410E-03 -3.97493923E-03  6.34820407E-04 -7.78947163E-04
 -1.25787540E-03  2.02061027E-03 -8.52201622E-02 -6.07868504E-02  3.03688505E-03
  1.77680915E-03 -9.12330897E-02 -6.61092231E-02  1.64333348E-02  8.74622720E-03
 -3.24863427E-01 -2.30872564E-01 -8.73294391E-03 -2.96983349E-02  6.19051736E-01
  4.25294905E-01  6.83243544E-03 -6.66772696E-04  2.79797694E-03  3.97311092E-03
 -6.36975225E-04  8.44253254E-04 -8.87471953E-05  1.06899887E-02 -1.06839045E-04
  1.72701467E-04 -1.59256312E-04 -8.27735446E-04  7.40983610E-05 -1.04974258E-02
 -1.04283846E-04  1.69913408E-04 -1.56774085E-04 -1.81633262E-02 -2.93310671E-02
 -4.67138744E-02  1.49065628E-02 -2.80109946E-02  7.08147910E-02 -4.09561096E-02
  4.45155154E-03 -1.43479256E-02  3.83357929E-01 -2.02525298E-01  6.63441385E-02
 -1.19720481E-01 -2.05447013E-01  6.88004237E-01 -2.89783709E-01  4.50168300E-01
 -2.34451618E-03 -2.99187911E-03  6.30525338E-03 -6.70925227E-04  2.24361015E-03
  1.81614095E-02  2.93279401E-02 -4.67152110E-02  1.49295992E-02 -2.79927434E-02
 -7.08061142E-02 -4.09638528E-02  4.48469734E-03 -1.43225632E-02 -3.83325580E-01
 -2.02517539E-01  6.64245076E-02 -1.19647455E-01  2.05367550E-01  6.87930891E-01
 -2.89827230E-01  4.50131905E-01  2.34833955E-03  2.99178883E-03 -6.30345708E-03
  6.71447721E-04 -2.24091209E-03 -1.93297660E-02  1.89192488E-03 -2.44943151E-01
  2.44388652E-03 -3.12506183E-03  4.26283678E-03  1.93282846E-02 -1.88517974E-03
  2.44949121E-01  2.44249778E-03 -3.12254492E-03  4.26418364E-03 -1.34071088E-02
 -2.11439659E-02  1.07810688E-02  2.85448820E-02 -3.89578387E-02  4.36112497E-02
  2.00099292E-02  2.00378407E-02 -2.73619426E-02  3.63757721E-01  1.73783056E-02
  1.31913670E-01 -1.80018577E-01 -1.02544338E-01  5.33015747E-02 -6.52906106E-01
  8.90417494E-01 -5.87317345E-03 -4.72354483E-03  1.20514497E-02  2.58364488E-03
  3.46392228E-03 -1.34087496E-02 -2.11466890E-02 -1.07697560E-02 -2.85751073E-02
  3.89387231E-02  4.36182679E-02 -1.99966820E-02 -2.00708640E-02  2.73359257E-02
  3.63782856E-01 -1.73331554E-02 -1.32048802E-01  1.79955571E-01 -1.02763927E-01
 -5.32142758E-02  6.52895203E-01 -8.90373039E-01 -5.88091455E-03 -4.72060972E-03
  1.20485321E-02  2.57972925E-03  3.46075672E-03 -2.79591806E-02  4.11900632E-02
 -4.80734999E-01 -2.72855106E-03 -3.55300280E-03  4.84270146E-03 -2.79564051E-02
  4.11903906E-02 -4.80610758E-01  2.72851441E-03  3.55139516E-03 -4.84597887E-03
 -2.17527742E-06 -3.45650535E-06 -1.04230304E-05  7.70266757E-02  5.65033745E-02
  9.08289108E-06 -7.99106946E-06  7.20791413E-02  5.28732804E-02  4.27929920E-05
 -5.53251506E-05  3.44890626E-01  2.53004446E-01  1.68386399E-04  2.47031516E-04
 -8.29575376E-01 -6.08332760E-01  6.18459617E-03  3.08724780E-03  2.25015835E-03
  3.57103432E-03  4.21252878E-03  2.80195020E-06  4.58242109E-06 -6.13287959E-06
 -7.70478837E-02 -5.64732940E-02 -1.25018290E-05 -2.75679577E-06 -7.20988752E-02