 Entering Gaussian System, Link 0=g16
 Initial command:
 /home/szhao/Apps/g16/l1.exe "/home/szhao/tmp/Gau-145356.inp" -scrdir="/home/szhao/tmp/"
 Default is to use a total of  16 processors:
                               16 via shared-memory
                                1 via Linda
 Entering Link 1 = /home/szhao/Apps/g16/l1.exe PID=    145487.
  
 Copyright (c) 1988,1990,1992,1993,1995,1998,2003,2009,2016,
            Gaussian, Inc.  All Rights Reserved.
  
 This is part of the Gaussian(R) 16 program.  It is based on
 the Gaussian(R) 09 system (copyright 2009, Gaussian, Inc.),
 the Gaussian(R) 03 system (copyright 2003, Gaussian, Inc.),
 the Gaussian(R) 98 system (copyright 1998, Gaussian, Inc.),
 the Gaussian(R) 94 system (copyright 1995, Gaussian, Inc.),
 the Gaussian 92(TM) system (copyright 1992, Gaussian, Inc.),
 the Gaussian 90(TM) system (copyright 1990, Gaussian, Inc.),
 the Gaussian 88(TM) system (copyright 1988, Gaussian, Inc.),
 the Gaussian 86(TM) system (copyright 1986, Carnegie Mellon
 University), and the Gaussian 82(TM) system (copyright 1983,
 Carnegie Mellon University). Gaussian is a federally registered
 trademark of Gaussian, Inc.
  
 This software contains proprietary and confidential information,
 including trade secrets, belonging to Gaussian, Inc.
  
 This software is provided under written license and may be
 used, copied, transmitted, or stored only in accord with that
 written license.
  
 The following legend is applicable only to US Government
 contracts under FAR:
  
                    RESTRICTED RIGHTS LEGEND
  
 Use, reproduction and disclosure by the US Government is
 subject to restrictions as set forth in subparagraphs (a)
 and (c) of the Commercial Computer Software - Restricted
 Rights clause in FAR 52.227-19.
  
 Gaussian, Inc.
 340 Quinnipiac St., Bldg. 40, Wallingford CT 06492
  
  
 ---------------------------------------------------------------
 Warning -- This program may not be used in any manner that
 competes with the business of Gaussian, Inc. or will provide
 assistance to any competitor of Gaussian, Inc.  The licensee
 of this program is prohibited from giving any competitor of
 Gaussian, Inc. access to this program.  By using this program,
 the user acknowledges that Gaussian, Inc. is engaged in the
 business of creating and licensing software in the field of
 computational chemistry and represents and warrants to the
 licensee that it is not a competitor of Gaussian, Inc. and that
 it will not use this program in any manner prohibited above.
 ---------------------------------------------------------------
  

 Cite this work as:
 Gaussian 16, Revision A.03,
 M. J. Frisch, G. W. Trucks, H. B. Schlegel, G. E. Scuseria, 
 M. A. Robb, J. R. Cheeseman, G. Scalmani, V. Barone, 
 G. A. Petersson, H. Nakatsuji, X. Li, M. Caricato, A. V. Marenich, 
 J. Bloino, B. G. Janesko, R. Gomperts, B. Mennucci, H. P. Hratchian, 
 J. V. Ortiz, A. F. Izmaylov, J. L. Sonnenberg, D. Williams-Young, 
 F. Ding, F. Lipparini, F. Egidi, J. Goings, B. Peng, A. Petrone, 
 T. Henderson, D. Ranasinghe, V. G. Zakrzewski, J. Gao, N. Rega, 
 G. Zheng, W. Liang, M. Hada, M. Ehara, K. Toyota, R. Fukuda, 
 J. Hasegawa, M. Ishida, T. Nakajima, Y. Honda, O. Kitao, H. Nakai, 
 T. Vreven, K. Throssell, J. A. Montgomery, Jr., J. E. Peralta, 
 F. Ogliaro, M. J. Bearpark, J. J. Heyd, E. N. Brothers, K. N. Kudin, 
 V. N. Staroverov, T. A. Keith, R. Kobayashi, J. Normand, 
 K. Raghavachari, A. P. Rendell, J. C. Burant, S. S. Iyengar, 
 J. Tomasi, M. Cossi, J. M. Millam, M. Klene, C. Adamo, R. Cammi, 
 J. W. Ochterski, R. L. Martin, K. Morokuma, O. Farkas, 
 J. B. Foresman, and D. J. Fox, Gaussian, Inc., Wallingford CT, 2016.
 
 ******************************************
 Gaussian 16:  ES64L-G16RevA.03 25-Dec-2016
                21-Apr-2025 
 ******************************************
 %chk=force.chk
 %mem=4GB
 %nprocshared=8
 Will use up to    8 processors via shared memory.
 ---------------------------------------------------
 #p UM062X/6-311+G** force int=superfine pop=saveNBO
 ---------------------------------------------------
 1/10=7,30=1,38=1/1,3;
 2/12=2,17=6,18=5,40=1/2;
 3/5=4,6=6,7=111,11=2,25=1,30=1,71=1,74=-55,75=-7,116=2/1,2,3;
 4//1;
 5/5=2,38=5/2;
 6/7=2,8=2,9=2,10=2,28=1,40=1,73=1/1,7;
 7/29=1/1,2,3,16;
 1/10=7,30=1/3;
 99//99;
 Leave Link    1 at Mon Apr 21 20:08:25 2025, MaxMem=   536870912 cpu:               1.4 elap:               0.1
 (Enter /home/szhao/Apps/g16/l101.exe)
 -------------------
 Title Card Required
 -------------------
 Symbolic Z-matrix:
 Charge =  0 Multiplicity = 1
 S                    -1.0002    0.        0. 
 S                     1.0002    0.        0. 
 
 ITRead=  0  0
 MicOpt= -1 -1
 NAtoms=      2 NQM=        2 NQMF=       0 NMMI=      0 NMMIF=      0
                NMic=       0 NMicF=      0.
                    Isotopes and Nuclear Properties:
 (Nuclear quadrupole moments (NQMom) in fm**2, nuclear magnetic moments (NMagM)
  in nuclear magnetons)

  Atom         1           2
 IAtWgt=          32          32
 AtmWgt=  31.9720718  31.9720718
 NucSpn=           0           0
 AtZEff=  -0.0000000  -0.0000000
 NQMom=    0.0000000   0.0000000
 NMagM=    0.0000000   0.0000000
 AtZNuc=  16.0000000  16.0000000
 Leave Link  101 at Mon Apr 21 20:08:26 2025, MaxMem=   536870912 cpu:               2.1 elap:               0.3
 (Enter /home/szhao/Apps/g16/l103.exe)

 GradGradGradGradGradGradGradGradGradGradGradGradGradGradGradGradGradGrad
 Berny optimization.
 Initialization pass.
 Trust Radius=3.00D-01 FncErr=1.00D-07 GrdErr=1.00D-07 EigMax=2.50D+02 EigMin=1.00D-04
 Number of steps in this run=      2 maximum allowed number of steps=      2.
 GradGradGradGradGradGradGradGradGradGradGradGradGradGradGradGradGradGrad

 Leave Link  103 at Mon Apr 21 20:08:27 2025, MaxMem=   536870912 cpu:               0.4 elap:               0.1
 (Enter /home/szhao/Apps/g16/l202.exe)
                          Input orientation:                          
 ---------------------------------------------------------------------
 Center     Atomic      Atomic             Coordinates (Angstroms)
 Number     Number       Type             X           Y           Z
 ---------------------------------------------------------------------
      1         16           0       -1.000200    0.000000    0.000000
      2         16           0        1.000200    0.000000    0.000000
 ---------------------------------------------------------------------
 Stoichiometry    S2
 Framework group  D*H[C*(S.S)]
 Deg. of freedom     1
 Full point group                 D*H     NOp   8
 Largest Abelian subgroup         D2H     NOp   8
 Largest concise Abelian subgroup C2      NOp   2
                         Standard orientation:                         
 ---------------------------------------------------------------------
 Center     Atomic      Atomic             Coordinates (Angstroms)
 Number     Number       Type             X           Y           Z
 ---------------------------------------------------------------------
      1         16           0        0.000000    0.000000    1.000200
      2         16           0        0.000000    0.000000   -1.000200
 ---------------------------------------------------------------------
 Rotational constants (GHZ):           0.0000000           7.9002844           7.9002844
 Leave Link  202 at Mon Apr 21 20:08:28 2025, MaxMem=   536870912 cpu:               0.3 elap:               0.3
 (Enter /home/szhao/Apps/g16/l301.exe)
 Standard basis: 6-311+G(d,p) (5D, 7F)
 Ernie: Thresh=  0.10000D-02 Tol=  0.10000D-05 Strict=F.
 There are    16 symmetry adapted cartesian basis functions of AG  symmetry.
 There are     1 symmetry adapted cartesian basis functions of B1G symmetry.
 There are     7 symmetry adapted cartesian basis functions of B2G symmetry.
 There are     7 symmetry adapted cartesian basis functions of B3G symmetry.
 There are     1 symmetry adapted cartesian basis functions of AU  symmetry.
 There are    16 symmetry adapted cartesian basis functions of B1U symmetry.
 There are     7 symmetry adapted cartesian basis functions of B2U symmetry.
 There are     7 symmetry adapted cartesian basis functions of B3U symmetry.
 There are    15 symmetry adapted basis functions of AG  symmetry.
 There are     1 symmetry adapted basis functions of B1G symmetry.
 There are     7 symmetry adapted basis functions of B2G symmetry.
 There are     7 symmetry adapted basis functions of B3G symmetry.
 There are     1 symmetry adapted basis functions of AU  symmetry.
 There are    15 symmetry adapted basis functions of B1U symmetry.
 There are     7 symmetry adapted basis functions of B2U symmetry.
 There are     7 symmetry adapted basis functions of B3U symmetry.
    60 basis functions,   100 primitive gaussians,    62 cartesian basis functions
    16 alpha electrons       16 beta electrons
       nuclear repulsion energy        67.7211387700 Hartrees.
 IExCor= 4336 DFT=T Ex+Corr=M062X ExCW=0 ScaHFX=  0.540000
 ScaDFX=  1.000000  1.000000  1.000000  1.000000 ScalE2=  1.000000  1.000000
 IRadAn=      7 IRanWt=     -1 IRanGd=            0 ICorTp=0 IEmpDi=  4
 NAtoms=    2 NActive=    2 NUniq=    1 SFac= 4.00D+00 NAtFMM=   60 NAOKFM=F Big=F
 Integral buffers will be    131072 words long.
 Raffenetti 2 integral format.
 Two-electron integral symmetry is turned on.
 Leave Link  301 at Mon Apr 21 20:08:29 2025, MaxMem=   536870912 cpu:               1.4 elap:               0.4
 (Enter /home/szhao/Apps/g16/l302.exe)
 NPDir=0 NMtPBC=     1 NCelOv=     1 NCel=       1 NClECP=     1 NCelD=      1
         NCelK=      1 NCelE2=     1 NClLst=     1 CellRange=     0.0.
 One-electron integrals computed using PRISM.
 One-electron integral symmetry used in STVInt
 NBasis=    60 RedAO= T EigKep=  1.81D-03  NBF=    15     1     7     7     1    15     7     7
 NBsUse=    60 1.00D-06 EigRej= -1.00D+00 NBFU=    15     1     7     7     1    15     7     7
 Precomputing XC quadrature grid using
 IXCGrd= 4 IRadAn=           7 IRanWt=          -1 IRanGd=           0 AccXCQ= 0.00D+00.
 Generated NRdTot=       0 NPtTot=           0 NUsed=           0 NTot=          32
 NSgBfM=    58    56    56    56    58 MxSgAt=     2 MxSgA2=     2.
 Leave Link  302 at Mon Apr 21 20:08:30 2025, MaxMem=   536870912 cpu:               1.2 elap:               0.4
 (Enter /home/szhao/Apps/g16/l303.exe)
 DipDrv:  MaxL=1.
 Leave Link  303 at Mon Apr 21 20:08:31 2025, MaxMem=   536870912 cpu:               1.7 elap:               0.6
 (Enter /home/szhao/Apps/g16/l401.exe)
 ExpMin= 4.05D-02 ExpMax= 9.34D+04 ExpMxC= 3.17D+03 IAcc=3 IRadAn=         7 AccDes= 0.00D+00
 Harris functional with IExCor= 1009 and IRadAn=       7 diagonalized for initial guess.
 HarFok:  IExCor= 1009 AccDes= 0.00D+00 IRadAn=         7 IDoV= 1 UseB2=F ITyADJ=14
 ICtDFT=  3500011 ScaDFX=  1.000000  1.000000  1.000000  1.000000
 FoFCou: FMM=F IPFlag=           0 FMFlag=      100000 FMFlg1=           0
         NFxFlg=           0 DoJE=T BraDBF=F KetDBF=T FulRan=T
         wScrn=  0.000000 ICntrl=       500 IOpCl=  0 I1Cent=   200000004 NGrid=           0
         NMat0=    1 NMatS0=      1 NMatT0=    0 NMatD0=    1 NMtDS0=    0 NMtDT0=    0
 Petite list used in FoFCou.
 Harris En= -795.933899401674    
 JPrj=0 DoOrth=F DoCkMO=F.
 Initial guess orbital symmetries:
 Alpha Orbitals:
       Occupied  (SGU) (SGG) (SGU) (SGG) (SGG) (SGU) (PIU) (PIU)
                 (PIG) (PIG) (SGG) (SGU) (SGG) (PIU) (PIU) (PIG)
       Virtual   (PIG) (SGU) (SGG) (PIU) (PIU) (SGU) (SGG) (PIG)
                 (PIG) (SGU) (SGG) (SGU) (PIU) (PIU) (PIG) (PIG)
                 (SGG) (PIU) (PIU) (SGU) (DLTG) (DLTG) (SGG) (DLTU)
                 (DLTU) (PIG) (PIG) (SGU) (PIU) (PIU) (PIG) (PIG)
                 (SGG) (SGU) (SGG) (SGU) (PIU) (PIU) (SGU) (PIG)
                 (PIG) (SGG) (SGG) (SGU)
 Beta  Orbitals:
       Occupied  (SGU) (SGG) (SGU) (SGG) (SGG) (SGU) (PIU) (PIU)
                 (PIG) (PIG) (SGG) (SGU) (SGG) (PIU) (PIU) (PIG)
       Virtual   (PIG) (SGU) (SGG) (PIU) (PIU) (SGU) (SGG) (PIG)
                 (PIG) (SGU) (SGG) (SGU) (PIU) (PIU) (PIG) (PIG)
                 (SGG) (PIU) (PIU) (SGU) (DLTG) (DLTG) (SGG) (DLTU)
                 (DLTU) (PIG) (PIG) (SGU) (PIU) (PIU) (PIG) (PIG)
                 (SGG) (SGU) (SGG) (SGU) (PIU) (PIU) (SGU) (PIG)
                 (PIG) (SGG) (SGG) (SGU)
 Initial guess <Sx>= 0.0000 <Sy>= 0.0000 <Sz>= 0.0000 <S**2>=-0.0000 S=-0.0000
 Leave Link  401 at Mon Apr 21 20:08:32 2025, MaxMem=   536870912 cpu:               2.6 elap:               0.7
 (Enter /home/szhao/Apps/g16/l502.exe)
 Keep R1 and R2 ints in memory in symmetry-blocked form, NReq=8792365.
 FoFCou: FMM=F IPFlag=           0 FMFlag=           0 FMFlg1=           0
         NFxFlg=           0 DoJE=F BraDBF=F KetDBF=F FulRan=T
         wScrn=  0.000000 ICntrl=       600 IOpCl=  0 I1Cent=           0 NGrid=           0
         NMat0=    1 NMatS0=   1830 NMatT0=    0 NMatD0=    1 NMtDS0=    0 NMtDT0=    0
 Petite list used in FoFCou.
 UHF open shell SCF:
 Using DIIS extrapolation, IDIIS=  1040.
 NGot=   536870912 LenX=   536388430 LenY=   536384145
 Requested convergence on RMS density matrix=1.00D-08 within 128 cycles.
 Requested convergence on MAX density matrix=1.00D-06.
 Requested convergence on             energy=1.00D-06.
 No special actions if energy rises.

 Cycle   1  Pass 1  IDiag  1:
 E= -796.289987869401    
 DIIS: error= 2.94D-02 at cycle   1 NSaved=   1.
 NSaved= 1 IEnMin= 1 EnMin= -796.289987869401     IErMin= 1 ErrMin= 2.94D-02
 ErrMax= 2.94D-02  0.00D+00 EMaxC= 1.00D-01 BMatC= 2.74D-01 BMatP= 2.74D-01
 IDIUse=3 WtCom= 7.06D-01 WtEn= 2.94D-01
 Coeff-Com:  0.100D+01
 Coeff-En:   0.100D+01
 Coeff:      0.100D+01
 Gap=     0.122 Goal=   None    Shift=    0.000
 Gap=     0.122 Goal=   None    Shift=    0.000
 GapD=    0.122 DampG=1.000 DampE=0.500 DampFc=0.5000 IDamp=-1.
 Damping current iteration by 5.00D-01
 RMSDP=3.22D-03 MaxDP=5.16D-02              OVMax= 2.52D-02

 Cycle   2  Pass 1  IDiag  1:
 E= -796.296635913303     Delta-E=       -0.006648043903 Rises=F Damp=T
 DIIS: error= 1.09D-02 at cycle   2 NSaved=   2.
 NSaved= 2 IEnMin= 2 EnMin= -796.296635913303     IErMin= 2 ErrMin= 1.09D-02
 ErrMax= 1.09D-02  0.00D+00 EMaxC= 1.00D-01 BMatC= 4.05D-02 BMatP= 2.74D-01
 IDIUse=3 WtCom= 8.91D-01 WtEn= 1.09D-01
 Coeff-Com: -0.555D+00 0.155D+01
 Coeff-En:   0.000D+00 0.100D+01
 Coeff:     -0.494D+00 0.149D+01
 Gap=     0.125 Goal=   None    Shift=    0.000
 Gap=     0.125 Goal=   None    Shift=    0.000
 RMSDP=1.31D-03 MaxDP=1.65D-02 DE=-6.65D-03 OVMax= 1.22D-02

 Cycle   3  Pass 1  IDiag  1:
 E= -796.302538885096     Delta-E=       -0.005902971792 Rises=F Damp=F
 DIIS: error= 1.12D-03 at cycle   3 NSaved=   3.
 NSaved= 3 IEnMin= 3 EnMin= -796.302538885096     IErMin= 3 ErrMin= 1.12D-03
 ErrMax= 1.12D-03  0.00D+00 EMaxC= 1.00D-01 BMatC= 2.67D-04 BMatP= 4.05D-02
 IDIUse=3 WtCom= 9.89D-01 WtEn= 1.12D-02
 Coeff-Com: -0.694D-01 0.153D+00 0.916D+00
 Coeff-En:   0.000D+00 0.000D+00 0.100D+01
 Coeff:     -0.686D-01 0.152D+00 0.917D+00
 Gap=     0.126 Goal=   None    Shift=    0.000
 Gap=     0.126 Goal=   None    Shift=    0.000
 RMSDP=1.99D-04 MaxDP=3.55D-03 DE=-5.90D-03 OVMax= 3.21D-03

 Cycle   4  Pass 1  IDiag  1:
 E= -796.302595946185     Delta-E=       -0.000057061090 Rises=F Damp=F
 DIIS: error= 4.12D-04 at cycle   4 NSaved=   4.
 NSaved= 4 IEnMin= 4 EnMin= -796.302595946185     IErMin= 4 ErrMin= 4.12D-04
 ErrMax= 4.12D-04  0.00D+00 EMaxC= 1.00D-01 BMatC= 3.65D-05 BMatP= 2.67D-04
 IDIUse=3 WtCom= 9.96D-01 WtEn= 4.12D-03
 Coeff-Com: -0.145D-02-0.171D-02 0.282D+00 0.721D+00
 Coeff-En:   0.000D+00 0.000D+00 0.000D+00 0.100D+01
 Coeff:     -0.145D-02-0.171D-02 0.281D+00 0.723D+00
 Gap=     0.126 Goal=   None    Shift=    0.000
 Gap=     0.126 Goal=   None    Shift=    0.000
 RMSDP=5.72D-05 MaxDP=8.94D-04 DE=-5.71D-05 OVMax= 1.17D-03

 Cycle   5  Pass 1  IDiag  1:
 E= -796.302606126680     Delta-E=       -0.000010180495 Rises=F Damp=F
 DIIS: error= 4.71D-05 at cycle   5 NSaved=   5.
 NSaved= 5 IEnMin= 5 EnMin= -796.302606126680     IErMin= 5 ErrMin= 4.71D-05
 ErrMax= 4.71D-05  0.00D+00 EMaxC= 1.00D-01 BMatC= 1.99D-07 BMatP= 3.65D-05
 IDIUse=1 WtCom= 1.00D+00 WtEn= 0.00D+00
 Coeff-Com:  0.147D-02-0.305D-02-0.259D-01-0.151D-02 0.103D+01
 Coeff:      0.147D-02-0.305D-02-0.259D-01-0.151D-02 0.103D+01
 Gap=     0.126 Goal=   None    Shift=    0.000
 Gap=     0.126 Goal=   None    Shift=    0.000
 RMSDP=4.38D-06 MaxDP=6.89D-05 DE=-1.02D-05 OVMax= 1.13D-04

 Cycle   6  Pass 1  IDiag  1:
 E= -796.302606187201     Delta-E=       -0.000000060521 Rises=F Damp=F
 DIIS: error= 8.69D-06 at cycle   6 NSaved=   6.
 NSaved= 6 IEnMin= 6 EnMin= -796.302606187201     IErMin= 6 ErrMin= 8.69D-06
 ErrMax= 8.69D-06  0.00D+00 EMaxC= 1.00D-01 BMatC= 9.78D-09 BMatP= 1.99D-07
 IDIUse=1 WtCom= 1.00D+00 WtEn= 0.00D+00
 Coeff-Com: -0.131D-03 0.434D-03-0.138D-01-0.254D-01 0.123D+00 0.916D+00
 Coeff:     -0.131D-03 0.434D-03-0.138D-01-0.254D-01 0.123D+00 0.916D+00
 Gap=     0.126 Goal=   None    Shift=    0.000
 Gap=     0.126 Goal=   None    Shift=    0.000
 RMSDP=1.27D-06 MaxDP=1.92D-05 DE=-6.05D-08 OVMax= 1.96D-05

 Cycle   7  Pass 1  IDiag  1:
 E= -796.302606189654     Delta-E=       -0.000000002453 Rises=F Damp=F
 DIIS: error= 4.01D-07 at cycle   7 NSaved=   7.
 NSaved= 7 IEnMin= 7 EnMin= -796.302606189654     IErMin= 7 ErrMin= 4.01D-07
 ErrMax= 4.01D-07  0.00D+00 EMaxC= 1.00D-01 BMatC= 4.11D-11 BMatP= 9.78D-09
 IDIUse=1 WtCom= 1.00D+00 WtEn= 0.00D+00
 Coeff-Com:  0.224D-04-0.528D-04 0.866D-03 0.157D-02-0.170D-01-0.375D-01
 Coeff-Com:  0.105D+01
 Coeff:      0.224D-04-0.528D-04 0.866D-03 0.157D-02-0.170D-01-0.375D-01
 Coeff:      0.105D+01
 Gap=     0.126 Goal=   None    Shift=    0.000
 Gap=     0.126 Goal=   None    Shift=    0.000
 RMSDP=1.67D-07 MaxDP=2.17D-06 DE=-2.45D-09 OVMax= 1.42D-06

 Cycle   8  Pass 1  IDiag  1:
 E= -796.302606189667     Delta-E=       -0.000000000013 Rises=F Damp=F
 DIIS: error= 3.56D-08 at cycle   8 NSaved=   8.
 NSaved= 8 IEnMin= 8 EnMin= -796.302606189667     IErMin= 8 ErrMin= 3.56D-08
 ErrMax= 3.56D-08  0.00D+00 EMaxC= 1.00D-01 BMatC= 1.80D-13 BMatP= 4.11D-11
 IDIUse=1 WtCom= 1.00D+00 WtEn= 0.00D+00
 Coeff-Com: -0.289D-05 0.539D-05 0.206D-04-0.128D-05 0.498D-03-0.160D-02
 Coeff-Com: -0.105D+00 0.111D+01
 Coeff:     -0.289D-05 0.539D-05 0.206D-04-0.128D-05 0.498D-03-0.160D-02
 Coeff:     -0.105D+00 0.111D+01
 Gap=     0.126 Goal=   None    Shift=    0.000
 Gap=     0.126 Goal=   None    Shift=    0.000
 RMSDP=1.55D-08 MaxDP=1.98D-07 DE=-1.25D-11 OVMax= 1.79D-07

 Cycle   9  Pass 1  IDiag  1:
 E= -796.302606189667     Delta-E=        0.000000000000 Rises=F Damp=F
 DIIS: error= 3.06D-09 at cycle   9 NSaved=   9.
 NSaved= 9 IEnMin= 8 EnMin= -796.302606189667     IErMin= 9 ErrMin= 3.06D-09
 ErrMax= 3.06D-09  0.00D+00 EMaxC= 1.00D-01 BMatC= 1.54D-15 BMatP= 1.80D-13
 IDIUse=1 WtCom= 1.00D+00 WtEn= 0.00D+00
 Coeff-Com:  0.384D-06-0.674D-06-0.748D-05-0.891D-05 0.187D-04 0.394D-03
 Coeff-Com:  0.103D-01-0.167D+00 0.116D+01
 Coeff:      0.384D-06-0.674D-06-0.748D-05-0.891D-05 0.187D-04 0.394D-03
 Coeff:      0.103D-01-0.167D+00 0.116D+01
 Gap=     0.126 Goal=   None    Shift=    0.000
 Gap=     0.126 Goal=   None    Shift=    0.000
 RMSDP=1.31D-09 MaxDP=1.64D-08 DE= 2.27D-13 OVMax= 2.27D-08

 SCF Done:  E(UM062X) =  -796.302606190     A.U. after    9 cycles
            NFock=  9  Conv=0.13D-08     -V/T= 2.0013
 <Sx>= 0.0000 <Sy>= 0.0000 <Sz>= 0.0000 <S**2>=-0.0000 S=-0.0000
 <L.S>=  0.00000000000    
 KE= 7.952900447912D+02 PE=-2.029366920788D+03 EE= 3.700531310372D+02
 Annihilation of the first spin contaminant:
 S**2 before annihilation    -0.0000,   after     0.0000
 Leave Link  502 at Mon Apr 21 20:08:34 2025, MaxMem=   536870912 cpu:               8.9 elap:               1.5
 (Enter /home/szhao/Apps/g16/l601.exe)
 Copying SCF densities to generalized density rwf, IOpCl= 1 IROHF=0.

 **********************************************************************

            Population analysis using the SCF density.

 **********************************************************************

 Orbital symmetries:
 Alpha Orbitals:
       Occupied  (SGU) (SGG) (SGG) (SGU) (PIU) (PIG) (SGG) (SGU)
                 (PIU) (PIG) (SGG) (SGU) (SGG) (PIU) (PIU) (PIG)
       Virtual   (PIG) (SGU) (SGG) (PIU) (PIU) (SGU) (SGG) (PIG)
                 (PIG) (SGU) (SGG) (PIU) (SGU) (PIU) (PIG) (PIG)
                 (SGG) (PIU) (PIU) (SGU) (?A) (?A) (?A) (DLTU)
                 (DLTU) (PIG) (PIG) (SGU) (PIU) (PIU) (PIG) (PIG)
                 (SGG) (SGU) (SGG) (SGU) (PIU) (PIU) (SGU) (PIG)
                 (PIG) (SGG) (SGG) (SGU)
 Beta  Orbitals:
       Occupied  (SGU) (SGG) (SGG) (SGU) (PIU) (PIG) (SGG) (SGU)
                 (PIU) (PIG) (SGG) (SGU) (SGG) (PIU) (PIU) (PIG)
       Virtual   (PIG) (SGU) (SGG) (PIU) (PIU) (SGU) (SGG) (PIG)
                 (PIG) (SGU) (SGG) (PIU) (SGU) (PIU) (PIG) (PIG)
                 (SGG) (PIU) (PIU) (SGU) (?A) (?A) (?A) (DLTU)
                 (DLTU) (PIG) (PIG) (SGU) (PIU) (PIU) (PIG) (PIG)
                 (SGG) (SGU) (SGG) (SGU) (PIU) (PIU) (SGU) (PIG)
                 (PIG) (SGG) (SGG) (SGU)
 Unable to determine electronic state:  partially filled degenerate orbitals.
 Alpha  occ. eigenvalues --  -89.96294 -89.96294  -8.32447  -8.32435  -6.24541
 Alpha  occ. eigenvalues --   -6.24537  -6.24454  -6.24414  -6.23679  -6.23676
 Alpha  occ. eigenvalues --   -0.90384  -0.69928  -0.44510  -0.40692  -0.40113
 Alpha  occ. eigenvalues --   -0.28110
 Alpha virt. eigenvalues --   -0.15544  -0.00533   0.03186   0.04471   0.05324
 Alpha virt. eigenvalues --    0.06016   0.06964   0.07753   0.08340   0.14976
 Alpha virt. eigenvalues --    0.28966   0.33144   0.33665   0.34428   0.36473
 Alpha virt. eigenvalues --    0.37072   0.58360   0.64250   0.65855   0.71751
 Alpha virt. eigenvalues --    0.75909   0.77311   0.78308   0.81780   0.82215
 Alpha virt. eigenvalues --    0.94316   0.96480   1.21114   1.62762   1.63740
 Alpha virt. eigenvalues --    1.70104   1.71052   1.78472   1.81741   7.69417
 Alpha virt. eigenvalues --    7.90291  17.41298  17.41387  17.41843  17.44631
 Alpha virt. eigenvalues --   17.44685  17.58117 188.95166 189.18134
  Beta  occ. eigenvalues --  -89.96294 -89.96294  -8.32447  -8.32435  -6.24541
  Beta  occ. eigenvalues --   -6.24537  -6.24454  -6.24414  -6.23679  -6.23676
  Beta  occ. eigenvalues --   -0.90384  -0.69928  -0.44510  -0.40692  -0.40113
  Beta  occ. eigenvalues --   -0.28110
  Beta virt. eigenvalues --   -0.15544  -0.00533   0.03186   0.04471   0.05324
  Beta virt. eigenvalues --    0.06016   0.06964   0.07753   0.08340   0.14976
  Beta virt. eigenvalues --    0.28966   0.33144   0.33665   0.34428   0.36473
  Beta virt. eigenvalues --    0.37072   0.58360   0.64250   0.65855   0.71751
  Beta virt. eigenvalues --    0.75909   0.77311   0.78308   0.81780   0.82215
  Beta virt. eigenvalues --    0.94316   0.96480   1.21114   1.62762   1.63740
  Beta virt. eigenvalues --    1.70104   1.71052   1.78472   1.81741   7.69417
  Beta virt. eigenvalues --    7.90291  17.41298  17.41387  17.41843  17.44631
  Beta virt. eigenvalues --   17.44685  17.58117 188.95166 189.18134
          Condensed to atoms (all electrons):
               1          2
     1  S   15.763599   0.236401
     2  S    0.236401  15.763599
          Atomic-Atomic Spin Densities.
               1          2
     1  S   -0.000000   0.000000
     2  S    0.000000  -0.000000
 Mulliken charges and spin densities:
               1          2
     1  S    0.000000  -0.000000
     2  S    0.000000  -0.000000
 Sum of Mulliken charges =   0.00000  -0.00000
 Mulliken charges and spin densities with hydrogens summed into heavy atoms:
               1          2
     1  S    0.000000  -0.000000
     2  S    0.000000  -0.000000
 Electronic spatial extent (au):  <R**2>=            172.2537
 Charge=             -0.0000 electrons
 Dipole moment (field-independent basis, Debye):
    X=              0.0000    Y=              0.0000    Z=              0.0000  Tot=              0.0000
 Quadrupole moment (field-independent basis, Debye-Ang):
   XX=            -23.9263   YY=            -29.0736   ZZ=            -24.9231
   XY=              0.0000   XZ=              0.0000   YZ=              0.0000
 Traceless Quadrupole moment (field-independent basis, Debye-Ang):
   XX=              2.0481   YY=             -3.0993   ZZ=              1.0512
   XY=              0.0000   XZ=              0.0000   YZ=              0.0000
 Octapole moment (field-independent basis, Debye-Ang**2):
  XXX=             -0.0000  YYY=             -0.0000  ZZZ=              0.0000  XYY=             -0.0000
  XXY=              0.0000  XXZ=              0.0000  XZZ=             -0.0000  YZZ=              0.0000
  YYZ=             -0.0000  XYZ=              0.0000
 Hexadecapole moment (field-independent basis, Debye-Ang**3):
 XXXX=            -30.7072 YYYY=            -43.1329 ZZZZ=           -177.0281 XXXY=              0.0000
 XXXZ=              0.0000 YYYX=              0.0000 YYYZ=              0.0000 ZZZX=              0.0000
 ZZZY=              0.0000 XXYY=            -12.3066 XXZZ=            -34.0364 YYZZ=            -43.9223
 XXYZ=              0.0000 YYXZ=              0.0000 ZZXY=             -0.0000
 N-N= 6.772113877001D+01 E-N=-2.029366920806D+03  KE= 7.952900447912D+02
 Symmetry AG   KE= 3.231774855563D+02
 Symmetry B1G  KE= 5.536198743307D-35
 Symmetry B2G  KE= 3.531390948537D+01
 Symmetry B3G  KE= 3.951244197971D+01
 Symmetry AU   KE= 1.374504934971D-34
 Symmetry B1U  KE= 3.198311923014D+02
 Symmetry B2U  KE= 3.885085259542D+01
 Symmetry B3U  KE= 3.860416287297D+01
 Symmetry AG   SP=-2.850910763780D-15
 Symmetry B1G  SP= 1.364776588501D-49
 Symmetry B2G  SP=-8.024409456656D-15
 Symmetry B3G  SP= 1.250897487393D-15
 Symmetry AU   SP=-3.642286302313D-49
 Symmetry B1U  SP=-3.141834330611D-15
 Symmetry B2U  SP= 1.253493384550D-16
 Symmetry B3U  SP=-4.788784984258D-15
                          Isotropic Fermi Contact Couplings
        Atom                 a.u.       MegaHertz       Gauss      10(-4) cm-1
     1  S(33)              0.00000       0.00000       0.00000       0.00000
     2  S(33)              0.00000       0.00000       0.00000       0.00000
 --------------------------------------------------------
       Center         ----  Spin Dipole Couplings  ----
                      3XX-RR        3YY-RR        3ZZ-RR
 --------------------------------------------------------
     1   Atom        0.000000      0.000000      0.000000
     2   Atom        0.000000      0.000000      0.000000
 --------------------------------------------------------
                        XY            XZ            YZ
 --------------------------------------------------------
     1   Atom        0.000000      0.000000      0.000000
     2   Atom        0.000000      0.000000      0.000000
 --------------------------------------------------------


 ---------------------------------------------------------------------------------
              Anisotropic Spin Dipole Couplings in Principal Axis System
 ---------------------------------------------------------------------------------

       Atom             a.u.   MegaHertz   Gauss  10(-4) cm-1        Axes

              Baa     0.0000     0.000     0.000     0.000  1.0000  0.0000  0.0000
     1 S(33)  Bbb     0.0000     0.000     0.000     0.000 -0.0000  1.0000  0.0000
              Bcc     0.0000     0.000     0.000     0.000  0.0000  0.0000  1.0000
 
              Baa     0.0000     0.000     0.000     0.000  1.0000  0.0000  0.0000
     2 S(33)  Bbb     0.0000     0.000     0.000     0.000 -0.0000  1.0000  0.0000
              Bcc     0.0000     0.000     0.000     0.000  0.0000  0.0000  1.0000
 

 ---------------------------------------------------------------------------------

 No NMR shielding tensors so no spin-rotation constants.
 Leave Link  601 at Mon Apr 21 20:08:36 2025, MaxMem=   536870912 cpu:               4.1 elap:               0.8
 (Enter /home/szhao/Apps/g16/l607.exe)
 ******************************Gaussian NBO Version 3.1******************************
             N A T U R A L   A T O M I C   O R B I T A L   A N D
          N A T U R A L   B O N D   O R B I T A L   A N A L Y S I S
 ******************************Gaussian NBO Version 3.1******************************
       /RESON  / : Allow strongly delocalized NBO set

 Analyzing the SCF density

 Job title: Title Card Required                                             

 Storage needed:     11250 in NPA,     14614 in NBO ( 536870884 available)
 GSVD:  LWork=        1016 too small for GESVD, short by        3846 words or        3846 for optimal perf.


 NATURAL POPULATIONS:  Natural atomic orbital occupancies 
                                                          
   NAO  Atom  No  lang   Type(AO)    Occupancy
 --------------------------------------------
     1    S    1  S      Cor( 1S)     2.00000
     2    S    1  S      Cor( 2S)     1.99984
     3    S    1  S      Val( 3S)     1.88608
     4    S    1  S      Ryd( 4S)     0.00728
     5    S    1  S      Ryd( 5S)     0.00017
     6    S    1  S      Ryd( 6S)     0.00000
     7    S    1  S      Ryd( 7S)     0.00000
     8    S    1  px     Cor( 2p)     1.99995
     9    S    1  px     Val( 3p)     0.99428
    10    S    1  px     Ryd( 5p)     0.00005
    11    S    1  px     Ryd( 4p)     0.00008
    12    S    1  px     Ryd( 6p)     0.00000
    13    S    1  px     Ryd( 7p)     0.00000
    14    S    1  py     Cor( 2p)     2.00000
    15    S    1  py     Val( 3p)     1.98999
    16    S    1  py     Ryd( 4p)     0.00581
    17    S    1  py     Ryd( 5p)     0.00002
    18    S    1  py     Ryd( 6p)     0.00001
    19    S    1  py     Ryd( 7p)     0.00000
    20    S    1  pz     Cor( 2p)     1.99992
    21    S    1  pz     Val( 3p)     1.09202
    22    S    1  pz     Ryd( 4p)     0.00643
    23    S    1  pz     Ryd( 5p)     0.00004
    24    S    1  pz     Ryd( 6p)     0.00001
    25    S    1  pz     Ryd( 7p)     0.00000
    26    S    1  dxy    Ryd( 3d)     0.00000
    27    S    1  dxz    Ryd( 3d)     0.00564
    28    S    1  dyz    Ryd( 3d)     0.00416
    29    S    1  dx2y2  Ryd( 3d)     0.00027
    30    S    1  dz2    Ryd( 3d)     0.00794
 
    31    S    2  S      Cor( 1S)     2.00000
    32    S    2  S      Cor( 2S)     1.99984
    33    S    2  S      Val( 3S)     1.88608
    34    S    2  S      Ryd( 4S)     0.00728
    35    S    2  S      Ryd( 5S)     0.00017
    36    S    2  S      Ryd( 6S)     0.00000
    37    S    2  S      Ryd( 7S)     0.00000
    38    S    2  px     Cor( 2p)     1.99995
    39    S    2  px     Val( 3p)     0.99428
    40    S    2  px     Ryd( 5p)     0.00005
    41    S    2  px     Ryd( 4p)     0.00008
    42    S    2  px     Ryd( 6p)     0.00000
    43    S    2  px     Ryd( 7p)     0.00000
    44    S    2  py     Cor( 2p)     2.00000
    45    S    2  py     Val( 3p)     1.98999
    46    S    2  py     Ryd( 4p)     0.00581
    47    S    2  py     Ryd( 5p)     0.00002
    48    S    2  py     Ryd( 6p)     0.00001
    49    S    2  py     Ryd( 7p)     0.00000
    50    S    2  pz     Cor( 2p)     1.99992
    51    S    2  pz     Val( 3p)     1.09202
    52    S    2  pz     Ryd( 4p)     0.00643
    53    S    2  pz     Ryd( 5p)     0.00004
    54    S    2  pz     Ryd( 6p)     0.00001
    55    S    2  pz     Ryd( 7p)     0.00000
    56    S    2  dxy    Ryd( 3d)     0.00000
    57    S    2  dxz    Ryd( 3d)     0.00564
    58    S    2  dyz    Ryd( 3d)     0.00416
    59    S    2  dx2y2  Ryd( 3d)     0.00027
    60    S    2  dz2    Ryd( 3d)     0.00794


 Summary of Natural Population Analysis:                  
                                                          
                                       Natural Population 
                Natural  -----------------------------------------------
    Atom  No    Charge         Core      Valence    Rydberg      Total
 -----------------------------------------------------------------------
      S    1   -0.00000      9.99971     5.96236    0.03793    16.00000
      S    2    0.00000      9.99971     5.96236    0.03793    16.00000
 =======================================================================
   * Total *    0.00000     19.99941    11.92473    0.07586    32.00000

                                 Natural Population      
 --------------------------------------------------------
   Core                      19.99941 ( 99.9971% of  20)
   Valence                   11.92473 ( 99.3727% of  12)
   Natural Minimal Basis     31.92414 ( 99.7630% of  32)
   Natural Rydberg Basis      0.07586 (  0.2370% of  32)
 --------------------------------------------------------

    Atom  No          Natural Electron Configuration
 ----------------------------------------------------------------------------
      S    1      [core]3S( 1.89)3p( 4.08)4S( 0.01)3d( 0.02)4p( 0.01)
      S    2      [core]3S( 1.89)3p( 4.08)4S( 0.01)3d( 0.02)4p( 0.01)


 ***************************************************
 *******         Alpha spin orbitals         *******
 ***************************************************


 NATURAL POPULATIONS:  Natural atomic orbital occupancies 
                                                          
   NAO  Atom  No  lang   Type(AO)    Occupancy      Energy
 ----------------------------------------------------------
     1    S    1  S      Cor( 1S)     1.00000     -88.92482
     2    S    1  S      Cor( 2S)     0.99992      -9.21793
     3    S    1  S      Val( 3S)     0.94304      -0.86214
     4    S    1  S      Ryd( 4S)     0.00364       0.32401
     5    S    1  S      Ryd( 5S)     0.00009       0.58839
     6    S    1  S      Ryd( 6S)     0.00000      24.58862
     7    S    1  S      Ryd( 7S)     0.00000     172.07477
     8    S    1  px     Cor( 2p)     0.99997      -6.24454
     9    S    1  px     Val( 3p)     0.49714      -0.27294
    10    S    1  px     Ryd( 4p)     0.00002       0.28357
    11    S    1  px     Ryd( 6p)     0.00004       1.65637
    12    S    1  px     Ryd( 5p)     0.00000       1.31030
    13    S    1  px     Ryd( 7p)     0.00000      16.24397
    14    S    1  py     Cor( 2p)     1.00000      -6.23613
    15    S    1  py     Val( 3p)     0.99499      -0.34072
    16    S    1  py     Ryd( 4p)     0.00291       0.29484
    17    S    1  py     Ryd( 6p)     0.00001       1.66514
    18    S    1  py     Ryd( 5p)     0.00001       1.31714
    19    S    1  py     Ryd( 7p)     0.00000      16.24446
    20    S    1  pz     Cor( 2p)     0.99996      -6.24233
    21    S    1  pz     Val( 3p)     0.54601      -0.27267
    22    S    1  pz     Ryd( 4p)     0.00321       0.29033
    23    S    1  pz     Ryd( 6p)     0.00002       1.72082
    24    S    1  pz     Ryd( 5p)     0.00000       1.41573
    25    S    1  pz     Ryd( 7p)     0.00000      16.21489
    26    S    1  dxy    Ryd( 3d)     0.00000       0.79763
    27    S    1  dxz    Ryd( 3d)     0.00282       0.79561
    28    S    1  dyz    Ryd( 3d)     0.00208       0.81630
    29    S    1  dx2y2  Ryd( 3d)     0.00013       0.79320
    30    S    1  dz2    Ryd( 3d)     0.00397       1.02157
 
    31    S    2  S      Cor( 1S)     1.00000     -88.92482
    32    S    2  S      Cor( 2S)     0.99992      -9.21793
    33    S    2  S      Val( 3S)     0.94304      -0.86214
    34    S    2  S      Ryd( 4S)     0.00364       0.32401
    35    S    2  S      Ryd( 5S)     0.00009       0.58839
    36    S    2  S      Ryd( 6S)     0.00000      24.58862
    37    S    2  S      Ryd( 7S)     0.00000     172.07477
    38    S    2  px     Cor( 2p)     0.99997      -6.24454
    39    S    2  px     Val( 3p)     0.49714      -0.27294
    40    S    2  px     Ryd( 4p)     0.00002       0.28357
    41    S    2  px     Ryd( 6p)     0.00004       1.65637
    42    S    2  px     Ryd( 5p)     0.00000       1.31030
    43    S    2  px     Ryd( 7p)     0.00000      16.24397
    44    S    2  py     Cor( 2p)     1.00000      -6.23613
    45    S    2  py     Val( 3p)     0.99499      -0.34072
    46    S    2  py     Ryd( 4p)     0.00291       0.29484
    47    S    2  py     Ryd( 6p)     0.00001       1.66514
    48    S    2  py     Ryd( 5p)     0.00001       1.31714
    49    S    2  py     Ryd( 7p)     0.00000      16.24446
    50    S    2  pz     Cor( 2p)     0.99996      -6.24233
    51    S    2  pz     Val( 3p)     0.54601      -0.27267
    52    S    2  pz     Ryd( 4p)     0.00321       0.29033
    53    S    2  pz     Ryd( 6p)     0.00002       1.72082
    54    S    2  pz     Ryd( 5p)     0.00000       1.41573
    55    S    2  pz     Ryd( 7p)     0.00000      16.21489
    56    S    2  dxy    Ryd( 3d)     0.00000       0.79763
    57    S    2  dxz    Ryd( 3d)     0.00282       0.79561
    58    S    2  dyz    Ryd( 3d)     0.00208       0.81630
    59    S    2  dx2y2  Ryd( 3d)     0.00013       0.79320
    60    S    2  dz2    Ryd( 3d)     0.00397       1.02157

 WARNING:  Population inversion found on atom  S    1
           Population inversion found on atom  S    2


 Summary of Natural Population Analysis:                  
                                                          
                                       Natural Population 
                Natural  -----------------------------------------------
    Atom  No    Charge         Core      Valence    Rydberg      Total
 -----------------------------------------------------------------------
      S    1   -0.00000      4.99985     2.98118    0.01896     8.00000
      S    2   -0.00000      4.99985     2.98118    0.01896     8.00000
 =======================================================================
   * Total *   -0.00000      9.99971     5.96236    0.03793    16.00000

                                 Natural Population      
 --------------------------------------------------------
   Core                       9.99971 ( 99.9971% of  10)
   Valence                    5.96236 ( 99.3727% of   6)
   Natural Minimal Basis     15.96207 ( 99.7630% of  16)
   Natural Rydberg Basis      0.03793 (  0.2370% of  16)
 --------------------------------------------------------

    Atom  No          Natural Electron Configuration
 ----------------------------------------------------------------------------
      S    1      [core]3S( 0.94)3p( 2.04)3d( 0.01)4p( 0.01)
      S    2      [core]3S( 0.94)3p( 2.04)3d( 0.01)4p( 0.01)


 NATURAL BOND ORBITAL ANALYSIS, alpha spin orbitals:

                       Occupancies       Lewis Structure    Low   High
           Occ.    -------------------  -----------------   occ   occ
  Cycle   Thresh.   Lewis   Non-Lewis     CR  BD  3C  LP    (L)   (NL)   Dev
 =============================================================================
   1(1)    0.90    15.99238   0.00762     10   2   0   4     0      0    0.00
 -----------------------------------------------------------------------------

 Structure accepted: No low occupancy Lewis orbitals

 --------------------------------------------------------
   Core                      9.99971 ( 99.997% of  10)
   Valence Lewis             5.99267 ( 99.878% of   6)
  ==================       ============================
   Total Lewis              15.99238 ( 99.952% of  16)
  -----------------------------------------------------
   Valence non-Lewis         0.00011 (  0.001% of  16)
   Rydberg non-Lewis         0.00751 (  0.047% of  16)
  ==================       ============================
   Total non-Lewis           0.00762 (  0.048% of  16)
 --------------------------------------------------------


       (Occupancy)   Bond orbital/ Coefficients/ Hybrids
 ---------------------------------------------------------------------------------
     1. (1.00000) BD ( 1) S   1 - S   2  
                ( 50.00%)   0.7071* S   1 s(  0.00%)p 1.00( 99.44%)d 0.01(  0.56%)
                                            0.0000  0.0000  0.0000  0.0000  0.0000
                                            0.0000  0.0000  0.0000  0.9971  0.0068
                                           -0.0089 -0.0011  0.0006  0.0000  0.0000
                                            0.0000  0.0000  0.0000  0.0000  0.0000
                                            0.0000  0.0000  0.0000  0.0000  0.0000
                                            0.0000 -0.0751  0.0000  0.0000  0.0000
                ( 50.00%)   0.7071* S   2 s(  0.00%)p 1.00( 99.44%)d 0.01(  0.56%)
                                            0.0000  0.0000  0.0000  0.0000  0.0000
                                            0.0000  0.0000 -0.0000  0.9971  0.0068
                                           -0.0089 -0.0011  0.0006  0.0000  0.0000
                                            0.0000  0.0000  0.0000  0.0000  0.0000
                                            0.0000  0.0000  0.0000  0.0000  0.0000
                                            0.0000  0.0751  0.0000  0.0000  0.0000
     2. (1.00000) BD ( 2) S   1 - S   2  
                ( 50.00%)   0.7071* S   1 s( 11.80%)p 7.41( 87.43%)d 0.07(  0.77%)
                                            0.0000  0.0000 -0.3337  0.0816  0.0019
                                            0.0000 -0.0000  0.0000  0.0000  0.0000
                                            0.0000  0.0000  0.0000  0.0000  0.0000
                                            0.0000  0.0000  0.0000  0.0000  0.0000
                                            0.9317 -0.0784  0.0029 -0.0017  0.0006
                                            0.0000  0.0000  0.0000 -0.0033 -0.0878
                ( 50.00%)   0.7071* S   2 s( 11.80%)p 7.41( 87.43%)d 0.07(  0.77%)
                                            0.0000  0.0000 -0.3337  0.0816  0.0019
                                            0.0000 -0.0000  0.0000  0.0000  0.0000
                                            0.0000  0.0000  0.0000  0.0000  0.0000
                                            0.0000  0.0000  0.0000  0.0000 -0.0000
                                           -0.9317  0.0784 -0.0029  0.0017 -0.0006
                                            0.0000  0.0000  0.0000 -0.0033 -0.0878
     3. (1.00000) CR ( 1) S   1           s(100.00%)
                                            1.0000 -0.0000  0.0000  0.0000  0.0000
                                            0.0000 -0.0000  0.0000  0.0000  0.0000
                                            0.0000  0.0000  0.0000  0.0000  0.0000
                                            0.0000  0.0000  0.0000  0.0000  0.0000
                                            0.0000 -0.0000  0.0000  0.0000 -0.0000
                                            0.0000  0.0000  0.0000  0.0000 -0.0000
     4. (0.99992) CR ( 2) S   1           s(100.00%)
                                           -0.0000  1.0000  0.0000  0.0000  0.0000
                                            0.0000 -0.0000  0.0000  0.0000  0.0000
                                            0.0000  0.0000  0.0000  0.0000  0.0000
                                            0.0000  0.0000  0.0000  0.0000  0.0000
                                            0.0000 -0.0000  0.0000  0.0000 -0.0000
                                            0.0000  0.0000  0.0000  0.0000 -0.0000
     5. (0.99997) CR ( 3) S   1           s(  0.00%)p 1.00(100.00%)
                                            0.0000  0.0000  0.0000  0.0000  0.0000
                                            0.0000  0.0000  1.0000  0.0000  0.0000
                                            0.0000  0.0000  0.0000  0.0000  0.0000
                                            0.0000  0.0000  0.0000  0.0000  0.0000
                                            0.0000  0.0000  0.0000  0.0000  0.0000
                                            0.0000  0.0000  0.0000  0.0000  0.0000
     6. (1.00000) CR ( 4) S   1           s(  0.00%)p 1.00(100.00%)
                                            0.0000  0.0000  0.0000  0.0000  0.0000
                                            0.0000  0.0000  0.0000  0.0000  0.0000
                                            0.0000  0.0000  0.0000  1.0000 -0.0000
                                           -0.0000 -0.0000 -0.0000  0.0000  0.0000
                                            0.0000  0.0000  0.0000  0.0000  0.0000
                                            0.0000  0.0000  0.0000  0.0000  0.0000
     7. (0.99996) CR ( 5) S   1           s(  0.00%)p 1.00(100.00%)
                                            0.0000  0.0000 -0.0000 -0.0000 -0.0000
                                           -0.0000  0.0000  0.0000  0.0000  0.0000
                                            0.0000  0.0000  0.0000  0.0000  0.0000
                                            0.0000  0.0000  0.0000  0.0000  1.0000
                                           -0.0000  0.0000 -0.0000 -0.0000  0.0000
                                            0.0000  0.0000  0.0000 -0.0000  0.0000
     8. (1.00000) CR ( 1) S   2           s(100.00%)
                                            1.0000 -0.0000  0.0000  0.0000  0.0000
                                            0.0000 -0.0000  0.0000  0.0000  0.0000
                                            0.0000  0.0000  0.0000  0.0000  0.0000
                                            0.0000  0.0000  0.0000  0.0000 -0.0000
                                           -0.0000  0.0000 -0.0000 -0.0000  0.0000
                                            0.0000  0.0000  0.0000  0.0000 -0.0000
     9. (0.99992) CR ( 2) S   2           s(100.00%)
                                           -0.0000  1.0000  0.0000  0.0000  0.0000
                                            0.0000 -0.0000  0.0000  0.0000  0.0000
                                            0.0000  0.0000  0.0000  0.0000  0.0000
                                            0.0000  0.0000  0.0000  0.0000 -0.0000
                                           -0.0000  0.0000 -0.0000 -0.0000  0.0000
                                            0.0000  0.0000  0.0000  0.0000 -0.0000
    10. (0.99997) CR ( 3) S   2           s(  0.00%)p 1.00(100.00%)
                                            0.0000  0.0000  0.0000  0.0000  0.0000
                                            0.0000  0.0000  1.0000  0.0000  0.0000
                                            0.0000  0.0000  0.0000  0.0000  0.0000
                                            0.0000  0.0000  0.0000  0.0000  0.0000
                                            0.0000  0.0000  0.0000  0.0000  0.0000
                                            0.0000  0.0000  0.0000  0.0000  0.0000
    11. (1.00000) CR ( 4) S   2           s(  0.00%)p 1.00(100.00%)
                                            0.0000  0.0000  0.0000  0.0000  0.0000
                                            0.0000  0.0000  0.0000  0.0000  0.0000
                                            0.0000  0.0000  0.0000  1.0000 -0.0000
                                           -0.0000 -0.0000 -0.0000  0.0000  0.0000
                                            0.0000  0.0000  0.0000  0.0000  0.0000
                                            0.0000  0.0000 -0.0000  0.0000  0.0000
    12. (0.99996) CR ( 5) S   2           s(  0.00%)p 1.00(100.00%)
                                           -0.0000 -0.0000  0.0000  0.0000  0.0000
                                            0.0000 -0.0000  0.0000  0.0000  0.0000
                                            0.0000  0.0000  0.0000  0.0000  0.0000
                                            0.0000  0.0000  0.0000  0.0000  1.0000
                                           -0.0000  0.0000 -0.0000 -0.0000  0.0000
                                            0.0000  0.0000  0.0000  0.0000 -0.0000
    13. (0.99979) LP ( 1) S   1           s( 88.78%)p 0.13( 11.20%)d 0.00(  0.02%)
                                           -0.0000 -0.0000  0.9421  0.0144  0.0003
                                            0.0000 -0.0000  0.0000  0.0000  0.0000
                                            0.0000  0.0000  0.0000  0.0000  0.0000
                                            0.0000  0.0000  0.0000  0.0000  0.0000
                                            0.3346 -0.0090  0.0028  0.0004 -0.0005
                                            0.0000  0.0000  0.0000  0.0113 -0.0090
    14. (0.99655) LP ( 2) S   1           s(  0.00%)p 1.00( 99.98%)d 0.00(  0.02%)
                                            0.0000  0.0000  0.0000  0.0000  0.0000
                                            0.0000  0.0000  0.0000  0.0000  0.0000
                                            0.0000  0.0000  0.0000  0.0000  0.9992
                                            0.0363  0.0022  0.0012 -0.0004  0.0000
                                            0.0000  0.0000  0.0000  0.0000  0.0000
                                            0.0000  0.0000 -0.0154  0.0000  0.0000
    15. (0.99979) LP ( 1) S   2           s( 88.78%)p 0.13( 11.20%)d 0.00(  0.02%)
                                           -0.0000 -0.0000  0.9421  0.0144  0.0003
                                            0.0000 -0.0000  0.0000  0.0000  0.0000
                                            0.0000  0.0000  0.0000  0.0000  0.0000
                                            0.0000  0.0000  0.0000  0.0000 -0.0000
                                           -0.3346  0.0090 -0.0028 -0.0004  0.0005
                                            0.0000  0.0000  0.0000  0.0113 -0.0090
    16. (0.99655) LP ( 2) S   2           s(  0.00%)p 1.00( 99.98%)d 0.00(  0.02%)
                                            0.0000  0.0000  0.0000  0.0000  0.0000
                                            0.0000  0.0000  0.0000  0.0000  0.0000
                                            0.0000  0.0000  0.0000  0.0000  0.9992
                                            0.0363  0.0022  0.0012 -0.0004  0.0000
                                            0.0000  0.0000  0.0000  0.0000  0.0000
                                            0.0000  0.0000  0.0154  0.0000  0.0000
    17. (0.00345) RY*( 1) S   1           s(  0.00%)p 1.00( 46.58%)d 1.15( 53.42%)
                                            0.0000  0.0000  0.0000  0.0000  0.0000
                                            0.0000  0.0000  0.0000  0.0000  0.0000
                                            0.0000  0.0000  0.0000 -0.0000 -0.0134
                                            0.6796  0.0436 -0.0411  0.0146  0.0000
                                            0.0000  0.0000  0.0000  0.0000  0.0000
                                            0.0000  0.0000  0.7309  0.0000  0.0000
    18. (0.00022) RY*( 2) S   1           s( 81.76%)p 0.16( 12.92%)d 0.07(  5.32%)
                                           -0.0000 -0.0000  0.0094  0.6843 -0.5910
                                           -0.0002  0.0003  0.0000  0.0000  0.0000
                                            0.0000  0.0000  0.0000  0.0000  0.0000
                                            0.0000  0.0000  0.0000  0.0000 -0.0000
                                           -0.0598 -0.3033  0.1554 -0.0429  0.0874
                                            0.0000  0.0000  0.0000  0.0355  0.2279
    19. (0.00008) RY*( 3) S   1           s( 11.72%)p 4.77( 55.95%)d 2.76( 32.33%)
    20. (0.00000) RY*( 4) S   1           s(100.00%)p 0.00(  0.00%)d 0.00(  0.00%)
    21. (0.00000) RY*( 5) S   1           s(  0.00%)p 1.00(100.00%)d 0.00(  0.00%)
    22. (0.00000) RY*( 6) S   1           s(  0.00%)p 1.00(100.00%)d 0.00(  0.00%)
    23. (0.00000) RY*( 7) S   1           s(  0.00%)p 1.00(100.00%)
    24. (0.00000) RY*( 8) S   1           s(  0.00%)p 1.00(100.00%)
    25. (0.00000) RY*( 9) S   1           s(  0.00%)p 1.00( 53.64%)d 0.86( 46.36%)
    26. (0.00000) RY*(10) S   1           s(  0.00%)p 1.00( 99.90%)d 0.00(  0.10%)
    27. (0.00000) RY*(11) S   1           s(  0.00%)p 1.00( 99.91%)d 0.00(  0.09%)
    28. (0.00000) RY*(12) S   1           s(  0.00%)p 1.00( 99.99%)d 0.00(  0.01%)
    29. (0.00000) RY*(13) S   1           s( 88.63%)p 0.06(  5.63%)d 0.06(  5.74%)
    30. (0.00000) RY*(14) S   1           s(  2.02%)p48.61( 97.98%)d 0.00(  0.00%)
    31. (0.00000) RY*(15) S   1           s(  0.62%)p99.99( 98.57%)d 1.31(  0.81%)
    32. (0.00000) RY*(16) S   1           s(  0.75%)p99.99( 99.14%)d 0.16(  0.12%)
    33. (0.00000) RY*(17) S   1           s(  0.00%)p 0.00(  0.00%)d 1.00(100.00%)
    34. (0.00000) RY*(18) S   1           s(  0.00%)p 1.00(  0.56%)d99.99( 99.44%)
    35. (0.00000) RY*(19) S   1           s(100.00%)p 0.00(  0.00%)d 0.00(  0.00%)
    36. (0.00000) RY*(20) S   1           s(  0.19%)p 0.45(  0.08%)d99.99( 99.73%)
    37. (0.00000) RY*(21) S   1           s( 13.74%)p 2.26( 31.10%)d 4.01( 55.16%)
    38. (0.00345) RY*( 1) S   2           s(  0.00%)p 1.00( 46.58%)d 1.15( 53.42%)
                                            0.0000  0.0000  0.0000  0.0000  0.0000
                                            0.0000  0.0000  0.0000  0.0000  0.0000
                                            0.0000  0.0000  0.0000  0.0000  0.0134
                                           -0.6796 -0.0436  0.0411 -0.0146  0.0000
                                            0.0000  0.0000  0.0000  0.0000  0.0000
                                            0.0000  0.0000  0.7309  0.0000  0.0000
    39. (0.00022) RY*( 2) S   2           s( 81.76%)p 0.16( 12.92%)d 0.07(  5.32%)
                                           -0.0000  0.0000  0.0094  0.6843 -0.5910
                                           -0.0002  0.0003  0.0000  0.0000  0.0000
                                            0.0000  0.0000  0.0000  0.0000  0.0000
                                            0.0000  0.0000  0.0000  0.0000  0.0000
                                            0.0598  0.3033 -0.1554  0.0429 -0.0874
                                            0.0000  0.0000  0.0000  0.0355  0.2279
    40. (0.00008) RY*( 3) S   2           s( 11.72%)p 4.77( 55.95%)d 2.76( 32.33%)
    41. (0.00000) RY*( 4) S   2           s(100.00%)p 0.00(  0.00%)d 0.00(  0.00%)
    42. (0.00000) RY*( 5) S   2           s(  0.00%)p 1.00(100.00%)d 0.00(  0.00%)
    43. (0.00000) RY*( 6) S   2           s(  0.00%)p 1.00(100.00%)d 0.00(  0.00%)
    44. (0.00000) RY*( 7) S   2           s(  0.00%)p 1.00(100.00%)
    45. (0.00000) RY*( 8) S   2           s(  0.00%)p 1.00(100.00%)
    46. (0.00000) RY*( 9) S   2           s(  0.00%)p 1.00( 53.64%)d 0.86( 46.36%)
    47. (0.00000) RY*(10) S   2           s(  0.00%)p 1.00( 99.90%)d 0.00(  0.10%)
    48. (0.00000) RY*(11) S   2           s(  0.00%)p 1.00( 99.91%)d 0.00(  0.09%)
    49. (0.00000) RY*(12) S   2           s(  0.00%)p 1.00( 99.99%)d 0.00(  0.01%)
    50. (0.00000) RY*(13) S   2           s( 88.63%)p 0.06(  5.63%)d 0.06(  5.74%)
    51. (0.00000) RY*(14) S   2           s(  2.02%)p48.61( 97.98%)d 0.00(  0.00%)
    52. (0.00000) RY*(15) S   2           s(  0.62%)p99.99( 98.57%)d 1.31(  0.81%)
    53. (0.00000) RY*(16) S   2           s(  0.75%)p99.99( 99.14%)d 0.16(  0.12%)
    54. (0.00000) RY*(17) S   2           s(  0.00%)p 0.00(  0.00%)d 1.00(100.00%)
    55. (0.00000) RY*(18) S   2           s(  0.00%)p 1.00(  0.56%)d99.99( 99.44%)
    56. (0.00000) RY*(19) S   2           s(100.00%)p 0.00(  0.00%)d 0.00(  0.00%)
    57. (0.00000) RY*(20) S   2           s(  0.19%)p 0.45(  0.08%)d99.99( 99.73%)
    58. (0.00000) RY*(21) S   2           s( 13.74%)p 2.26( 31.10%)d 4.01( 55.16%)
    59. (0.00005) BD*( 1) S   1 - S   2  
                ( 50.00%)   0.7071* S   1 s(  0.00%)p 1.00( 99.44%)d 0.01(  0.56%)
                ( 50.00%)  -0.7071* S   2 s(  0.00%)p 1.00( 99.44%)d 0.01(  0.56%)
    60. (0.00006) BD*( 2) S   1 - S   2  
                ( 50.00%)   0.7071* S   1 s( 11.80%)p 7.41( 87.43%)d 0.07(  0.77%)
                ( 50.00%)  -0.7071* S   2 s( 11.80%)p 7.41( 87.43%)d 0.07(  0.77%)


 NHO Directionality and "Bond Bending" (deviations from line of nuclear centers)

         [Thresholds for printing:  angular deviation  >  1.0 degree]
                                    hybrid p-character > 25.0%
                                    orbital occupancy  >  0.10e

                                Line of Centers        Hybrid 1              Hybrid 2
                                ---------------  -------------------   ------------------
                NBO               Theta   Phi    Theta   Phi    Dev    Theta   Phi    Dev
 ========================================================================================
     1. BD (   1) S   1 - S   2   180.0    0.0    90.0    0.0  90.0     90.0    0.0  90.0
    14. LP (   2) S   1             --     --     90.0   90.0   --       --     --    --
    16. LP (   2) S   2             --     --     90.0   90.0   --       --     --    --


 Second Order Perturbation Theory Analysis of Fock Matrix in NBO Basis

     Threshold for printing:   0.25 kcal/mol
                                                                              E(2)  E(j)-E(i) F(i,j)
         Donor NBO (i)                     Acceptor NBO (j)                 kcal/mol   a.u.    a.u. 
 ===================================================================================================

 within unit  1
   4. CR (   2) S   1                / 40. RY*(   3) S   2                    0.41    9.72    0.080
   9. CR (   2) S   2                / 19. RY*(   3) S   1                    0.41    9.72    0.080
  14. LP (   2) S   1                / 38. RY*(   1) S   2                    1.95    0.89    0.053
  16. LP (   2) S   2                / 17. RY*(   1) S   1                    1.95    0.89    0.053


 Natural Bond Orbitals (Summary):

                                                            Principal Delocalizations
           NBO                        Occupancy    Energy   (geminal,vicinal,remote)
 ====================================================================================
 Molecular unit  1  (S2)
     1. BD (   1) S   1 - S   2          1.00000    -0.40250   
     2. BD (   2) S   1 - S   2          1.00000    -0.68752   
     3. CR (   1) S   1                  1.00000   -88.92482   
     4. CR (   2) S   1                  0.99992    -9.21794  40(v)
     5. CR (   3) S   1                  0.99997    -6.24454   
     6. CR (   4) S   1                  1.00000    -6.23613   
     7. CR (   5) S   1                  0.99996    -6.24233   
     8. CR (   1) S   2                  1.00000   -88.92482   
     9. CR (   2) S   2                  0.99992    -9.21794  19(v)
    10. CR (   3) S   2                  0.99997    -6.24454   
    11. CR (   4) S   2                  1.00000    -6.23613   
    12. CR (   5) S   2                  0.99996    -6.24233   
    13. LP (   1) S   1                  0.99979    -0.82565   
    14. LP (   2) S   1                  0.99655    -0.34154  38(v)
    15. LP (   1) S   2                  0.99979    -0.82565   
    16. LP (   2) S   2                  0.99655    -0.34154  17(v)
    17. RY*(   1) S   1                  0.00345     0.55278   
    18. RY*(   2) S   1                  0.00022     0.37616   
    19. RY*(   3) S   1                  0.00008     0.50506   
    20. RY*(   4) S   1                  0.00000   172.07841   
    21. RY*(   5) S   1                  0.00000     0.28388   
    22. RY*(   6) S   1                  0.00000     1.65642   
    23. RY*(   7) S   1                  0.00000     1.31031   
    24. RY*(   8) S   1                  0.00000    16.24399   
    25. RY*(   9) S   1                  0.00000     0.56780   
    26. RY*(  10) S   1                  0.00000     1.66389   
    27. RY*(  11) S   1                  0.00000     1.31396   
    28. RY*(  12) S   1                  0.00000    16.24026   
    29. RY*(  13) S   1                  0.00000     0.82014   
    30. RY*(  14) S   1                  0.00000     1.66289   
    31. RY*(  15) S   1                  0.00000     1.39599   
    32. RY*(  16) S   1                  0.00000    16.10643   
    33. RY*(  17) S   1                  0.00000     0.79763   
    34. RY*(  18) S   1                  0.00000     0.79322   
    35. RY*(  19) S   1                  0.00000    24.58625   
    36. RY*(  20) S   1                  0.00000     0.79115   
    37. RY*(  21) S   1                  0.00000     0.69264   
    38. RY*(   1) S   2                  0.00345     0.55278   
    39. RY*(   2) S   2                  0.00022     0.37616   
    40. RY*(   3) S   2                  0.00008     0.50506   
    41. RY*(   4) S   2                  0.00000   172.07841   
    42. RY*(   5) S   2                  0.00000     0.28388   
    43. RY*(   6) S   2                  0.00000     1.65642   
    44. RY*(   7) S   2                  0.00000     1.31031   
    45. RY*(   8) S   2                  0.00000    16.24399   
    46. RY*(   9) S   2                  0.00000     0.56780   
    47. RY*(  10) S   2                  0.00000     1.66389   
    48. RY*(  11) S   2                  0.00000     1.31396   
    49. RY*(  12) S   2                  0.00000    16.24026   
    50. RY*(  13) S   2                  0.00000     0.82014   
    51. RY*(  14) S   2                  0.00000     1.66289   
    52. RY*(  15) S   2                  0.00000     1.39599   
    53. RY*(  16) S   2                  0.00000    16.10643   
    54. RY*(  17) S   2                  0.00000     0.79763   
    55. RY*(  18) S   2                  0.00000     0.79322   
    56. RY*(  19) S   2                  0.00000    24.58625   
    57. RY*(  20) S   2                  0.00000     0.79115   
    58. RY*(  21) S   2                  0.00000     0.69264   
    59. BD*(   1) S   1 - S   2          0.00005    -0.13937   
    60. BD*(   2) S   1 - S   2          0.00006     0.10362   
       -------------------------------
              Total Lewis   15.99238  ( 99.9524%)
        Valence non-Lewis    0.00011  (  0.0007%)
        Rydberg non-Lewis    0.00751  (  0.0469%)
       -------------------------------
            Total unit  1   16.00000  (100.0000%)
           Charge unit  1    0.00000
 Sorting of NBOs:                    3    8    4    9    5   10   12    7   11    6
 Sorting of NBOs:                   13   15    2    1   16   14   59   60   42   21
 Sorting of NBOs:                   18   39   40   19   17   38   46   25   58   37
 Sorting of NBOs:                   57   36   55   34   33   54   50   29   44   23
 Sorting of NBOs:                   48   27   52   31   22   43   30   51   26   47
 Sorting of NBOs:                   53   32   49   28   45   24   56   35   20   41
 Reordering of NBOs for storage:     3    8    4    9    5   10   12    7   11    6
 Reordering of NBOs for storage:    13   15    2    1   16   14   59   60   42   21
 Reordering of NBOs for storage:    18   39   40   19   17   38   46   25   58   37
 Reordering of NBOs for storage:    57   36   55   34   33   54   50   29   44   23
 Reordering of NBOs for storage:    48   27   52   31   22   43   30   51   26   47
 Reordering of NBOs for storage:    53   32   49   28   45   24   56   35   20   41
 Labels of output orbitals:  CR  CR  CR  CR  CR  CR  CR  CR  CR  CR  LP  LP  BD  BD  LP  LP  BD* BD* RY* RY* 
 Labels of output orbitals:  RY* RY* RY* RY* RY* RY* RY* RY* RY* RY* RY* RY* RY* RY* RY* RY* RY* RY* RY* RY* 
 Labels of output orbitals:  RY* RY* RY* RY* RY* RY* RY* RY* RY* RY* RY* RY* RY* RY* RY* RY* RY* RY* RY* RY* 
 GSVD:  LWork=       -2288 too small for GESVD, short by       10340 words or       10340 for optimal perf.


 ***************************************************
 *******         Beta  spin orbitals         *******
 ***************************************************


 NATURAL POPULATIONS:  Natural atomic orbital occupancies 
                                                          
   NAO  Atom  No  lang   Type(AO)    Occupancy      Energy
 ----------------------------------------------------------
     1    S    1  S      Cor( 1S)     1.00000     -88.92482
     2    S    1  S      Cor( 2S)     0.99992      -9.21793
     3    S    1  S      Val( 3S)     0.94304      -0.86214
     4    S    1  S      Ryd( 4S)     0.00364       0.32401
     5    S    1  S      Ryd( 5S)     0.00009       0.58839
     6    S    1  S      Ryd( 6S)     0.00000      24.58862
     7    S    1  S      Ryd( 7S)     0.00000     172.07477
     8    S    1  px     Cor( 2p)     0.99997      -6.24454
     9    S    1  px     Val( 3p)     0.49714      -0.27294
    10    S    1  px     Ryd( 4p)     0.00002       0.28357
    11    S    1  px     Ryd( 6p)     0.00004       1.65637
    12    S    1  px     Ryd( 5p)     0.00000       1.31030
    13    S    1  px     Ryd( 7p)     0.00000      16.24397
    14    S    1  py     Cor( 2p)     1.00000      -6.23613
    15    S    1  py     Val( 3p)     0.99499      -0.34072
    16    S    1  py     Ryd( 4p)     0.00291       0.29484
    17    S    1  py     Ryd( 6p)     0.00001       1.66514
    18    S    1  py     Ryd( 5p)     0.00001       1.31714
    19    S    1  py     Ryd( 7p)     0.00000      16.24446
    20    S    1  pz     Cor( 2p)     0.99996      -6.24233
    21    S    1  pz     Val( 3p)     0.54601      -0.27267
    22    S    1  pz     Ryd( 4p)     0.00321       0.29033
    23    S    1  pz     Ryd( 6p)     0.00002       1.72082
    24    S    1  pz     Ryd( 5p)     0.00000       1.41573
    25    S    1  pz     Ryd( 7p)     0.00000      16.21489
    26    S    1  dxy    Ryd( 3d)     0.00000       0.79763
    27    S    1  dxz    Ryd( 3d)     0.00282       0.79561
    28    S    1  dyz    Ryd( 3d)     0.00208       0.81630
    29    S    1  dx2y2  Ryd( 3d)     0.00013       0.79320
    30    S    1  dz2    Ryd( 3d)     0.00397       1.02157
 
    31    S    2  S      Cor( 1S)     1.00000     -88.92482
    32    S    2  S      Cor( 2S)     0.99992      -9.21793
    33    S    2  S      Val( 3S)     0.94304      -0.86214
    34    S    2  S      Ryd( 4S)     0.00364       0.32401
    35    S    2  S      Ryd( 5S)     0.00009       0.58839
    36    S    2  S      Ryd( 6S)     0.00000      24.58862
    37    S    2  S      Ryd( 7S)     0.00000     172.07477
    38    S    2  px     Cor( 2p)     0.99997      -6.24454
    39    S    2  px     Val( 3p)     0.49714      -0.27294
    40    S    2  px     Ryd( 4p)     0.00002       0.28357
    41    S    2  px     Ryd( 6p)     0.00004       1.65637
    42    S    2  px     Ryd( 5p)     0.00000       1.31030
    43    S    2  px     Ryd( 7p)     0.00000      16.24397
    44    S    2  py     Cor( 2p)     1.00000      -6.23613
    45    S    2  py     Val( 3p)     0.99499      -0.34072
    46    S    2  py     Ryd( 4p)     0.00291       0.29484
    47    S    2  py     Ryd( 6p)     0.00001       1.66514
    48    S    2  py     Ryd( 5p)     0.00001       1.31714
    49    S    2  py     Ryd( 7p)     0.00000      16.24446
    50    S    2  pz     Cor( 2p)     0.99996      -6.24233
    51    S    2  pz     Val( 3p)     0.54601      -0.27267
    52    S    2  pz     Ryd( 4p)     0.00321       0.29033
    53    S    2  pz     Ryd( 6p)     0.00002       1.72082
    54    S    2  pz     Ryd( 5p)     0.00000       1.41573
    55    S    2  pz     Ryd( 7p)     0.00000      16.21489
    56    S    2  dxy    Ryd( 3d)     0.00000       0.79763
    57    S    2  dxz    Ryd( 3d)     0.00282       0.79561
    58    S    2  dyz    Ryd( 3d)     0.00208       0.81630
    59    S    2  dx2y2  Ryd( 3d)     0.00013       0.79320
    60    S    2  dz2    Ryd( 3d)     0.00397       1.02157

 WARNING:  Population inversion found on atom  S    1
           Population inversion found on atom  S    2


 Summary of Natural Population Analysis:                  
                                                          
                                       Natural Population 
                Natural  -----------------------------------------------
    Atom  No    Charge         Core      Valence    Rydberg      Total
 -----------------------------------------------------------------------
      S    1   -0.00000      4.99985     2.98118    0.01896     8.00000
      S    2   -0.00000      4.99985     2.98118    0.01896     8.00000
 =======================================================================
   * Total *   -0.00000      9.99971     5.96236    0.03793    16.00000

                                 Natural Population      
 --------------------------------------------------------
   Core                       9.99971 ( 99.9971% of  10)
   Valence                    5.96236 ( 99.3727% of   6)
   Natural Minimal Basis     15.96207 ( 99.7630% of  16)
   Natural Rydberg Basis      0.03793 (  0.2370% of  16)
 --------------------------------------------------------

    Atom  No          Natural Electron Configuration
 ----------------------------------------------------------------------------
      S    1      [core]3S( 0.94)3p( 2.04)3d( 0.01)4p( 0.01)
      S    2      [core]3S( 0.94)3p( 2.04)3d( 0.01)4p( 0.01)


 NATURAL BOND ORBITAL ANALYSIS, beta spin orbitals:

                       Occupancies       Lewis Structure    Low   High
           Occ.    -------------------  -----------------   occ   occ
  Cycle   Thresh.   Lewis   Non-Lewis     CR  BD  3C  LP    (L)   (NL)   Dev
 =============================================================================
   1(1)    0.90    15.99238   0.00762     10   2   0   4     0      0    0.00
 -----------------------------------------------------------------------------

 Structure accepted: No low occupancy Lewis orbitals

 --------------------------------------------------------
   Core                      9.99971 ( 99.997% of  10)
   Valence Lewis             5.99267 ( 99.878% of   6)
  ==================       ============================
   Total Lewis              15.99238 ( 99.952% of  16)
  -----------------------------------------------------
   Valence non-Lewis         0.00011 (  0.001% of  16)
   Rydberg non-Lewis         0.00751 (  0.047% of  16)
  ==================       ============================
   Total non-Lewis           0.00762 (  0.048% of  16)
 --------------------------------------------------------


       (Occupancy)   Bond orbital/ Coefficients/ Hybrids
 ---------------------------------------------------------------------------------
     1. (1.00000) BD ( 1) S   1 - S   2  
                ( 50.00%)   0.7071* S   1 s(  0.00%)p 1.00( 99.44%)d 0.01(  0.56%)
                                            0.0000  0.0000  0.0000  0.0000  0.0000
                                            0.0000  0.0000  0.0000  0.9971  0.0068
                                           -0.0089 -0.0011  0.0006  0.0000  0.0000
                                            0.0000  0.0000  0.0000  0.0000  0.0000
                                            0.0000  0.0000  0.0000  0.0000  0.0000
                                            0.0000 -0.0751  0.0000  0.0000  0.0000
                ( 50.00%)   0.7071* S   2 s(  0.00%)p 1.00( 99.44%)d 0.01(  0.56%)
                                            0.0000  0.0000  0.0000  0.0000  0.0000
                                            0.0000  0.0000 -0.0000  0.9971  0.0068
                                           -0.0089 -0.0011  0.0006  0.0000  0.0000
                                            0.0000  0.0000  0.0000  0.0000  0.0000
                                            0.0000  0.0000  0.0000  0.0000  0.0000
                                            0.0000  0.0751  0.0000  0.0000  0.0000
     2. (1.00000) BD ( 2) S   1 - S   2  
                ( 50.00%)   0.7071* S   1 s( 11.80%)p 7.41( 87.43%)d 0.07(  0.77%)
                                            0.0000  0.0000 -0.3337  0.0816  0.0019
                                            0.0000 -0.0000  0.0000  0.0000  0.0000
                                            0.0000  0.0000  0.0000  0.0000  0.0000
                                            0.0000  0.0000  0.0000  0.0000  0.0000
                                            0.9317 -0.0784  0.0029 -0.0017  0.0006
                                            0.0000  0.0000  0.0000 -0.0033 -0.0878
                ( 50.00%)   0.7071* S   2 s( 11.80%)p 7.41( 87.43%)d 0.07(  0.77%)
                                            0.0000  0.0000 -0.3337  0.0816  0.0019
                                            0.0000 -0.0000  0.0000  0.0000  0.0000
                                            0.0000  0.0000  0.0000  0.0000  0.0000
                                            0.0000  0.0000  0.0000  0.0000 -0.0000
                                           -0.9317  0.0784 -0.0029  0.0017 -0.0006
                                            0.0000  0.0000  0.0000 -0.0033 -0.0878
     3. (1.00000) CR ( 1) S   1           s(100.00%)
                                            1.0000 -0.0000  0.0000  0.0000  0.0000
                                            0.0000 -0.0000  0.0000  0.0000  0.0000
                                            0.0000  0.0000  0.0000  0.0000  0.0000
                                            0.0000  0.0000  0.0000  0.0000  0.0000
                                            0.0000 -0.0000  0.0000  0.0000 -0.0000
                                            0.0000  0.0000  0.0000  0.0000 -0.0000
     4. (0.99992) CR ( 2) S   1           s(100.00%)
                                           -0.0000  1.0000  0.0000  0.0000  0.0000
                                            0.0000 -0.0000  0.0000  0.0000  0.0000
                                            0.0000  0.0000  0.0000  0.0000  0.0000
                                            0.0000  0.0000  0.0000  0.0000  0.0000
                                            0.0000 -0.0000  0.0000  0.0000 -0.0000
                                            0.0000  0.0000  0.0000  0.0000 -0.0000
     5. (0.99997) CR ( 3) S   1           s(  0.00%)p 1.00(100.00%)
                                            0.0000  0.0000  0.0000  0.0000  0.0000
                                            0.0000  0.0000  1.0000  0.0000  0.0000
                                            0.0000  0.0000  0.0000  0.0000  0.0000
                                            0.0000  0.0000  0.0000  0.0000  0.0000
                                            0.0000  0.0000  0.0000  0.0000  0.0000
                                            0.0000  0.0000  0.0000  0.0000  0.0000
     6. (1.00000) CR ( 4) S   1           s(  0.00%)p 1.00(100.00%)
                                            0.0000  0.0000  0.0000  0.0000  0.0000
                                            0.0000  0.0000  0.0000  0.0000  0.0000
                                            0.0000  0.0000  0.0000  1.0000 -0.0000
                                           -0.0000 -0.0000 -0.0000  0.0000  0.0000
                                            0.0000  0.0000  0.0000  0.0000  0.0000
                                            0.0000  0.0000  0.0000  0.0000  0.0000
     7. (0.99996) CR ( 5) S   1           s(  0.00%)p 1.00(100.00%)
                                            0.0000  0.0000 -0.0000 -0.0000 -0.0000
                                           -0.0000  0.0000  0.0000  0.0000  0.0000
                                            0.0000  0.0000  0.0000  0.0000  0.0000
                                            0.0000  0.0000  0.0000  0.0000  1.0000
                                           -0.0000  0.0000 -0.0000 -0.0000  0.0000
                                            0.0000  0.0000  0.0000 -0.0000  0.0000
     8. (1.00000) CR ( 1) S   2           s(100.00%)
                                            1.0000 -0.0000  0.0000  0.0000  0.0000
                                            0.0000 -0.0000  0.0000  0.0000  0.0000
                                            0.0000  0.0000  0.0000  0.0000  0.0000
                                            0.0000  0.0000  0.0000  0.0000 -0.0000
                                           -0.0000  0.0000 -0.0000 -0.0000  0.0000
                                            0.0000  0.0000  0.0000  0.0000 -0.0000
     9. (0.99992) CR ( 2) S   2           s(100.00%)
                                           -0.0000  1.0000  0.0000  0.0000  0.0000
                                            0.0000 -0.0000  0.0000  0.0000  0.0000
                                            0.0000  0.0000  0.0000  0.0000  0.0000
                                            0.0000  0.0000  0.0000  0.0000 -0.0000
                                           -0.0000  0.0000 -0.0000 -0.0000  0.0000
                                            0.0000  0.0000  0.0000  0.0000 -0.0000
    10. (0.99997) CR ( 3) S   2           s(  0.00%)p 1.00(100.00%)
                                            0.0000  0.0000  0.0000  0.0000  0.0000
                                            0.0000  0.0000  1.0000  0.0000  0.0000
                                            0.0000  0.0000  0.0000  0.0000  0.0000
                                            0.0000  0.0000  0.0000  0.0000  0.0000
                                            0.0000  0.0000  0.0000  0.0000  0.0000
                                            0.0000  0.0000  0.0000  0.0000  0.0000
    11. (1.00000) CR ( 4) S   2           s(  0.00%)p 1.00(100.00%)
                                            0.0000  0.0000  0.0000  0.0000  0.0000
                                            0.0000  0.0000  0.0000  0.0000  0.0000
                                            0.0000  0.0000  0.0000  1.0000 -0.0000
                                           -0.0000 -0.0000 -0.0000  0.0000  0.0000
                                            0.0000  0.0000  0.0000  0.0000  0.0000
                                            0.0000  0.0000 -0.0000  0.0000  0.0000
    12. (0.99996) CR ( 5) S   2           s(  0.00%)p 1.00(100.00%)
                                           -0.0000 -0.0000  0.0000  0.0000  0.0000
                                            0.0000 -0.0000  0.0000  0.0000  0.0000
                                            0.0000  0.0000  0.0000  0.0000  0.0000
                                            0.0000  0.0000  0.0000  0.0000  1.0000
                                           -0.0000  0.0000 -0.0000 -0.0000  0.0000
                                            0.0000  0.0000  0.0000  0.0000 -0.0000
    13. (0.99979) LP ( 1) S   1           s( 88.78%)p 0.13( 11.20%)d 0.00(  0.02%)
                                           -0.0000 -0.0000  0.9421  0.0144  0.0003
                                            0.0000 -0.0000  0.0000  0.0000  0.0000
                                            0.0000  0.0000  0.0000  0.0000  0.0000
                                            0.0000  0.0000  0.0000  0.0000  0.0000
                                            0.3346 -0.0090  0.0028  0.0004 -0.0005
                                            0.0000  0.0000  0.0000  0.0113 -0.0090
    14. (0.99655) LP ( 2) S   1           s(  0.00%)p 1.00( 99.98%)d 0.00(  0.02%)
                                            0.0000  0.0000  0.0000  0.0000  0.0000
                                            0.0000  0.0000  0.0000  0.0000  0.0000
                                            0.0000  0.0000  0.0000  0.0000  0.9992
                                            0.0363  0.0022  0.0012 -0.0004  0.0000
                                            0.0000  0.0000  0.0000  0.0000  0.0000
                                            0.0000  0.0000 -0.0154  0.0000  0.0000
    15. (0.99979) LP ( 1) S   2           s( 88.78%)p 0.13( 11.20%)d 0.00(  0.02%)
                                           -0.0000 -0.0000  0.9421  0.0144  0.0003
                                            0.0000 -0.0000  0.0000  0.0000  0.0000
                                            0.0000  0.0000  0.0000  0.0000  0.0000
[...]
    16. (0.99655) LP ( 2) S   2           s(  0.00%)p 1.00( 99.98%)d 0.00(  0.02%)
                                            0.0000  0.0000  0.0000  0.0000  0.0000
                                            0.0000  0.0000  0.0000  0.0000  0.0000
                                            0.0000  0.0000  0.0000  0.0000  0.9992
                                            0.0363  0.0022  0.0012 -0.0004  0.0000
                                            0.0000  0.0000  0.0000  0.0000  0.0000
                                            0.0000  0.0000  0.0154  0.0000  0.0000
    17. (0.00345) RY*( 1) S   1           s(  0.00%)p 1.00( 46.58%)d 1.15( 53.42%)
                                            0.0000  0.0000  0.0000  0.0000  0.0000
                                            0.0000  0.0000  0.0000  0.0000  0.0000
                                            0.0000  0.0000  0.0000  0.0000 -0.0134
                                            0.6796  0.0436 -0.0411  0.0146  0.0000
                                            0.0000  0.0000  0.0000  0.0000  0.0000
                                            0.0000  0.0000  0.7309  0.0000  0.0000
    18. (0.00022) RY*( 2) S   1           s( 81.76%)p 0.16( 12.92%)d 0.07(  5.32%)
                                           -0.0000  0.0000  0.0094  0.6843 -0.5910
                                           -0.0002  0.0003  0.0000  0.0000  0.0000
                                            0.0000  0.0000  0.0000  0.0000  0.0000
                                            0.0000  0.0000  0.0000  0.0000 -0.0000
                                           -0.0598 -0.3033  0.1554 -0.0429  0.0874
                                            0.0000  0.0000  0.0000  0.0355  0.2279
    19. (0.00008) RY*( 3) S   1           s( 11.72%)p 4.77( 55.95%)d 2.76( 32.33%)
    20. (0.00000) RY*( 4) S   1           s(100.00%)p 0.00(  0.00%)d 0.00(  0.00%)
    21. (0.00000) RY*( 5) S   1           s(  0.00%)p 1.00(100.00%)d 0.00(  0.00%)
    22. (0.00000) RY*( 6) S   1           s(  0.00%)p 1.00(100.00%)d 0.00(  0.00%)
    23. (0.00000) RY*( 7) S   1           s(  0.00%)p 1.00(100.00%)
    24. (0.00000) RY*( 8) S   1           s(  0.00%)p 1.00(100.00%)
    25. (0.00000) RY*( 9) S   1           s(  0.00%)p 1.00( 53.64%)d 0.86( 46.36%)
    26. (0.00000) RY*(10) S   1           s(  0.00%)p 1.00( 99.90%)d 0.00(  0.10%)
    27. (0.00000) RY*(11) S   1           s(  0.00%)p 1.00( 99.91%)d 0.00(  0.09%)
    28. (0.00000) RY*(12) S   1           s(  0.00%)p 1.00( 99.99%)d 0.00(  0.01%)
    29. (0.00000) RY*(13) S   1           s( 88.63%)p 0.06(  5.63%)d 0.06(  5.74%)
    30. (0.00000) RY*(14) S   1           s(  2.02%)p48.61( 97.98%)d 0.00(  0.00%)
    31. (0.00000) RY*(15) S   1           s(  0.62%)p99.99( 98.57%)d 1.31(  0.81%)
    32. (0.00000) RY*(16) S   1           s(  0.75%)p99.99( 99.14%)d 0.16(  0.12%)
    33. (0.00000) RY*(17) S   1           s(  0.00%)p 0.00(  0.00%)d 1.00(100.00%)
    34. (0.00000) RY*(18) S   1           s(  0.00%)p 1.00(  0.56%)d99.99( 99.44%)
    35. (0.00000) RY*(19) S   1           s(100.00%)p 0.00(  0.00%)d 0.00(  0.00%)
    36. (0.00000) RY*(20) S   1           s(  0.19%)p 0.45(  0.08%)d99.99( 99.73%)
    37. (0.00000) RY*(21) S   1           s( 13.74%)p 2.26( 31.10%)d 4.01( 55.16%)
    38. (0.00345) RY*( 1) S   2           s(  0.00%)p 1.00( 46.58%)d 1.15( 53.42%)
                                            0.0000  0.0000  0.0000  0.0000  0.0000
                                            0.0000  0.0000  0.0000  0.0000  0.0000
                                            0.0000  0.0000  0.0000 -0.0000  0.0134
                                           -0.6796 -0.0436  0.0411 -0.0146  0.0000
                                            0.0000  0.0000  0.0000  0.0000  0.0000
                                            0.0000  0.0000  0.7309  0.0000  0.0000
    39. (0.00022) RY*( 2) S   2           s( 81.76%)p 0.16( 12.92%)d 0.07(  5.32%)
                                           -0.0000  0.0000  0.0094  0.6843 -0.5910
                                           -0.0002  0.0003  0.0000  0.0000  0.0000
                                            0.0000  0.0000  0.0000  0.0000  0.0000
                                            0.0000  0.0000  0.0000  0.0000  0.0000
                                            0.0598  0.3033 -0.1554  0.0429 -0.0874
                                            0.0000  0.0000  0.0000  0.0355  0.2279
    40. (0.00008) RY*( 3) S   2           s( 11.72%)p 4.77( 55.95%)d 2.76( 32.33%)
    41. (0.00000) RY*( 4) S   2           s(100.00%)p 0.00(  0.00%)d 0.00(  0.00%)
    42. (0.00000) RY*( 5) S   2           s(  0.00%)p 1.00(100.00%)d 0.00(  0.00%)
    43. (0.00000) RY*( 6) S   2           s(  0.00%)p 1.00(100.00%)d 0.00(  0.00%)
    44. (0.00000) RY*( 7) S   2           s(  0.00%)p 1.00(100.00%)
    45. (0.00000) RY*( 8) S   2           s(  0.00%)p 1.00(100.00%)
    46. (0.00000) RY*( 9) S   2           s(  0.00%)p 1.00( 53.64%)d 0.86( 46.36%)
    47. (0.00000) RY*(10) S   2           s(  0.00%)p 1.00( 99.90%)d 0.00(  0.10%)
    48. (0.00000) RY*(11) S   2           s(  0.00%)p 1.00( 99.91%)d 0.00(  0.09%)
    49. (0.00000) RY*(12) S   2           s(  0.00%)p 1.00( 99.99%)d 0.00(  0.01%)
    50. (0.00000) RY*(13) S   2           s( 88.63%)p 0.06(  5.63%)d 0.06(  5.74%)
    51. (0.00000) RY*(14) S   2           s(  2.02%)p48.61( 97.98%)d 0.00(  0.00%)
    52. (0.00000) RY*(15) S   2           s(  0.62%)p99.99( 98.57%)d 1.31(  0.81%)
    53. (0.00000) RY*(16) S   2           s(  0.75%)p99.99( 99.14%)d 0.16(  0.12%)
    54. (0.00000) RY*(17) S   2           s(  0.00%)p 0.00(  0.00%)d 1.00(100.00%)
    55. (0.00000) RY*(18) S   2           s(  0.00%)p 1.00(  0.56%)d99.99( 99.44%)
    56. (0.00000) RY*(19) S   2           s(100.00%)p 0.00(  0.00%)d 0.00(  0.00%)
    57. (0.00000) RY*(20) S   2           s(  0.19%)p 0.45(  0.08%)d99.99( 99.73%)
    58. (0.00000) RY*(21) S   2           s( 13.74%)p 2.26( 31.10%)d 4.01( 55.16%)
    59. (0.00005) BD*( 1) S   1 - S   2  
                ( 50.00%)   0.7071* S   1 s(  0.00%)p 1.00( 99.44%)d 0.01(  0.56%)
                ( 50.00%)  -0.7071* S   2 s(  0.00%)p 1.00( 99.44%)d 0.01(  0.56%)
    60. (0.00006) BD*( 2) S   1 - S   2  
                ( 50.00%)   0.7071* S   1 s( 11.80%)p 7.41( 87.43%)d 0.07(  0.77%)
                ( 50.00%)  -0.7071* S   2 s( 11.80%)p 7.41( 87.43%)d 0.07(  0.77%)


 NHO Directionality and "Bond Bending" (deviations from line of nuclear centers)

         [Thresholds for printing:  angular deviation  >  1.0 degree]
                                    hybrid p-character > 25.0%
                                    orbital occupancy  >  0.10e

                                Line of Centers        Hybrid 1              Hybrid 2
                                ---------------  -------------------   ------------------
                NBO               Theta   Phi    Theta   Phi    Dev    Theta   Phi    Dev
 ========================================================================================
     1. BD (   1) S   1 - S   2   180.0    0.0    90.0    0.0  90.0     90.0    0.0  90.0
    14. LP (   2) S   1             --     --     90.0   90.0   --       --     --    --
    16. LP (   2) S   2             --     --     90.0   90.0   --       --     --    --


 Second Order Perturbation Theory Analysis of Fock Matrix in NBO Basis

     Threshold for printing:   0.25 kcal/mol
                                                                              E(2)  E(j)-E(i) F(i,j)
         Donor NBO (i)                     Acceptor NBO (j)                 kcal/mol   a.u.    a.u. 
 ===================================================================================================

 within unit  1
   4. CR (   2) S   1                / 40. RY*(   3) S   2                    0.41    9.72    0.080
   9. CR (   2) S   2                / 19. RY*(   3) S   1                    0.41    9.72    0.080
  14. LP (   2) S   1                / 38. RY*(   1) S   2                    1.95    0.89    0.053
  16. LP (   2) S   2                / 17. RY*(   1) S   1                    1.95    0.89    0.053


 Natural Bond Orbitals (Summary):

                                                            Principal Delocalizations
           NBO                        Occupancy    Energy   (geminal,vicinal,remote)
 ====================================================================================
 Molecular unit  1  (S2)
     1. BD (   1) S   1 - S   2          1.00000    -0.40250   
     2. BD (   2) S   1 - S   2          1.00000    -0.68752   
     3. CR (   1) S   1                  1.00000   -88.92482   
     4. CR (   2) S   1                  0.99992    -9.21794  40(v)
     5. CR (   3) S   1                  0.99997    -6.24454   
     6. CR (   4) S   1                  1.00000    -6.23613   
     7. CR (   5) S   1                  0.99996    -6.24233   
     8. CR (   1) S   2                  1.00000   -88.92482   
     9. CR (   2) S   2                  0.99992    -9.21794  19(v)
    10. CR (   3) S   2                  0.99997    -6.24454   
    11. CR (   4) S   2                  1.00000    -6.23613   
    12. CR (   5) S   2                  0.99996    -6.24233   
    13. LP (   1) S   1                  0.99979    -0.82565   
    14. LP (   2) S   1                  0.99655    -0.34154  38(v)
    15. LP (   1) S   2                  0.99979    -0.82565   
    16. LP (   2) S   2                  0.99655    -0.34154  17(v)
    17. RY*(   1) S   1                  0.00345     0.55278   
    18. RY*(   2) S   1                  0.00022     0.37616   
    19. RY*(   3) S   1                  0.00008     0.50506   
    20. RY*(   4) S   1                  0.00000   172.07841   
    21. RY*(   5) S   1                  0.00000     0.28388   
    22. RY*(   6) S   1                  0.00000     1.65642   
    23. RY*(   7) S   1                  0.00000     1.31031   
    24. RY*(   8) S   1                  0.00000    16.24399   
    25. RY*(   9) S   1                  0.00000     0.56780   
    26. RY*(  10) S   1                  0.00000     1.66389   
    27. RY*(  11) S   1                  0.00000     1.31396   
    28. RY*(  12) S   1                  0.00000    16.24026   
    29. RY*(  13) S   1                  0.00000     0.82014   
    30. RY*(  14) S   1                  0.00000     1.66289   
    31. RY*(  15) S   1                  0.00000     1.39599   
    32. RY*(  16) S   1                  0.00000    16.10643   
    33. RY*(  17) S   1                  0.00000     0.79763   
    34. RY*(  18) S   1                  0.00000     0.79322   
    35. RY*(  19) S   1                  0.00000    24.58625   
    36. RY*(  20) S   1                  0.00000     0.79115   
    37. RY*(  21) S   1                  0.00000     0.69264   
    38. RY*(   1) S   2                  0.00345     0.55278   
    39. RY*(   2) S   2                  0.00022     0.37616   
    40. RY*(   3) S   2                  0.00008     0.50506   
    41. RY*(   4) S   2                  0.00000   172.07841   
    42. RY*(   5) S   2                  0.00000     0.28388   
    43. RY*(   6) S   2                  0.00000     1.65642   
    44. RY*(   7) S   2                  0.00000     1.31031   
    45. RY*(   8) S   2                  0.00000    16.24399   
    46. RY*(   9) S   2                  0.00000     0.56780   
    47. RY*(  10) S   2                  0.00000     1.66389   
    48. RY*(  11) S   2                  0.00000     1.31396   
    49. RY*(  12) S   2                  0.00000    16.24026   
    50. RY*(  13) S   2                  0.00000     0.82014   
    51. RY*(  14) S   2                  0.00000     1.66289   
    52. RY*(  15) S   2                  0.00000     1.39599   
    53. RY*(  16) S   2                  0.00000    16.10643   
    54. RY*(  17) S   2                  0.00000     0.79763   
    55. RY*(  18) S   2                  0.00000     0.79322   
    56. RY*(  19) S   2                  0.00000    24.58625   
    57. RY*(  20) S   2                  0.00000     0.79115   
    58. RY*(  21) S   2                  0.00000     0.69264   
    59. BD*(   1) S   1 - S   2          0.00005    -0.13937   
    60. BD*(   2) S   1 - S   2          0.00006     0.10362   
       -------------------------------
              Total Lewis   15.99238  ( 99.9524%)
        Valence non-Lewis    0.00011  (  0.0007%)
        Rydberg non-Lewis    0.00751  (  0.0469%)
       -------------------------------
            Total unit  1   16.00000  (100.0000%)
           Charge unit  1    0.00000
 Sorting of NBOs:                    3    8    9    4    5   10    7   12   11    6
 Sorting of NBOs:                   15   13    2    1   16   14   59   60   42   21
 Sorting of NBOs:                   39   18   19   40   17   38   46   25   58   37
 Sorting of NBOs:                   57   36   55   34   33   54   50   29   44   23
 Sorting of NBOs:                   48   27   52   31   22   43   30   51   26   47
 Sorting of NBOs:                   32   53   49   28   45   24   56   35   20   41
 Reordering of NBOs for storage:     3    8    9    4    5   10    7   12   11    6
 Reordering of NBOs for storage:    15   13    2    1   16   14   59   60   42   21
 Reordering of NBOs for storage:    39   18   19   40   17   38   46   25   58   37
 Reordering of NBOs for storage:    57   36   55   34   33   54   50   29   44   23
 Reordering of NBOs for storage:    48   27   52   31   22   43   30   51   26   47
 Reordering of NBOs for storage:    32   53   49   28   45   24   56   35   20   41
 Labels of output orbitals:  CR  CR  CR  CR  CR  CR  CR  CR  CR  CR  LP  LP  BD  BD  LP  LP  BD* BD* RY* RY* 
 Labels of output orbitals:  RY* RY* RY* RY* RY* RY* RY* RY* RY* RY* RY* RY* RY* RY* RY* RY* RY* RY* RY* RY* 
 Labels of output orbitals:  RY* RY* RY* RY* RY* RY* RY* RY* RY* RY* RY* RY* RY* RY* RY* RY* RY* RY* RY* RY* 
 GSVD:  LWork=       -2288 too small for GESVD, short by       10340 words or       10340 for optimal perf.
 Leave Link  607 at Mon Apr 21 20:08:38 2025, MaxMem=   536870912 cpu:              10.7 elap:               1.9
 (Enter /home/szhao/Apps/g16/l701.exe)
 ... and contract with generalized density number  0.
 Compute integral first derivatives.
 Leave Link  701 at Mon Apr 21 20:08:40 2025, MaxMem=   536870912 cpu:               1.8 elap:               0.4
 (Enter /home/szhao/Apps/g16/l702.exe)
 L702 exits ... SP integral derivatives will be done elsewhere.
 Leave Link  702 at Mon Apr 21 20:08:40 2025, MaxMem=   536870912 cpu:               0.6 elap:               0.1
 (Enter /home/szhao/Apps/g16/l703.exe)
 Integral derivatives from FoFJK, PRISM(SPDF).
 Compute integral first derivatives, UseDBF=F ICtDFT=           0.
 Calling FoFJK, ICntrl=      2127 FMM=F ISym2X=1 I1Cent= 0 IOpClX= 1 NMat=1 NMatS=1 NMatT=0.
 FoFJK:  IHMeth= 1 ICntrl=    2127 DoSepK=F KAlg= 0 I1Cent=           0 FoldK=F
 IRaf=         0 NMat=       1 IRICut=       1 DoRegI=T DoRafI=F ISym2E= 1 IDoP0=0 IntGTp=1.
 FoFCou: FMM=F IPFlag=           0 FMFlag=      100000 FMFlg1=         800
         NFxFlg=           0 DoJE=F BraDBF=F KetDBF=F FulRan=T
         wScrn=  0.000000 ICntrl=      2127 IOpCl=  1 I1Cent=           0 NGrid=           0
         NMat0=    1 NMatS0=      1 NMatT0=    0 NMatD0=    1 NMtDS0=    0 NMtDT0=    0
 Petite list used in FoFCou.
 Leave Link  703 at Mon Apr 21 20:08:41 2025, MaxMem=   536870912 cpu:               2.3 elap:               0.4
 (Enter /home/szhao/Apps/g16/l716.exe)
 Dipole        = 0.00000000D+00 2.38703540D-34 0.00000000D+00
 ***** Axes restored to original set *****
 -------------------------------------------------------------------
 Center     Atomic                   Forces (Hartrees/Bohr)
 Number     Number              X              Y              Z
 -------------------------------------------------------------------
      1       16           0.048817912   -0.000000000    0.000000000
      2       16          -0.048817912    0.000000000   -0.000000000
 -------------------------------------------------------------------
 Cartesian Forces:  Max     0.048817912 RMS     0.028185034
 Z-matrix is all fixed cartesians, so copy forces.
 Force constants in Cartesian coordinates: 
                1             2             3             4             5 
      1  0.345445D+00
      2  0.000000D+00  0.100000D+01
      3  0.000000D+00  0.000000D+00  0.100000D+01
      4 -0.345445D+00  0.000000D+00  0.000000D+00  0.345445D+00
      5  0.000000D+00  0.000000D+00  0.000000D+00  0.000000D+00  0.100000D+01
      6  0.000000D+00  0.000000D+00  0.000000D+00  0.000000D+00  0.000000D+00
                6 
      6  0.100000D+01
 Leave Link  716 at Mon Apr 21 20:08:41 2025, MaxMem=   536870912 cpu:               1.2 elap:               0.5
 (Enter /home/szhao/Apps/g16/l103.exe)

 GradGradGradGradGradGradGradGradGradGradGradGradGradGradGradGradGradGrad
 Berny optimization.
 Search for a local minimum.
 Step number   1 out of a maximum of    2
 All quantities printed in internal units (Hartrees-Bohrs-Radians)
 Second derivative matrix not updated -- first step.
 The second derivative matrix:
                          X1        Y1        Z1        X2        Y2
           X1           0.34545
           Y1           0.00000   1.00000
           Z1           0.00000   0.00000   1.00000
           X2          -0.34545   0.00000  -0.00000   0.34545
           Y2           0.00000   0.00000   0.00000   0.00000   1.00000
           Z2          -0.00000   0.00000  -0.00000   0.00000   0.00000
                          Z2
           Z2           1.00000
 ITU=  0
     Eigenvalues ---    0.69089
 Angle between quadratic step and forces=   0.00 degrees.
 ClnCor:  largest displacement from symmetrization is 4.33D-18 for atom     2.
 Linear search not attempted -- first point.
 ClnCor:  largest displacement from symmetrization is 0.00D+00 for atom     0.
 B after Tr=     0.000000    0.000000    0.000000
         Rot=    1.000000    0.000000    0.000000    0.000000 Ang=   0.00 deg.
 Variable       Old X    -DE/DX   Delta X   Delta X   Delta X     New X
                                 (Linear)    (Quad)   (Total)
    X1       -1.89010   0.04882   0.00000   0.07066   0.07066  -1.81944
    Y1        0.00000  -0.00000   0.00000   0.00000   0.00000   0.00000
    Z1        0.00000   0.00000   0.00000   0.00000   0.00000   0.00000
    X2        1.89010  -0.04882   0.00000  -0.07066  -0.07066   1.81944
    Y2        0.00000   0.00000   0.00000   0.00000   0.00000   0.00000
    Z2        0.00000  -0.00000   0.00000  -0.00000  -0.00000   0.00000
         Item               Value     Threshold  Converged?
 Maximum Force            0.048818     0.000450     NO 
 RMS     Force            0.028185     0.000300     NO 
 Maximum Displacement     0.070659     0.001800     NO 
 RMS     Displacement     0.040795     0.001200     NO 
 Predicted change in Energy=-3.449443D-03
 GradGradGradGradGradGradGradGradGradGradGradGradGradGradGradGradGradGrad

 Leave Link  103 at Mon Apr 21 20:08:42 2025, MaxMem=   536870912 cpu:               0.7 elap:               0.2
 (Enter /home/szhao/Apps/g16/l9999.exe)
 1\1\GINC-NODE05\Force\UM062X\6-311+G(d,p)\S2\SZHAO\21-Apr-2025\0\\#p U
 M062X/6-311+G** force int=superfine pop=saveNBO\\Title Card Required\\
 0,1\S,-1.0002,0.,0.\S,1.0002,0.,0.\\Version=ES64L-G16RevA.03\HF=-796.3
 026062\S2=0.\S2-1=0.\S2A=0.\RMSD=1.309e-09\RMSF=2.819e-02\Dipole=0.,0.
 ,0.\Quadrupole=0.7815614,-2.3042419,1.5226805,0.,0.,0.\PG=D*H [C*(S1.S
 1)]\\@


 IF THERE IS ONE WAY BETTER THAN ANOTHER IT IS THE WAY OF NATURE.

                          -- ARISTOTLE
 Job cpu time:       0 days  0 hours  0 minutes 43.1 seconds.
 Elapsed time:       0 days  0 hours  0 minutes  9.3 seconds.
 File lengths (MBytes):  RWF=     17 Int=      0 D2E=      0 Chk=      2 Scr=      2
 Normal termination of Gaussian 16 at Mon Apr 21 20:08:43 2025.
