 running on   28 total cores
 distrk:  each k-point on   28 cores,    1 groups
 distr:  one band on   14 cores,    2 groups
 vasp.6.3.1 04May22 (build Aug 04 2022 13:02:54) complex                        
  
 POSCAR found type information on POSCAR C 
 POSCAR found :  1 types and       2 ions
 scaLAPACK will be used
 -----------------------------------------------------------------------------
|                                                                             |
|           W    W    AA    RRRRR   N    N  II  N    N   GGGG   !!!           |
|           W    W   A  A   R    R  NN   N  II  NN   N  G    G  !!!           |
|           W    W  A    A  R    R  N N  N  II  N N  N  G       !!!           |
|           W WW W  AAAAAA  RRRRR   N  N N  II  N  N N  G  GGG   !            |
|           WW  WW  A    A  R   R   N   NN  II  N   NN  G    G                |
|           W    W  A    A  R    R  N    N  II  N    N   GGGG   !!!           |
|                                                                             |
|     For optimal performance we recommend to set                             |
|       NCORE = 2 up to number-of-cores-per-socket                            |
|     NCORE specifies how many cores store one orbital (NPAR=cpu/NCORE).      |
|     This setting can greatly improve the performance of VASP for DFT.       |
|     The default, NCORE=1 might be grossly inefficient on modern             |
|     multi-core architectures or massively parallel machines. Do your        |
|     own testing! More info at https://www.vasp.at/wiki/index.php/NCORE      |
|     Unfortunately you need to use the default for GW and RPA                |
|     calculations (for HF NCORE is supported but not extensively tested      |
|     yet).                                                                   |
|                                                                             |
 -----------------------------------------------------------------------------

 LDA part: xc-table for Pade appr. of Perdew
 POSCAR, INCAR and KPOINTS ok, starting setup
 FFT: planning ... GRIDC
 FFT: planning ... GRID_SOFT
 FFT: planning ... GRID
 WAVECAR not read
 WARNING: random wavefunctions but no delay for mixing, default for NELMDL
 entering main loop
       N       E                     dE             d eps       ncg     rms          rms(c)
DAV:   1     0.454272351364E+02    0.45427E+02   -0.29130E+03  1808   0.697E+02
DAV:   2    -0.100032944972E+02   -0.55431E+02   -0.50470E+02  2992   0.109E+02
DAV:   3    -0.138242082489E+02   -0.38209E+01   -0.38016E+01  2464   0.444E+01
DAV:   4    -0.138730984458E+02   -0.48890E-01   -0.48887E-01  3064   0.534E+00
DAV:   5    -0.138732797942E+02   -0.18135E-03   -0.18135E-03  2384   0.257E-01    0.254E+00
DAV:   6    -0.138529981186E+02    0.20282E-01   -0.23290E-02  2480   0.109E+00    0.155E+00
DAV:   7    -0.138430790605E+02    0.99191E-02   -0.47187E-02  2696   0.160E+00    0.136E-01
DAV:   8    -0.138431230803E+02   -0.44020E-04   -0.87235E-04  2800   0.234E-01    0.431E-02
DAV:   9    -0.138430565636E+02    0.66517E-04   -0.11473E-04  2720   0.975E-02    0.193E-02
DAV:  10    -0.138430928505E+02   -0.36287E-04   -0.79295E-05  2488   0.494E-02    0.123E-02
DAV:  11    -0.138431570093E+02   -0.64159E-04   -0.18878E-05  1976   0.199E-02    0.105E-02
DAV:  12    -0.138432116629E+02   -0.54654E-04   -0.29441E-05  1904   0.265E-02    0.324E-03
DAV:  13    -0.138432202137E+02   -0.85508E-05   -0.70756E-06  2200   0.131E-02    0.230E-03
DAV:  14    -0.138433069998E+02   -0.86786E-04   -0.72042E-06  2776   0.107E-02    0.135E-03
DAV:  15    -0.138433341751E+02   -0.27175E-04   -0.19995E-06  2488   0.533E-03    0.118E-03
DAV:  16    -0.138433502677E+02   -0.16093E-04   -0.13466E-06  2136   0.509E-03    0.206E-04
DAV:  17    -0.138433512096E+02   -0.94192E-06   -0.29290E-08  2688   0.839E-04    0.158E-04
DAV:  18    -0.138433525670E+02   -0.13574E-05   -0.77048E-08  2008   0.897E-04    0.298E-05
DAV:  19    -0.138433526339E+02   -0.66893E-07   -0.23541E-09  2088   0.172E-04    0.214E-05
DAV:  20    -0.138433526597E+02   -0.25834E-07   -0.39720E-10  1968   0.861E-05    0.390E-06
DAV:  21    -0.138433526618E+02   -0.20818E-08   -0.23030E-11  2400   0.215E-05
   1 F= -.13965316E+02 E0= -.13965065E+02  d E =-.501501E-03
