Title Card Required                                                     
FOpt      UM062X                                                      6-311+G(d,p)        
Number of atoms                            I                6
Info1-9                                    I   N=           9
          15          15           0           0           0         110
           2          18        -502
Full Title                                 C   N=           2
Title Card Required     
Route                                      C   N=           5
#p opt UM062X/6-311+G** nosymm int=superfine SCF=NoVarAcc   
Charge                                     I                0
Multiplicity                               I                1
Number of electrons                        I               16
Number of alpha electrons                  I                8
Number of beta electrons                   I                8
Number of basis functions                  I               68
Number of independent functions            I               68
Number of point charges in /Mol/           I                0
Number of translation vectors              I                0
Atomic numbers                             I   N=           6
           6           6           1           1           1           1
Nuclear charges                            R   N=           6
  6.00000000E+00  6.00000000E+00  1.00000000E+00  1.00000000E+00  1.00000000E+00
  1.00000000E+00
Current cartesian coordinates              R   N=          18
 -4.79158011E+00  0.00000000E+00  0.00000000E+00  4.79158011E+00  0.00000000E+00
  0.00000000E+00 -6.11893323E+00 -1.62492632E+00 -4.09436295E-10 -6.11887963E+00
  1.62497223E+00  3.14031733E-10  6.11893323E+00  1.62492632E+00 -1.50470955E-10
  6.11887963E+00 -1.62497223E+00  5.73003761E-10
Number of symbols in /Mol/                 I                0
Force Field                                I                0
Atom Types                                 C   N=           6
                                                            
            
Int Atom Types                             I   N=           6
           0           0           0           0           0           0
MM charges                                 R   N=           6
  0.00000000E+00  0.00000000E+00  0.00000000E+00  0.00000000E+00  0.00000000E+00
  0.00000000E+00
Integer atomic weights                     I   N=           6
          12          12           1           1           1           1
Real atomic weights                        R   N=           6
  1.20000000E+01  1.20000000E+01  1.00782504E+00  1.00782504E+00  1.00782504E+00
  1.00782504E+00
Atom fragment info                         I   N=           6
           0           0           0           0           0           0
Atom residue num                           I   N=           6
           0           0           0           0           0           0
Nuclear spins                              I   N=           6
           0           0           1           1           1           1
Nuclear ZEff                               R   N=           6
 -3.60000000E+00 -3.60000000E+00 -1.00000000E+00 -1.00000000E+00 -1.00000000E+00
 -1.00000000E+00
Nuclear ZNuc                               R   N=           6
  6.00000000E+00  6.00000000E+00  1.00000000E+00  1.00000000E+00  1.00000000E+00
  1.00000000E+00
Nuclear QMom                               R   N=           6
  0.00000000E+00  0.00000000E+00  0.00000000E+00  0.00000000E+00  0.00000000E+00
  0.00000000E+00
Nuclear GFac                               R   N=           6
  0.00000000E+00  0.00000000E+00  2.79284600E+00  2.79284600E+00  2.79284600E+00
  2.79284600E+00
MicOpt                                     I   N=           6
          -2          -2          -1          -1          -1          -1
Number of residues                         I                0
Number of secondary structures             I                0
Redundant internal dimensions              I   N=           4
          20          10           6           4
Redundant internal coordinate indices      I   N=          80
           1          -1           0           0           1          -2
           0           0           1          -3           0           0
           2          -1           0           0           2          -2
           0           0           2          -3           0           0
           1           3           0           0           1           4
           0           0           2           5           0           0
           2           6           0           0           2           1
           3           0           2           1           4           0
           3           1           4           0           1           2
           5           0           1           2           6           0
           5           2           6           0           3           1
           2           5           3           1           2           6
           4           1           2           5           4           1
           2           6
Redundant internal coordinates             R   N=          20
 -4.79158011E+00  0.00000000E+00  0.00000000E+00  4.79158011E+00  0.00000000E+00
  0.00000000E+00  2.09815439E+00  2.09815604E+00  2.09815439E+00  2.09815604E+00
  2.25573937E+00  2.25570575E+00  1.77174018E+00  2.25573937E+00  2.25570575E+00
  1.77174018E+00  3.14159265E+00 -0.00000000E+00 -0.00000000E+00  3.14159265E+00
ZRed-IntVec                                I   N=          20
          -1          -1          -1          -1          -1          -1
           0           0           0           0           0           0
           0           0           0           0           0           0
           0           0
ZRed-FPVec                                 R   N=          20
  0.00000000E+00  0.00000000E+00  0.00000000E+00  0.00000000E+00  0.00000000E+00
  0.00000000E+00  0.00000000E+00  0.00000000E+00  0.00000000E+00  0.00000000E+00
  0.00000000E+00  0.00000000E+00  0.00000000E+00  0.00000000E+00  0.00000000E+00
  0.00000000E+00  0.00000000E+00  0.00000000E+00  0.00000000E+00  0.00000000E+00
ZRed-Constraint1                           R   N=          20
 -4.79158011E+00  0.00000000E+00  0.00000000E+00  4.79158011E+00  0.00000000E+00
  0.00000000E+00  2.03694512E+00  2.03669844E+00  2.03694512E+00  2.03669844E+00
  2.00316847E+00  2.00313852E+00  2.27687832E+00  2.00316847E+00  2.00313852E+00
  2.27687832E+00  3.14159265E+00  0.00000000E+00  0.00000000E+00  3.14159265E+00
ZRed-Constraint2                           R   N=          20
 -4.79158011E+00  0.00000000E+00  0.00000000E+00  4.79158011E+00  0.00000000E+00
  0.00000000E+00  0.00000000E+00  0.00000000E+00  0.00000000E+00  0.00000000E+00
  0.00000000E+00  0.00000000E+00  0.00000000E+00  0.00000000E+00  0.00000000E+00
  0.00000000E+00  0.00000000E+00  0.00000000E+00  0.00000000E+00  0.00000000E+00
Number of contracted shells                I               28
Number of primitive shells                 I               50
Pure/Cartesian d shells                    I                0
Pure/Cartesian f shells                    I                0
Highest angular momentum                   I                2
Largest degree of contraction              I                6
Shell types                                I   N=          28
           0          -1          -1          -1          -1          -2
           0          -1          -1          -1          -1          -2
           0           0           0           1           0           0
           0           1           0           0           0           1
           0           0           0           1
Number of primitives per shell             I   N=          28
           6           3           1           1           1           1
           6           3           1           1           1           1
           3           1           1           1           3           1
           1           1           3           1           1           1
           3           1           1           1
Shell to atom map                          I   N=          28
           1           1           1           1           1           1
           2           2           2           2           2           2
           3           3           3           3           4           4
           4           4           5           5           5           5
           6           6           6           6
Primitive exponents                        R   N=          50
  4.56324000E+03  6.82024000E+02  1.54973000E+02  4.44553000E+01  1.30290000E+01
  1.82773000E+00  2.09642000E+01  4.80331000E+00  1.45933000E+00  4.83456000E-01
  1.45585000E-01  4.38000000E-02  6.26000000E-01  4.56324000E+03  6.82024000E+02
  1.54973000E+02  4.44553000E+01  1.30290000E+01  1.82773000E+00  2.09642000E+01
  4.80331000E+00  1.45933000E+00  4.83456000E-01  1.45585000E-01  4.38000000E-02
  6.26000000E-01  3.38650000E+01  5.09479000E+00  1.15879000E+00  3.25840000E-01
  1.02741000E-01  7.50000000E-01  3.38650000E+01  5.09479000E+00  1.15879000E+00
  3.25840000E-01  1.02741000E-01  7.50000000E-01  3.38650000E+01  5.09479000E+00
  1.15879000E+00  3.25840000E-01  1.02741000E-01  7.50000000E-01  3.38650000E+01
  5.09479000E+00  1.15879000E+00  3.25840000E-01  1.02741000E-01  7.50000000E-01
Contraction coefficients                   R   N=          50
  1.96665025E-03  1.52306019E-02  7.61269097E-02  2.60801033E-01  6.16462078E-01
  2.21006028E-01  1.14660081E-01  9.19999648E-01 -3.03068213E-03  1.00000000E+00
  1.00000000E+00  1.00000000E+00  1.00000000E+00  1.96665025E-03  1.52306019E-02
  7.61269097E-02  2.60801033E-01  6.16462078E-01  2.21006028E-01  1.14660081E-01
  9.19999648E-01 -3.03068213E-03  1.00000000E+00  1.00000000E+00  1.00000000E+00
  1.00000000E+00  2.54938145E-02  1.90373109E-01  8.52161486E-01  1.00000000E+00
  1.00000000E+00  1.00000000E+00  2.54938145E-02  1.90373109E-01  8.52161486E-01
  1.00000000E+00  1.00000000E+00  1.00000000E+00  2.54938145E-02  1.90373109E-01
  8.52161486E-01  1.00000000E+00  1.00000000E+00  1.00000000E+00  2.54938145E-02
  1.90373109E-01  8.52161486E-01  1.00000000E+00  1.00000000E+00  1.00000000E+00
P(S=P) Contraction coefficients            R   N=          50
  0.00000000E+00  0.00000000E+00  0.00000000E+00  0.00000000E+00  0.00000000E+00
  0.00000000E+00  4.02486927E-02  2.37593957E-01  8.15853851E-01  1.00000000E+00
  1.00000000E+00  1.00000000E+00  0.00000000E+00  0.00000000E+00  0.00000000E+00
  0.00000000E+00  0.00000000E+00  0.00000000E+00  0.00000000E+00  4.02486927E-02
  2.37593957E-01  8.15853851E-01  1.00000000E+00  1.00000000E+00  1.00000000E+00
  0.00000000E+00  0.00000000E+00  0.00000000E+00  0.00000000E+00  0.00000000E+00
  0.00000000E+00  0.00000000E+00  0.00000000E+00  0.00000000E+00  0.00000000E+00
  0.00000000E+00  0.00000000E+00  0.00000000E+00  0.00000000E+00  0.00000000E+00
  0.00000000E+00  0.00000000E+00  0.00000000E+00  0.00000000E+00  0.00000000E+00
  0.00000000E+00  0.00000000E+00  0.00000000E+00  0.00000000E+00  0.00000000E+00
Coordinates of each shell                  R   N=          84
 -4.79158011E+00  0.00000000E+00  0.00000000E+00 -4.79158011E+00  0.00000000E+00
  0.00000000E+00 -4.79158011E+00  0.00000000E+00  0.00000000E+00 -4.79158011E+00
  0.00000000E+00  0.00000000E+00 -4.79158011E+00  0.00000000E+00  0.00000000E+00
 -4.79158011E+00  0.00000000E+00  0.00000000E+00  4.79158011E+00  0.00000000E+00
  0.00000000E+00  4.79158011E+00  0.00000000E+00  0.00000000E+00  4.79158011E+00
  0.00000000E+00  0.00000000E+00  4.79158011E+00  0.00000000E+00  0.00000000E+00
  4.79158011E+00  0.00000000E+00  0.00000000E+00  4.79158011E+00  0.00000000E+00
  0.00000000E+00 -6.11893323E+00 -1.62492632E+00 -4.09436295E-10 -6.11893323E+00
 -1.62492632E+00 -4.09436295E-10 -6.11893323E+00 -1.62492632E+00 -4.09436295E-10
 -6.11893323E+00 -1.62492632E+00 -4.09436295E-10 -6.11887963E+00  1.62497223E+00
  3.14031733E-10 -6.11887963E+00  1.62497223E+00  3.14031733E-10 -6.11887963E+00
  1.62497223E+00  3.14031733E-10 -6.11887963E+00  1.62497223E+00  3.14031733E-10
  6.11893323E+00  1.62492632E+00 -1.50470955E-10  6.11893323E+00  1.62492632E+00
 -1.50470955E-10  6.11893323E+00  1.62492632E+00 -1.50470955E-10  6.11893323E+00
  1.62492632E+00 -1.50470955E-10  6.11887963E+00 -1.62497223E+00  5.73003761E-10
  6.11887963E+00 -1.62497223E+00  5.73003761E-10  6.11887963E+00 -1.62497223E+00
  5.73003761E-10  6.11887963E+00 -1.62497223E+00  5.73003761E-10
Num ILSW                                   I              100
ILSW                                       I   N=         100
           1           0           0           1           2           0
           0           0           0           0        4336          -1
           7           0           0           0           2           0
           0           0           0           0           1           0
           1           1           0           0           0           0
           0           0      100000           0          -1           0
           0           0           0           0           0           0
           0           0           0           1           0           0
           0 -2000000000           1           0           0           0
           0           0           4          52           0           0
           0           0          55           0           0           0
           0           0           0           6           0           1
           0           0           0           0           0           0
           0           0           0           0           0           0
           0           0           0           0           0           0
           0           0           0           0           0           0
           0           0           0           0
Num RLSW                                   I               52
RLSW                                       R   N=          52
  1.00000000E+00  1.00000000E+00  1.00000000E+00  1.00000000E+00  5.40000000E-01
  0.00000000E+00  0.00000000E+00  1.00000000E+00  0.00000000E+00  0.00000000E+00
  0.00000000E+00  0.00000000E+00  1.00000000E+00  0.00000000E+00  0.00000000E+00
  0.00000000E+00  0.00000000E+00  1.00000000E+00  0.00000000E+00  0.00000000E+00
  0.00000000E+00  0.00000000E+00  1.00000000E+00  0.00000000E+00  0.00000000E+00
  0.00000000E+00  0.00000000E+00  1.00000000E+00  0.00000000E+00  0.00000000E+00
  0.00000000E+00  0.00000000E+00  1.00000000E+00  0.00000000E+00  0.00000000E+00
  0.00000000E+00  0.00000000E+00  0.00000000E+00  1.00000000E+00  1.00000000E+00
  0.00000000E+00  1.00000000E+00  0.00000000E+00  0.00000000E+00  0.00000000E+00
  0.00000000E+00  0.00000000E+00  0.00000000E+00  0.00000000E+00  0.00000000E+00
  0.00000000E+00  0.00000000E+00
MxBond                                     I                3
NBond                                      I   N=           6
           3           3           1           1           1           1
IBond                                      I   N=          18
           2           3           4           1           5           6
           1           0           0           1           0           0
           2           0           0           2           0           0
RBond                                      R   N=          18
  1.00000000E-01  1.00000000E+00  1.00000000E+00  1.00000000E-01  1.00000000E+00
  1.00000000E+00  1.00000000E+00  0.00000000E+00  0.00000000E+00  1.00000000E+00
  0.00000000E+00  0.00000000E+00  1.00000000E+00  0.00000000E+00  0.00000000E+00
  1.00000000E+00  0.00000000E+00  0.00000000E+00
Virial Ratio                               R      2.003456950500857E+00
SCF Energy                                 R     -7.823563811437711E+01
Total Energy                               R     -7.823563811437711E+01
S**2                                       R     -1.065814103640150E-14
S**2 after annihilation                    R      7.638334409421043E-14
RMS Force                                  R      1.137769712031474E-05
RMS Density                                R      1.292022702360821E-09
Job Status                                 I                1
Nuclear derivative order                   I                1
External E-field                           R   N=          35
  0.00000000E+00  0.00000000E+00  0.00000000E+00  0.00000000E+00  0.00000000E+00
  0.00000000E+00  0.00000000E+00  0.00000000E+00  0.00000000E+00  0.00000000E+00
  0.00000000E+00  0.00000000E+00  0.00000000E+00  0.00000000E+00  0.00000000E+00
  0.00000000E+00  0.00000000E+00  0.00000000E+00  0.00000000E+00  0.00000000E+00
  0.00000000E+00  0.00000000E+00  0.00000000E+00  0.00000000E+00  0.00000000E+00
  0.00000000E+00  0.00000000E+00  0.00000000E+00  0.00000000E+00  0.00000000E+00
  0.00000000E+00  0.00000000E+00  0.00000000E+00  0.00000000E+00  0.00000000E+00
IOpCl                                      I                1
IROHF                                      I                0
Alpha Orbital Energies                     R   N=          68
 -1.05998624E+01 -1.05998621E+01 -7.49317355E-01 -7.49288435E-01 -4.67259442E-01
 -4.67210823E-01 -3.06872751E-01 -3.03295655E-01 -7.51315222E-02 -7.38261760E-02
  2.53675185E-02  2.76783548E-02  6.29444941E-02  8.34562959E-02  8.38476419E-02
  1.01318917E-01  1.04244518E-01  1.55501623E-01  1.74632724E-01  1.98584658E-01
  1.99262415E-01  2.02870703E-01  4.43236452E-01  4.65945555E-01  4.93363656E-01
  4.93755599E-01  5.92223218E-01  6.01321748E-01  6.27744664E-01  6.38037543E-01
  6.52942878E-01  6.57191515E-01  7.47609561E-01  7.59597668E-01  1.10047580E+00
  1.10120013E+00  1.11219427E+00  1.11219429E+00  1.19892874E+00  1.20030785E+00
  1.56034942E+00  1.56245388E+00  1.57665563E+00  1.57825254E+00  1.62999037E+00
  1.64644136E+00  1.87124355E+00  1.87124362E+00  1.88691934E+00  1.88736436E+00
  2.14010567E+00  2.14332287E+00  2.36943555E+00  2.37174237E+00  2.45311479E+00
  2.48678705E+00  2.50627472E+00  2.51023535E+00  2.56047027E+00  2.56365800E+00
  2.75593929E+00  2.76360753E+00  3.08993818E+00  3.10009391E+00  3.59276606E+00
  3.59290288E+00  2.37768963E+01  2.37776713E+01
Beta Orbital Energies                      R   N=          68
 -1.05998624E+01 -1.05998621E+01 -7.49317355E-01 -7.49288435E-01 -4.67259442E-01
 -4.67210823E-01 -3.06872751E-01 -3.03295655E-01 -7.51315222E-02 -7.38261760E-02
  2.53675185E-02  2.76783548E-02  6.29444941E-02  8.34562959E-02  8.38476419E-02
  1.01318917E-01  1.04244518E-01  1.55501623E-01  1.74632724E-01  1.98584658E-01
  1.99262415E-01  2.02870703E-01  4.43236452E-01  4.65945555E-01  4.93363656E-01
  4.93755599E-01  5.92223218E-01  6.01321748E-01  6.27744664E-01  6.38037543E-01
  6.52942878E-01  6.57191515E-01  7.47609561E-01  7.59597668E-01  1.10047580E+00
  1.10120013E+00  1.11219427E+00  1.11219429E+00  1.19892874E+00  1.20030785E+00
  1.56034942E+00  1.56245388E+00  1.57665563E+00  1.57825254E+00  1.62999037E+00
  1.64644136E+00  1.87124355E+00  1.87124362E+00  1.88691934E+00  1.88736436E+00
  2.14010567E+00  2.14332287E+00  2.36943555E+00  2.37174237E+00  2.45311479E+00
  2.48678705E+00  2.50627472E+00  2.51023535E+00  2.56047027E+00  2.56365800E+00
  2.75593929E+00  2.76360753E+00  3.08993818E+00  3.10009391E+00  3.59276606E+00
  3.59290288E+00  2.37768963E+01  2.37776713E+01
Alpha MO coefficients                      R   N=        4624
  3.98866853E-01  3.28259058E-01 -1.55237034E-03  2.64917412E-08 -5.18263979E-14
  7.77635348E-03 -1.10157025E-03  9.97602409E-09 -4.41282593E-14 -2.98608953E-03
 -1.15351795E-04  5.51890313E-09  5.28671539E-15 -1.31255679E-04  8.86639063E-04
 -5.11047116E-09  8.55011432E-15 -6.81974846E-04  4.46691819E-14  3.34946648E-13
 -2.35804505E-04  1.20177595E-08 -3.98866842E-01 -3.28259049E-01 -1.55237030E-03
  2.64917401E-08 -2.37684743E-13 -7.77635325E-03 -1.10157022E-03  9.97602412E-09
 -1.78829744E-13  2.98608946E-03 -1.15351791E-04  5.51890827E-09 -3.80076513E-15
  1.31255662E-04  8.86639046E-04 -5.11046979E-09  9.22289005E-14  6.81974826E-04
 -1.60858635E-13  3.34729053E-13  2.35804498E-04 -1.20177569E-08  2.41945989E-04
 -1.85773994E-03  1.60630730E-03 -7.76139351E-04 -9.81445247E-04 -2.37305138E-13
  2.41946939E-04 -1.85772372E-03  1.60627972E-03 -7.76101768E-04  9.81465751E-04
  1.87765666E-13 -2.41945982E-04  1.85773989E-03 -1.60630725E-03 -7.76139329E-04
 -9.81445218E-04  9.33520031E-14 -2.41946932E-04  1.85772366E-03 -1.60627967E-03
 -7.76101745E-04  9.81465721E-04 -3.32219453E-13  3.98866928E-01  3.28260960E-01
 -1.54762682E-03  2.59701628E-08 -5.33888420E-14  7.73604385E-03 -1.13706529E-03
  1.20729339E-08 -3.96642814E-14 -2.71063323E-03 -1.17019627E-04 -2.36631754E-10
 -1.07109728E-14 -5.94785736E-04  6.03220706E-04 -1.01131538E-08  3.63535476E-14
 -6.97600776E-04  4.67291806E-14  3.41836706E-13 -2.42754433E-04  1.25417741E-08
  3.98866940E-01  3.28260970E-01  1.54762687E-03 -2.59701644E-08  2.37459523E-13
  7.73604407E-03  1.13706532E-03 -1.20729276E-08  1.84214883E-13 -2.71063332E-03
  1.17019630E-04  2.36624935E-10  9.42777771E-15 -5.94785740E-04 -6.03220731E-04
  1.01131546E-08 -1.01695238E-13 -6.97600795E-04  1.66565746E-13 -3.42703093E-13
 -2.42754440E-04  1.25417746E-08  2.52396148E-04 -1.95313298E-03  1.66945780E-03
 -7.76343412E-04 -1.00763362E-03 -2.43923249E-13  2.52397360E-04 -1.95311786E-03
  1.66945218E-03 -7.76304176E-04  1.00765412E-03  1.94183442E-13  2.52396155E-04
 -1.95313303E-03  1.66945785E-03  7.76343434E-04  1.00763364E-03 -9.62773686E-14
  2.52397367E-04 -1.95311791E-03  1.66945222E-03  7.76304198E-04 -1.00765415E-03
  3.40683439E-13 -7.39854359E-02 -1.19074475E-01 -4.83321946E-02  7.13080496E-07
 -1.67799868E-12  3.25115864E-01 -7.21328670E-02  1.08978557E-06 -2.40561049E-12
  2.21329150E-01 -3.27369311E-02  4.87059655E-07 -7.02472063E-13  5.08075906E-03
 -1.75017255E-03  6.92564465E-08 -2.22398545E-13 -5.15341055E-03  1.19407485E-13
  1.92846233E-12  5.74176820E-05  2.13607188E-08 -7.39854359E-02 -1.19074475E-01
  4.83321946E-02 -7.13080467E-07  7.67671659E-12  3.25115864E-01  7.21328670E-02
 -1.08978554E-06  1.06972539E-11  2.21329150E-01  3.27369311E-02 -4.87059621E-07
  5.18754553E-12  5.08075906E-03  1.75017255E-03 -6.92564243E-08 -5.17452202E-15
 -5.15341055E-03  1.41853224E-12 -1.92824750E-12  5.74176820E-05  2.13607134E-08
  8.07869708E-02  9.80194184E-02  6.09145331E-03  6.70498996E-03  1.17847303E-02
  2.75988714E-12  8.07867773E-02  9.80192649E-02  6.09135110E-03  6.70458113E-03
 -1.17849468E-02 -2.40481579E-12  8.07869708E-02  9.80194184E-02  6.09145331E-03
 -6.70498996E-03 -1.17847303E-02  1.55919715E-12  8.07867773E-02  9.80192649E-02
  6.09135110E-03 -6.70458113E-03  1.17849468E-02 -3.60468089E-12 -7.39804865E-02
 -1.19040926E-01 -4.82761372E-02  7.09369171E-07 -1.68688500E-12  3.24470249E-01
 -7.27823175E-02  1.11444657E-06 -2.36680362E-12  2.24535769E-01 -3.13831189E-02
  4.36074519E-07 -8.60713087E-13  7.19659658E-04 -6.01070028E-03 -1.86888826E-08
 -1.23063890E-15 -5.25812318E-03  1.26749802E-13  1.97676298E-12  1.27873662E-05
  1.78546469E-08  7.39804865E-02  1.19040926E-01 -4.82761372E-02  7.09369142E-07
 -7.67662109E-12 -3.24470249E-01 -7.27823175E-02  1.11444655E-06 -1.07152273E-11
 -2.24535769E-01 -3.13831189E-02  4.36074492E-07 -5.27236558E-12 -7.19659658E-04
 -6.01070028E-03 -1.86889127E-08  1.21998439E-13  5.25812318E-03 -1.44702203E-12
  1.97598387E-12 -1.27873662E-05 -1.78546378E-08  8.08263467E-02  9.76100743E-02
  6.26113371E-03  6.62050007E-03  1.16516557E-02  2.73066176E-12  8.08261619E-02
  9.76098416E-02  6.26137630E-03  6.62009336E-03 -1.16518656E-02 -2.37339130E-12
 -8.08263467E-02 -9.76100743E-02 -6.26113371E-03  6.62050007E-03  1.16516557E-02
 -1.54046503E-12 -8.08261619E-02 -9.76098416E-02 -6.26137630E-03  6.62009336E-03
 -1.16518656E-02  3.56162090E-12 -3.85906115E-08 -6.49426143E-08  2.46089867E-06
  1.45964692E-01  3.24497362E-11  1.92146379E-07  3.65883186E-06  2.17734968E-01
  4.83078788E-11  3.33469073E-07  1.85614269E-06  1.17619821E-01  2.66701586E-11
  4.27092491E-08 -1.39939448E-08 -1.04763457E-03 -1.07145483E-12  4.56452493E-09
 -7.21813793E-12 -1.04330941E-12 -1.08554185E-06 -3.25606279E-02  3.85906113E-08
  6.49426125E-08  2.46089859E-06  1.45964692E-01 -3.24508027E-11 -1.92146379E-07
  3.65883174E-06  2.17734968E-01 -4.83069002E-11 -3.33469040E-07  1.85614264E-06
  1.17619821E-01 -2.66893665E-11 -4.27092328E-08 -1.39939393E-08 -1.04763458E-03
  1.09637103E-12 -4.56452687E-09 -7.25167133E-12  5.07664729E-12  1.08554181E-06
  3.25606279E-02 -1.03774931E-01 -1.60409123E-01 -8.27341972E-02 -8.18695789E-03
 -3.14179053E-03 -1.03452630E-12  1.03774999E-01  1.60409221E-01  8.27341375E-02
  8.18685427E-03 -3.14208746E-03 -4.71336859E-13  1.03774931E-01  1.60409123E-01
  8.27341973E-02 -8.18695790E-03 -3.14179054E-03 -5.24208817E-13 -1.03774999E-01
 -1.60409221E-01 -8.27341376E-02  8.18685428E-03 -3.14208746E-03  2.04150920E-12
 -4.06362474E-08 -6.75930011E-08  2.47993133E-06  1.45967159E-01  3.24713186E-11
  1.91113367E-07  3.66597108E-06  2.17856761E-01  4.82844072E-11  3.74982633E-07
  1.93359853E-06  1.17175727E-01  2.67555563E-11  6.53381584E-08 -7.57091835E-08
 -1.88713496E-03 -1.26047308E-12  6.99963929E-09 -7.21614690E-12 -1.04279415E-12
 -1.08617048E-06 -3.25529245E-02 -4.06362470E-08 -6.75929990E-08 -2.47993125E-06
 -1.45967159E-01  3.24721135E-11  1.91113364E-07 -3.66597095E-06 -2.17856760E-01
  4.82812289E-11  3.74982608E-07 -1.93359848E-06 -1.17175727E-01  2.67805258E-11
  6.53381336E-08  7.57091835E-08  1.88713496E-03 -1.29575194E-12  6.99964078E-09
  7.25038887E-12 -5.07413329E-12 -1.08617045E-06 -3.25529245E-02 -1.03800146E-01
 -1.60416451E-01 -8.36765355E-02 -8.20394079E-03 -3.14327100E-03 -1.04329375E-12
  1.03800198E-01  1.60416568E-01  8.36764227E-02  8.20383275E-03 -3.14356802E-03
 -4.78563139E-13 -1.03800145E-01 -1.60416451E-01 -8.36765355E-02  8.20394078E-03
  3.14327100E-03  5.18272868E-13  1.03800198E-01  1.60416568E-01  8.36764227E-02
 -8.20383274E-03  3.14356802E-03 -2.05251760E-12 -3.91039241E-02 -6.49298584E-02
  1.60979869E-01 -2.71162508E-06  5.50478692E-12  1.88693933E-01  2.31583953E-01
 -3.89929430E-06  8.03658382E-12  2.99817229E-01  2.09607986E-01 -3.69180747E-06
  6.51969966E-12  3.73026172E-02  3.16026181E-02 -9.03596019E-07  2.45936044E-12
  1.76496038E-02 -1.60645272E-12 -2.97496685E-12 -1.68998137E-02  5.54083800E-07
 -3.91039241E-02 -6.49298584E-02 -1.60979869E-01  2.71162499E-06 -2.48876047E-11
  1.88693933E-01 -2.31583953E-01  3.89929416E-06 -3.65807494E-11  2.99817229E-01
 -2.09607986E-01  3.69180736E-06 -3.20169018E-11  3.73026172E-02 -3.16026181E-02
  9.03596012E-07 -6.35829386E-12  1.76496038E-02 -7.20685919E-12  2.97245027E-12
 -1.68998137E-02  5.54083780E-07 -4.87196039E-02 -9.10585459E-02 -6.30825153E-02
  7.25799199E-03 -1.00436884E-02 -1.95106643E-12 -4.87196154E-02 -9.10586858E-02
 -6.30817921E-02  7.25832525E-03  1.00434472E-02  2.46352902E-12 -4.87196039E-02
 -9.10585459E-02 -6.30825153E-02 -7.25799199E-03  1.00436884E-02 -3.26325732E-12
 -4.87196154E-02 -9.10586858E-02 -6.30817921E-02 -7.25832525E-03 -1.00434472E-02
  1.13588823E-12 -3.99433515E-02 -6.64368377E-02  1.62243408E-01 -2.69568490E-06
  5.68098655E-12  1.95177547E-01  2.36501109E-01 -3.97274896E-06  8.00092745E-12
  2.95612605E-01  2.03521803E-01 -3.57872356E-06  7.67709887E-12  5.62385066E-02
  5.44769349E-02 -4.84630553E-07  7.30800194E-13  1.81212338E-02 -1.64136956E-12
 -3.06874367E-12 -1.71885156E-02  5.78769070E-07  3.99433515E-02  6.64368377E-02
  1.62243408E-01 -2.69568481E-06  2.54411094E-11 -1.95177547E-01  2.36501109E-01
 -3.97274882E-06  3.74157388E-11 -2.95612605E-01  2.03521803E-01 -3.57872345E-06
  3.30728077E-11 -5.62385066E-02  5.44769349E-02 -4.84630554E-07  6.45883103E-12
 -1.81212338E-02  7.33905293E-12 -3.06443615E-12  1.71885156E-02 -5.78769049E-07
 -4.89521359E-02 -9.22595648E-02 -6.40490305E-02  7.80310301E-03 -9.89550101E-03
 -1.90846361E-12 -4.89521283E-02 -9.22592036E-02 -6.40496712E-02  7.80345641E-03
  9.89522283E-03  2.41304730E-12  4.89521359E-02  9.22595648E-02  6.40490305E-02
  7.80310301E-03 -9.89550101E-03  3.28577212E-12  4.89521283E-02  9.22592036E-02
  6.40496712E-02  7.80345641E-03  9.89522283E-03 -1.00976107E-12  3.70416546E-13
  6.72373080E-13 -6.18311167E-12 -3.56659636E-11  1.60706765E-01 -4.25221395E-12
 -1.05775102E-11 -5.74487941E-11  2.54084053E-01  1.54939735E-11 -1.72428485E-11
 -6.51044960E-11  2.99515322E-01  1.32982236E-11 -2.16957877E-11 -4.72873932E-11
  1.79830891E-01 -1.92312022E-12 -1.73521446E-02  2.78363133E-07  7.52054296E-13
  4.17785535E-12 -1.94670970E-13 -3.62209013E-13 -2.54846630E-11  3.57146519E-11
  1.60706765E-01  3.10153549E-12 -4.18461779E-11  5.71846244E-11  2.54084053E-01
 -1.76438798E-11 -5.18921188E-11  6.52070756E-11  2.99515322E-01 -2.10525673E-11
 -4.63350342E-11  4.71464406E-11  1.79830891E-01  5.81155197E-12  1.73521446E-02
 -2.78363124E-07 -2.59821102E-12  4.02404256E-12 -2.69168159E-13 -4.52110995E-13
 -2.10939450E-11 -1.23934497E-12 -4.63641853E-12  1.62341841E-02 -8.76220589E-14
 -2.81129717E-12 -1.13694376E-11 -9.20583295E-13 -3.04720418E-12  1.62341722E-02
  3.91544790E-13  2.01793435E-12  1.63914651E-11 -3.27906407E-12  2.77937188E-12
  1.62341841E-02  5.74684568E-13 -8.12308002E-13  2.64226813E-11 -3.35715639E-12
  4.63774298E-12  1.62341722E-02 -1.96724623E-13 -3.29183230E-13 -5.29704968E-12
 -3.59274731E-11  1.62582252E-01 -1.71357167E-13 -8.14262731E-12 -5.84916399E-11
  2.58031207E-01  1.37451510E-11 -2.00020260E-11 -6.66048311E-11  2.99814096E-01
  2.27756725E-11 -3.99741277E-12 -4.38984188E-11  1.91162405E-01 -1.63362435E-12
 -1.78816995E-02  2.81476097E-07  5.31487979E-13  4.42797912E-12  7.96207873E-14
  1.56755266E-13  2.55543906E-11 -3.59790230E-11 -1.62582252E-01 -2.38689434E-12
  4.18141419E-11 -5.82127344E-11 -2.58031207E-01  1.85461219E-11  5.38331176E-11