 Entering Gaussian System, Link 0=g16
 Initial command:
 /home/szhao/Apps/g16/l1.exe "/home/szhao/tmp/Gau-128691.inp" -scrdir="/home/szhao/tmp/"
 Default is to use a total of  16 processors:
                               16 via shared-memory
                                1 via Linda
 Entering Link 1 = /home/szhao/Apps/g16/l1.exe PID=    128776.
  
 Copyright (c) 1988,1990,1992,1993,1995,1998,2003,2009,2016,
            Gaussian, Inc.  All Rights Reserved.
  
 This is part of the Gaussian(R) 16 program.  It is based on
 the Gaussian(R) 09 system (copyright 2009, Gaussian, Inc.),
 the Gaussian(R) 03 system (copyright 2003, Gaussian, Inc.),
 the Gaussian(R) 98 system (copyright 1998, Gaussian, Inc.),
 the Gaussian(R) 94 system (copyright 1995, Gaussian, Inc.),
 the Gaussian 92(TM) system (copyright 1992, Gaussian, Inc.),
 the Gaussian 90(TM) system (copyright 1990, Gaussian, Inc.),
 the Gaussian 88(TM) system (copyright 1988, Gaussian, Inc.),
 the Gaussian 86(TM) system (copyright 1986, Carnegie Mellon
 University), and the Gaussian 82(TM) system (copyright 1983,
 Carnegie Mellon University). Gaussian is a federally registered
 trademark of Gaussian, Inc.
  
 This software contains proprietary and confidential information,
 including trade secrets, belonging to Gaussian, Inc.
  
 This software is provided under written license and may be
 used, copied, transmitted, or stored only in accord with that
 written license.
  
 The following legend is applicable only to US Government
 contracts under FAR:
  
                    RESTRICTED RIGHTS LEGEND
  
 Use, reproduction and disclosure by the US Government is
 subject to restrictions as set forth in subparagraphs (a)
 and (c) of the Commercial Computer Software - Restricted
 Rights clause in FAR 52.227-19.
  
 Gaussian, Inc.
 340 Quinnipiac St., Bldg. 40, Wallingford CT 06492
  
  
 ---------------------------------------------------------------
 Warning -- This program may not be used in any manner that
 competes with the business of Gaussian, Inc. or will provide
 assistance to any competitor of Gaussian, Inc.  The licensee
 of this program is prohibited from giving any competitor of
 Gaussian, Inc. access to this program.  By using this program,
 the user acknowledges that Gaussian, Inc. is engaged in the
 business of creating and licensing software in the field of
 computational chemistry and represents and warrants to the
 licensee that it is not a competitor of Gaussian, Inc. and that
 it will not use this program in any manner prohibited above.
 ---------------------------------------------------------------
  

 Cite this work as:
 Gaussian 16, Revision A.03,
 M. J. Frisch, G. W. Trucks, H. B. Schlegel, G. E. Scuseria, 
 M. A. Robb, J. R. Cheeseman, G. Scalmani, V. Barone, 
 G. A. Petersson, H. Nakatsuji, X. Li, M. Caricato, A. V. Marenich, 
 J. Bloino, B. G. Janesko, R. Gomperts, B. Mennucci, H. P. Hratchian, 
 J. V. Ortiz, A. F. Izmaylov, J. L. Sonnenberg, D. Williams-Young, 
 F. Ding, F. Lipparini, F. Egidi, J. Goings, B. Peng, A. Petrone, 
 T. Henderson, D. Ranasinghe, V. G. Zakrzewski, J. Gao, N. Rega, 
 G. Zheng, W. Liang, M. Hada, M. Ehara, K. Toyota, R. Fukuda, 
 J. Hasegawa, M. Ishida, T. Nakajima, Y. Honda, O. Kitao, H. Nakai, 
 T. Vreven, K. Throssell, J. A. Montgomery, Jr., J. E. Peralta, 
 F. Ogliaro, M. J. Bearpark, J. J. Heyd, E. N. Brothers, K. N. Kudin, 
 V. N. Staroverov, T. A. Keith, R. Kobayashi, J. Normand, 
 K. Raghavachari, A. P. Rendell, J. C. Burant, S. S. Iyengar, 
 J. Tomasi, M. Cossi, J. M. Millam, M. Klene, C. Adamo, R. Cammi, 
 J. W. Ochterski, R. L. Martin, K. Morokuma, O. Farkas, 
 J. B. Foresman, and D. J. Fox, Gaussian, Inc., Wallingford CT, 2016.
 
 ******************************************
 Gaussian 16:  ES64L-G16RevA.03 25-Dec-2016
                21-Apr-2025 
 ******************************************
 %chk=opt.chk
 %mem=4GB
 %nprocshared=8
 Will use up to    8 processors via shared memory.
 --------------------------------------------
 #p opt UM062X/6-311+G** nosymm int=superfine
 --------------------------------------------
 1/18=20,19=15,26=5,38=1/1,3;
 2/9=110,12=2,15=1,17=6,18=5,40=1/2;
 3/5=4,6=6,7=111,11=2,25=1,30=1,71=1,74=-55,75=-7,116=2/1,2,3;
 4//1;
 5/5=2,38=5/2;
 6/7=2,8=2,9=2,10=2,28=1/1;
 7/30=1/1,2,3,16;
 1/18=20,19=15,26=5/3(2);
 2/9=110,15=1/2;
 99//99;
 2/9=110,15=1/2;
 3/5=4,6=6,7=111,11=2,25=1,30=1,71=1,74=-55,75=-7,116=2/1,2,3;
 4/5=5,16=3,69=1/1;
 5/5=2,38=5/2;
 7/30=1/1,2,3,16;
 1/18=20,19=15,26=5/3(-5);
 2/9=110,15=1/2;
 6/7=2,8=2,9=2,10=2,19=2,28=1/1;
 99/9=1/99;
 Leave Link    1 at Mon Apr 21 20:18:59 2025, MaxMem=   536870912 cpu:               1.0 elap:               0.1
 (Enter /home/szhao/Apps/g16/l101.exe)
 -------------------
 Title Card Required
 -------------------
 Symbolic Z-matrix:
 Charge =  0 Multiplicity = 1
 Si                   -1   -2.11982   0.        0. 
 Si                   -1    2.11982   0.        0. 
 H                    0     2.63181  -1.3902    0. 
 H                    0    -2.63171  -0.69502   1.20405 
 H                    0     2.6319    0.69519  -1.20386 
 H                    0     2.63171   0.69505   1.20403 
 H                    0    -2.63181   1.3902   -0.00012 
 H                    0    -2.63191  -0.69522  -1.20384 
 
 Add virtual bond connecting atoms Si2        and Si1        Dist= 8.01D+00.
 ITRead=  2  2  0  0  0  0  0  0
 MicOpt= -2 -2 -1 -1 -1 -1 -1 -1
 NAtoms=      8 NQM=        6 NQMF=       2 NMMI=      0 NMMIF=      0
                NMic=       0 NMicF=      0.
                    Isotopes and Nuclear Properties:
 (Nuclear quadrupole moments (NQMom) in fm**2, nuclear magnetic moments (NMagM)
  in nuclear magnetons)

  Atom         1           2           3           4           5           6           7           8
 IAtWgt=          28          28           1           1           1           1           1           1
 AtmWgt=  27.9769284  27.9769284   1.0078250   1.0078250   1.0078250   1.0078250   1.0078250   1.0078250
 NucSpn=           0           0           1           1           1           1           1           1
 AtZEff=  -0.0000000  -0.0000000  -0.0000000  -0.0000000  -0.0000000  -0.0000000  -0.0000000  -0.0000000
 NQMom=    0.0000000   0.0000000   0.0000000   0.0000000   0.0000000   0.0000000   0.0000000   0.0000000
 NMagM=    0.0000000   0.0000000   2.7928460   2.7928460   2.7928460   2.7928460   2.7928460   2.7928460
 AtZNuc=  14.0000000  14.0000000   1.0000000   1.0000000   1.0000000   1.0000000   1.0000000   1.0000000
 Leave Link  101 at Mon Apr 21 20:19:00 2025, MaxMem=   536870912 cpu:               2.6 elap:               0.4
 (Enter /home/szhao/Apps/g16/l103.exe)

 GradGradGradGradGradGradGradGradGradGradGradGradGradGradGradGradGradGrad
 Berny optimization.
 Initialization pass.
                           ----------------------------
                           !    Initial Parameters    !
                           ! (Angstroms and Degrees)  !
 --------------------------                            --------------------------
 ! Name  Definition              Value          Derivative Info.                !
 --------------------------------------------------------------------------------
 ! X1    R(1,-1)                -2.1198         Frozen                          !
 ! Y1    R(1,-2)                 0.0            Frozen                          !
 ! Z1    R(1,-3)                 0.0            Frozen                          !
 ! X2    R(2,-1)                 2.1198         Frozen                          !
 ! Y2    R(2,-2)                 0.0            Frozen                          !
 ! Z2    R(2,-3)                 0.0            Frozen                          !
 ! R1    R(1,4)                  1.4815         estimate D2E/DX2                !
 ! R2    R(1,7)                  1.4815         estimate D2E/DX2                !
 ! R3    R(1,8)                  1.4815         estimate D2E/DX2                !
 ! R4    R(2,3)                  1.4815         estimate D2E/DX2                !
 ! R5    R(2,5)                  1.4815         estimate D2E/DX2                !
 ! R6    R(2,6)                  1.4815         estimate D2E/DX2                !
 ! A1    A(2,1,4)              110.2137         estimate D2E/DX2                !
 ! A2    A(2,1,7)              110.2181         estimate D2E/DX2                !
 ! A3    A(2,1,8)              110.222          estimate D2E/DX2                !
 ! A4    A(4,1,7)              108.7164         estimate D2E/DX2                !
 ! A5    A(4,1,8)              108.7131         estimate D2E/DX2                !
 ! A6    A(7,1,8)              108.7133         estimate D2E/DX2                !
 ! A7    A(1,2,3)              110.2179         estimate D2E/DX2                !
 ! A8    A(1,2,5)              110.2218         estimate D2E/DX2                !
 ! A9    A(1,2,6)              110.214          estimate D2E/DX2                !
 ! A10   A(3,2,5)              108.7164         estimate D2E/DX2                !
 ! A11   A(3,2,6)              108.7135         estimate D2E/DX2                !
 ! A12   A(5,2,6)              108.7131         estimate D2E/DX2                !
 ! D1    D(4,1,2,3)             60.0049         estimate D2E/DX2                !
 ! D2    D(4,1,2,5)           -179.9901         estimate D2E/DX2                !
 ! D3    D(4,1,2,6)            -59.9916         estimate D2E/DX2                !
 ! D4    D(7,1,2,3)           -179.9951         estimate D2E/DX2                !
 ! D5    D(7,1,2,5)            -59.9901         estimate D2E/DX2                !
 ! D6    D(7,1,2,6)             60.0084         estimate D2E/DX2                !
 ! D7    D(8,1,2,3)            -59.9936         estimate D2E/DX2                !
 ! D8    D(8,1,2,5)             60.0114         estimate D2E/DX2                !
 ! D9    D(8,1,2,6)           -179.9901         estimate D2E/DX2                !
 --------------------------------------------------------------------------------
 Trust Radius=3.00D-01 FncErr=1.00D-07 GrdErr=1.00D-07 EigMax=2.50D+02 EigMin=1.00D-04
 Number of steps in this run=     43 maximum allowed number of steps=    100.
 GradGradGradGradGradGradGradGradGradGradGradGradGradGradGradGradGradGrad

 Leave Link  103 at Mon Apr 21 20:19:00 2025, MaxMem=   536870912 cpu:               0.2 elap:               0.1
 (Enter /home/szhao/Apps/g16/l202.exe)
                          Input orientation:                          
 ---------------------------------------------------------------------
 Center     Atomic      Atomic             Coordinates (Angstroms)
 Number     Number       Type             X           Y           Z
 ---------------------------------------------------------------------
      1         14           0       -2.119819    0.000000    0.000000
      2         14           0        2.119819    0.000000    0.000000
      3          1           0        2.631806   -1.390201    0.000000
      4          1           0       -2.631708   -0.695019    1.204047
      5          1           0        2.631903    0.695189   -1.203860
      6          1           0        2.631715    0.695048    1.204029
      7          1           0       -2.631812    1.390199   -0.000119
      8          1           0       -2.631908   -0.695219   -1.203842
 ---------------------------------------------------------------------
                    Distance matrix (angstroms):
                    1          2          3          4          5
     1  Si   0.000000
     2  Si   4.239638   0.000000
     3  H    4.950818   1.481482   0.000000
     4  H    1.481489   4.950736   5.444041   0.000000
     5  H    4.950902   1.481485   2.407931   5.952839   0.000000
     6  H    4.950742   1.481490   2.407893   5.443887   2.407889
     7  H    1.481483   4.950823   5.952839   2.407935   5.444145
     8  H    1.481486   4.950906   5.444163   2.407889   5.444349
                    6          7          8
     6  H    0.000000
     7  H    5.444072   0.000000
     8  H    5.952848   2.407887   0.000000
 Symmetry turned off by external request.
 This structure is nearly, but not quite of a higher symmetry.
 Consider Symm=Loose if the higher symmetry is desired.
 Stoichiometry    H6Si2
 Framework group  C1[X(H6Si2)]
 Deg. of freedom    18
 Full point group                 C1      NOp   1
 Rotational constants (GHZ):          43.2437871           1.6893099           1.6893083
 Leave Link  202 at Mon Apr 21 20:19:01 2025, MaxMem=   536870912 cpu:               0.1 elap:               0.1
 (Enter /home/szhao/Apps/g16/l301.exe)
 Standard basis: 6-311+G(d,p) (5D, 7F)
 Ernie: Thresh=  0.10000D-02 Tol=  0.10000D-05 Strict=F.
    96 basis functions,   148 primitive gaussians,    98 cartesian basis functions
    17 alpha electrons       17 beta electrons
       nuclear repulsion energy        65.6152966534 Hartrees.
 IExCor= 4336 DFT=T Ex+Corr=M062X ExCW=0 ScaHFX=  0.540000
 ScaDFX=  1.000000  1.000000  1.000000  1.000000 ScalE2=  1.000000  1.000000
 IRadAn=      7 IRanWt=     -1 IRanGd=            0 ICorTp=0 IEmpDi=  4
 NAtoms=    8 NActive=    8 NUniq=    8 SFac= 1.00D+00 NAtFMM=   60 NAOKFM=F Big=F
 Integral buffers will be    131072 words long.
 Raffenetti 2 integral format.
 Two-electron integral symmetry is turned off.
 Leave Link  301 at Mon Apr 21 20:19:01 2025, MaxMem=   536870912 cpu:               1.0 elap:               0.3
 (Enter /home/szhao/Apps/g16/l302.exe)
 NPDir=0 NMtPBC=     1 NCelOv=     1 NCel=       1 NClECP=     1 NCelD=      1
         NCelK=      1 NCelE2=     1 NClLst=     1 CellRange=     0.0.
 One-electron integrals computed using PRISM.
 NBasis=    96 RedAO= T EigKep=  7.16D-03  NBF=    96
 NBsUse=    96 1.00D-06 EigRej= -1.00D+00 NBFU=    96
 Precomputing XC quadrature grid using
 IXCGrd= 4 IRadAn=           7 IRanWt=          -1 IRanGd=           0 AccXCQ= 0.00D+00.
 Generated NRdTot=       0 NPtTot=           0 NUsed=           0 NTot=          32
 NSgBfM=    90    90    90    90    90 MxSgAt=     8 MxSgA2=     8.
 Leave Link  302 at Mon Apr 21 20:19:02 2025, MaxMem=   536870912 cpu:               2.1 elap:               0.4
 (Enter /home/szhao/Apps/g16/l303.exe)
 DipDrv:  MaxL=1.
 Leave Link  303 at Mon Apr 21 20:19:02 2025, MaxMem=   536870912 cpu:               0.4 elap:               0.1
 (Enter /home/szhao/Apps/g16/l401.exe)
 ExpMin= 3.31D-02 ExpMax= 6.94D+04 ExpMxC= 2.33D+03 IAcc=3 IRadAn=         7 AccDes= 0.00D+00
 Harris functional with IExCor= 1009 and IRadAn=       7 diagonalized for initial guess.
 HarFok:  IExCor= 1009 AccDes= 0.00D+00 IRadAn=         7 IDoV= 1 UseB2=F ITyADJ=14
 ICtDFT=  3500011 ScaDFX=  1.000000  1.000000  1.000000  1.000000
 FoFCou: FMM=F IPFlag=           0 FMFlag=      100000 FMFlg1=           0
         NFxFlg=           0 DoJE=T BraDBF=F KetDBF=T FulRan=T
         wScrn=  0.000000 ICntrl=       500 IOpCl=  0 I1Cent=   200000004 NGrid=           0
         NMat0=    1 NMatS0=      1 NMatT0=    0 NMatD0=    1 NMtDS0=    0 NMtDT0=    0
 Symmetry not used in FoFCou.
 Harris En= -582.100205642826    
 JPrj=0 DoOrth=F DoCkMO=F.
 Initial guess <Sx>= 0.0000 <Sy>= 0.0000 <Sz>= 0.0000 <S**2>=-0.0000 S=-0.0000
 Leave Link  401 at Mon Apr 21 20:19:03 2025, MaxMem=   536870912 cpu:               4.9 elap:               0.8
 (Enter /home/szhao/Apps/g16/l502.exe)
 Keep R1 and R2 ints in memory in canonical form, NReq=29092346.
 FoFCou: FMM=F IPFlag=           0 FMFlag=           0 FMFlg1=           0
         NFxFlg=           0 DoJE=F BraDBF=F KetDBF=F FulRan=T
         wScrn=  0.000000 ICntrl=       600 IOpCl=  0 I1Cent=           0 NGrid=           0
         NMat0=    1 NMatS0=   4656 NMatT0=    0 NMatD0=    1 NMtDS0=    0 NMtDT0=    0
 Symmetry not used in FoFCou.
 Two-electron integral symmetry not used.
 UHF open shell SCF:
 Using DIIS extrapolation, IDIIS=  1040.
 NGot=   536870912 LenX=   515167018 LenY=   515156973
 Requested convergence on RMS density matrix=1.00D-08 within 128 cycles.
 Requested convergence on MAX density matrix=1.00D-06.
 Requested convergence on             energy=1.00D-06.
 No special actions if energy rises.

 Cycle   1  Pass 1  IDiag  1:
 E= -582.366434346038    
 DIIS: error= 2.79D-02 at cycle   1 NSaved=   1.
 NSaved= 1 IEnMin= 1 EnMin= -582.366434346038     IErMin= 1 ErrMin= 2.79D-02
 ErrMax= 2.79D-02  0.00D+00 EMaxC= 1.00D-01 BMatC= 1.93D-01 BMatP= 1.93D-01
 IDIUse=3 WtCom= 7.21D-01 WtEn= 2.79D-01
 Coeff-Com:  0.100D+01
 Coeff-En:   0.100D+01
 Coeff:      0.100D+01
 Gap=     0.132 Goal=   None    Shift=    0.000
 Gap=     0.132 Goal=   None    Shift=    0.000
 GapD=    0.132 DampG=1.000 DampE=0.500 DampFc=0.5000 IDamp=-1.
 Damping current iteration by 5.00D-01
 RMSDP=2.17D-03 MaxDP=2.51D-02              OVMax= 5.69D-02

 Cycle   2  Pass 1  IDiag  1:
 E= -582.379977952476     Delta-E=       -0.013543606438 Rises=F Damp=T
 DIIS: error= 1.41D-02 at cycle   2 NSaved=   2.
 NSaved= 2 IEnMin= 2 EnMin= -582.379977952476     IErMin= 2 ErrMin= 1.41D-02
 ErrMax= 1.41D-02  0.00D+00 EMaxC= 1.00D-01 BMatC= 3.93D-02 BMatP= 1.93D-01
 IDIUse=3 WtCom= 8.59D-01 WtEn= 1.41D-01
 Coeff-Com: -0.702D+00 0.170D+01
 Coeff-En:   0.000D+00 0.100D+01
 Coeff:     -0.603D+00 0.160D+01
 Gap=     0.131 Goal=   None    Shift=    0.000
 Gap=     0.131 Goal=   None    Shift=    0.000
 RMSDP=7.91D-04 MaxDP=8.07D-03 DE=-1.35D-02 OVMax= 1.90D-02

 Cycle   3  Pass 1  IDiag  1:
 E= -582.392265741357     Delta-E=       -0.012287788881 Rises=F Damp=F
 DIIS: error= 9.68D-04 at cycle   3 NSaved=   3.
 NSaved= 3 IEnMin= 3 EnMin= -582.392265741357     IErMin= 3 ErrMin= 9.68D-04
 ErrMax= 9.68D-04  0.00D+00 EMaxC= 1.00D-01 BMatC= 3.80D-04 BMatP= 3.93D-02
 IDIUse=3 WtCom= 9.90D-01 WtEn= 9.68D-03
 Coeff-Com: -0.134D+00 0.260D+00 0.874D+00
 Coeff-En:   0.000D+00 0.000D+00 0.100D+01
 Coeff:     -0.132D+00 0.258D+00 0.875D+00
 Gap=     0.130 Goal=   None    Shift=    0.000
 Gap=     0.130 Goal=   None    Shift=    0.000
 RMSDP=9.13D-05 MaxDP=2.54D-03 DE=-1.23D-02 OVMax= 2.76D-03

 Cycle   4  Pass 1  IDiag  1:
 E= -582.392324516894     Delta-E=       -0.000058775536 Rises=F Damp=F
 DIIS: error= 1.10D-04 at cycle   4 NSaved=   4.
 NSaved= 4 IEnMin= 4 EnMin= -582.392324516894     IErMin= 4 ErrMin= 1.10D-04
 ErrMax= 1.10D-04  0.00D+00 EMaxC= 1.00D-01 BMatC= 3.87D-06 BMatP= 3.80D-04
 IDIUse=3 WtCom= 9.99D-01 WtEn= 1.10D-03
 Coeff-Com: -0.111D-01 0.195D-01 0.115D+00 0.876D+00
 Coeff-En:   0.000D+00 0.000D+00 0.000D+00 0.100D+01
 Coeff:     -0.110D-01 0.195D-01 0.115D+00 0.876D+00
 Gap=     0.130 Goal=   None    Shift=    0.000
 Gap=     0.130 Goal=   None    Shift=    0.000
 RMSDP=1.94D-05 MaxDP=5.78D-04 DE=-5.88D-05 OVMax= 9.59D-04

 Cycle   5  Pass 1  IDiag  1:
 E= -582.392326213033     Delta-E=       -0.000001696139 Rises=F Damp=F
 DIIS: error= 2.11D-05 at cycle   5 NSaved=   5.
 NSaved= 5 IEnMin= 5 EnMin= -582.392326213033     IErMin= 5 ErrMin= 2.11D-05
 ErrMax= 2.11D-05  0.00D+00 EMaxC= 1.00D-01 BMatC= 3.31D-07 BMatP= 3.87D-06
 IDIUse=1 WtCom= 1.00D+00 WtEn= 0.00D+00
 Coeff-Com:  0.228D-02-0.452D-02-0.272D-01 0.102D+00 0.927D+00
 Coeff:      0.228D-02-0.452D-02-0.272D-01 0.102D+00 0.927D+00
 Gap=     0.130 Goal=   None    Shift=    0.000
 Gap=     0.130 Goal=   None    Shift=    0.000
 RMSDP=6.64D-06 MaxDP=1.87D-04 DE=-1.70D-06 OVMax= 2.36D-04

 Cycle   6  Pass 1  IDiag  1:
 E= -582.392326338291     Delta-E=       -0.000000125259 Rises=F Damp=F
 DIIS: error= 1.00D-05 at cycle   6 NSaved=   6.
 NSaved= 6 IEnMin= 6 EnMin= -582.392326338291     IErMin= 6 ErrMin= 1.00D-05
 ErrMax= 1.00D-05  0.00D+00 EMaxC= 1.00D-01 BMatC= 9.23D-09 BMatP= 3.31D-07
 IDIUse=1 WtCom= 1.00D+00 WtEn= 0.00D+00
 Coeff-Com:  0.774D-03-0.144D-02-0.838D-02-0.317D-01 0.354D-02 0.104D+01
 Coeff:      0.774D-03-0.144D-02-0.838D-02-0.317D-01 0.354D-02 0.104D+01
 Gap=     0.130 Goal=   None    Shift=    0.000
 Gap=     0.130 Goal=   None    Shift=    0.000
 RMSDP=1.81D-06 MaxDP=3.55D-05 DE=-1.25D-07 OVMax= 9.46D-05

 Cycle   7  Pass 1  IDiag  1:
 E= -582.392326344196     Delta-E=       -0.000000005904 Rises=F Damp=F
 DIIS: error= 2.68D-06 at cycle   7 NSaved=   7.
 NSaved= 7 IEnMin= 7 EnMin= -582.392326344196     IErMin= 7 ErrMin= 2.68D-06
 ErrMax= 2.68D-06  0.00D+00 EMaxC= 1.00D-01 BMatC= 1.38D-09 BMatP= 9.23D-09
 IDIUse=1 WtCom= 1.00D+00 WtEn= 0.00D+00
 Coeff-Com:  0.205D-03-0.375D-03-0.189D-02-0.132D-01-0.157D-01 0.335D+00
 Coeff-Com:  0.696D+00
 Coeff:      0.205D-03-0.375D-03-0.189D-02-0.132D-01-0.157D-01 0.335D+00
 Coeff:      0.696D+00
 Gap=     0.130 Goal=   None    Shift=    0.000
 Gap=     0.130 Goal=   None    Shift=    0.000
 RMSDP=5.69D-07 MaxDP=1.27D-05 DE=-5.90D-09 OVMax= 5.22D-05

 Cycle   8  Pass 1  IDiag  1:
 E= -582.392326344333     Delta-E=       -0.000000000137 Rises=F Damp=F
 DIIS: error= 2.77D-06 at cycle   8 NSaved=   8.
 NSaved= 8 IEnMin= 8 EnMin= -582.392326344333     IErMin= 7 ErrMin= 2.68D-06
 ErrMax= 2.77D-06  0.00D+00 EMaxC= 1.00D-01 BMatC= 1.18D-09 BMatP= 1.38D-09
 IDIUse=1 WtCom= 1.00D+00 WtEn= 0.00D+00
 Coeff-Com:  0.397D-04-0.688D-04-0.184D-03-0.476D-02-0.899D-02 0.868D-01
 Coeff-Com:  0.486D+00 0.441D+00
 Coeff:      0.397D-04-0.688D-04-0.184D-03-0.476D-02-0.899D-02 0.868D-01
 Coeff:      0.486D+00 0.441D+00
 Gap=     0.130 Goal=   None    Shift=    0.000
 Gap=     0.130 Goal=   None    Shift=    0.000
 RMSDP=2.81D-07 MaxDP=5.98D-06 DE=-1.37D-10 OVMax= 2.70D-05

 Cycle   9  Pass 1  IDiag  1:
 E= -582.392326345009     Delta-E=       -0.000000000677 Rises=F Damp=F
 DIIS: error= 1.21D-07 at cycle   9 NSaved=   9.
 NSaved= 9 IEnMin= 9 EnMin= -582.392326345009     IErMin= 9 ErrMin= 1.21D-07
 ErrMax= 1.21D-07  0.00D+00 EMaxC= 1.00D-01 BMatC= 4.17D-12 BMatP= 1.18D-09
 IDIUse=1 WtCom= 1.00D+00 WtEn= 0.00D+00
 Coeff-Com: -0.184D-04 0.334D-04 0.108D-03 0.150D-02 0.315D-02-0.406D-01
 Coeff-Com: -0.105D+00-0.472D-01 0.119D+01
 Coeff:     -0.184D-04 0.334D-04 0.108D-03 0.150D-02 0.315D-02-0.406D-01
 Coeff:     -0.105D+00-0.472D-01 0.119D+01
 Gap=     0.130 Goal=   None    Shift=    0.000
 Gap=     0.130 Goal=   None    Shift=    0.000
 RMSDP=6.34D-08 MaxDP=1.54D-06 DE=-6.77D-10 OVMax= 2.79D-06

 Cycle  10  Pass 1  IDiag  1:
 E= -582.392326345014     Delta-E=       -0.000000000004 Rises=F Damp=F
 DIIS: error= 7.30D-09 at cycle  10 NSaved=  10.
 NSaved=10 IEnMin=10 EnMin= -582.392326345014     IErMin=10 ErrMin= 7.30D-09
 ErrMax= 7.30D-09  0.00D+00 EMaxC= 1.00D-01 BMatC= 1.78D-14 BMatP= 4.17D-12
 IDIUse=1 WtCom= 1.00D+00 WtEn= 0.00D+00
 Coeff-Com:  0.109D-05-0.192D-05-0.130D-04-0.814D-04-0.384D-04 0.244D-02
 Coeff-Com:  0.367D-02-0.984D-03-0.111D+00 0.111D+01
 Coeff:      0.109D-05-0.192D-05-0.130D-04-0.814D-04-0.384D-04 0.244D-02
 Coeff:      0.367D-02-0.984D-03-0.111D+00 0.111D+01
 Gap=     0.130 Goal=   None    Shift=    0.000
 Gap=     0.130 Goal=   None    Shift=    0.000
 RMSDP=4.53D-09 MaxDP=1.21D-07 DE=-4.09D-12 OVMax= 1.63D-07

 SCF Done:  E(UM062X) =  -582.392326345     A.U. after   10 cycles
            NFock= 10  Conv=0.45D-08     -V/T= 2.0020
 <Sx>= 0.0000 <Sy>= 0.0000 <Sz>= 0.0000 <S**2>=-0.0000 S=-0.0000
 <L.S>=  0.00000000000    
 KE= 5.812568472003D+02 PE=-1.517269639454D+03 EE= 2.880051692550D+02
 Annihilation of the first spin contaminant:
 S**2 before annihilation    -0.0000,   after     0.0000
 Leave Link  502 at Mon Apr 21 20:19:16 2025, MaxMem=   536870912 cpu:              95.6 elap:              12.7
 (Enter /home/szhao/Apps/g16/l601.exe)
 Copying SCF densities to generalized density rwf, IOpCl= 1 IROHF=0.

 **********************************************************************

            Population analysis using the SCF density.

 **********************************************************************

 Alpha  occ. eigenvalues --  -67.02096 -67.02096  -5.56924  -5.56923  -3.88135
 Alpha  occ. eigenvalues --   -3.88135  -3.87928  -3.87928  -3.87928  -3.87928
 Alpha  occ. eigenvalues --   -0.61132  -0.60717  -0.41533  -0.41532  -0.41428
 Alpha  occ. eigenvalues --   -0.41428  -0.24047
 Alpha virt. eigenvalues --   -0.11008   0.01999   0.02674   0.02674   0.03251
 Alpha virt. eigenvalues --    0.05230   0.05230   0.05974   0.06810   0.06811
 Alpha virt. eigenvalues --    0.07391   0.08574   0.08575   0.14206   0.17325
 Alpha virt. eigenvalues --    0.27846   0.27846   0.29122   0.30195   0.30401
 Alpha virt. eigenvalues --    0.30401   0.38172   0.39739   0.39739   0.40199
 Alpha virt. eigenvalues --    0.40200   0.46593   0.49703   0.54114   0.58088
 Alpha virt. eigenvalues --    0.58088   0.58335   0.58335   0.71209   0.72049
 Alpha virt. eigenvalues --    0.90264   0.90265   0.90545   0.90546   1.21703
 Alpha virt. eigenvalues --    1.21704   1.21747   1.22393   1.22394   1.26588
 Alpha virt. eigenvalues --    1.32053   1.32053   1.42012   1.42012   1.42293
 Alpha virt. eigenvalues --    1.42293   1.58780   1.59266   1.62310   1.62311
 Alpha virt. eigenvalues --    1.62605   1.62606   1.85625   1.86972   2.09698
 Alpha virt. eigenvalues --    2.09699   2.10181   2.10182   2.58787   2.58788
 Alpha virt. eigenvalues --    2.59717   2.59718   2.69075   2.72154   5.57620
 Alpha virt. eigenvalues --    5.62231  11.47587  11.51199  11.57328  11.57329
 Alpha virt. eigenvalues --   11.58212  11.58213 141.15771 141.21019
  Beta  occ. eigenvalues --  -67.02096 -67.02096  -5.56924  -5.56923  -3.88135
  Beta  occ. eigenvalues --   -3.88135  -3.87928  -3.87928  -3.87928  -3.87928
  Beta  occ. eigenvalues --   -0.61132  -0.60717  -0.41533  -0.41532  -0.41428
  Beta  occ. eigenvalues --   -0.41428  -0.24047
  Beta virt. eigenvalues --   -0.11008   0.01999   0.02674   0.02674   0.03251
  Beta virt. eigenvalues --    0.05230   0.05230   0.05974   0.06810   0.06811
  Beta virt. eigenvalues --    0.07391   0.08574   0.08575   0.14206   0.17325
  Beta virt. eigenvalues --    0.27846   0.27846   0.29122   0.30195   0.30401
  Beta virt. eigenvalues --    0.30401   0.38172   0.39739   0.39739   0.40199
  Beta virt. eigenvalues --    0.40200   0.46593   0.49703   0.54114   0.58088
  Beta virt. eigenvalues --    0.58088   0.58335   0.58335   0.71209   0.72049
  Beta virt. eigenvalues --    0.90264   0.90265   0.90545   0.90546   1.21703
  Beta virt. eigenvalues --    1.21704   1.21747   1.22393   1.22394   1.26588
  Beta virt. eigenvalues --    1.32053   1.32053   1.42012   1.42012   1.42293
  Beta virt. eigenvalues --    1.42293   1.58780   1.59266   1.62310   1.62311
  Beta virt. eigenvalues --    1.62605   1.62606   1.85625   1.86972   2.09698
  Beta virt. eigenvalues --    2.09699   2.10181   2.10182   2.58787   2.58788
  Beta virt. eigenvalues --    2.59717   2.59718   2.69075   2.72154   5.57620
  Beta virt. eigenvalues --    5.62231  11.47587  11.51199  11.57328  11.57329
  Beta virt. eigenvalues --   11.58212  11.58213 141.15771 141.21019
          Condensed to atoms (all electrons):
               1          2          3          4          5          6
     1  Si  12.511232   0.186101  -0.004994   0.346614  -0.004993  -0.004994
     2  Si   0.186101  12.511232   0.346615  -0.004995   0.346616   0.346616
     3  H   -0.004994   0.346615   0.797462   0.000050  -0.023302  -0.023303
     4  H    0.346614  -0.004995   0.000050   0.797462   0.000022   0.000050
     5  H   -0.004993   0.346616  -0.023302   0.000022   0.797460  -0.023303
     6  H   -0.004994   0.346616  -0.023303   0.000050  -0.023303   0.797464
     7  H    0.346615  -0.004994   0.000022  -0.023301   0.000050   0.000050
     8  H    0.346618  -0.004993   0.000050  -0.023303   0.000050   0.000022
               7          8
     1  Si   0.346615   0.346618
     2  Si  -0.004994  -0.004993
     3  H    0.000022   0.000050
     4  H   -0.023301  -0.023303
     5  H    0.000050   0.000050
     6  H    0.000050   0.000022
     7  H    0.797462  -0.023304
     8  H   -0.023304   0.797462
          Atomic-Atomic Spin Densities.
               1          2          3          4          5          6
     1  Si   0.000000  -0.000000  -0.000000  -0.000000  -0.000000  -0.000000
     2  Si  -0.000000  -0.000000   0.000000  -0.000000  -0.000000  -0.000000
     3  H   -0.000000   0.000000   0.000000   0.000000  -0.000000  -0.000000
     4  H   -0.000000  -0.000000   0.000000  -0.000000   0.000000   0.000000
     5  H   -0.000000  -0.000000  -0.000000   0.000000   0.000000   0.000000
     6  H   -0.000000  -0.000000  -0.000000   0.000000   0.000000   0.000000
     7  H   -0.000000  -0.000000   0.000000   0.000000   0.000000   0.000000
     8  H   -0.000000  -0.000000   0.000000   0.000000   0.000000  -0.000000
               7          8
     1  Si  -0.000000  -0.000000
     2  Si  -0.000000  -0.000000
     3  H    0.000000   0.000000
     4  H    0.000000   0.000000
     5  H    0.000000   0.000000
     6  H    0.000000  -0.000000
     7  H   -0.000000   0.000000
     8  H    0.000000   0.000000
 Mulliken charges and spin densities:
               1          2
     1  Si   0.277803   0.000000
     2  Si   0.277803  -0.000000
     3  H   -0.092601  -0.000000
     4  H   -0.092600  -0.000000
     5  H   -0.092600  -0.000000
     6  H   -0.092602  -0.000000
     7  H   -0.092601  -0.000000
     8  H   -0.092602  -0.000000
 Sum of Mulliken charges =  -0.00000  -0.00000
 Mulliken charges and spin densities with hydrogens summed into heavy atoms:
               1          2
     1  Si  -0.000000   0.000000
     2  Si   0.000000  -0.000000
 Electronic spatial extent (au):  <R**2>=            709.4608
 Charge=             -0.0000 electrons
 Dipole moment (field-independent basis, Debye):
    X=              0.0000    Y=             -0.0000    Z=             -0.0000  Tot=              0.0000
 Quadrupole moment (field-independent basis, Debye-Ang):
   XX=            -30.0719   YY=            -32.2589   ZZ=            -32.2590
   XY=             -0.0001   XZ=             -0.0002   YZ=             -0.0000
 Traceless Quadrupole moment (field-independent basis, Debye-Ang):
   XX=              1.4580   YY=             -0.7290   ZZ=             -0.7291
   XY=             -0.0001   XZ=             -0.0002   YZ=             -0.0000
 Octapole moment (field-independent basis, Debye-Ang**2):
  XXX=              0.0001  YYY=             -0.0000  ZZZ=             -0.0009  XYY=              0.0000
  XXY=             -0.0000  XXZ=             -0.0006  XZZ=              0.0000  YZZ=              0.0000
  YYZ=              0.0001  XYZ=              0.0000
 Hexadecapole moment (field-independent basis, Debye-Ang**3):
 XXXX=           -978.5900 YYYY=            -86.7924 ZZZZ=            -86.7920 XXXY=             -0.0017
 XXXZ=             -0.0022 YYYX=              2.5981 YYYZ=              0.0002 ZZZX=             -0.0010
 ZZZY=              0.0002 XXYY=           -180.4418 XXZZ=           -180.4420 YYZZ=            -28.9307
 XXYZ=             -0.0002 YYXZ=             -0.0006 ZZXY=             -2.5994
 N-N= 6.561529665337D+01 E-N=-1.517269639490D+03  KE= 5.812568472003D+02
                          Isotropic Fermi Contact Couplings
        Atom                 a.u.       MegaHertz       Gauss      10(-4) cm-1
     1  Si(29)             0.00000      -0.00000      -0.00000      -0.00000
     2  Si(29)            -0.00000       0.00000       0.00000       0.00000
     3  H(1)              -0.00000      -0.00000      -0.00000      -0.00000
     4  H(1)               0.00000       0.00000       0.00000       0.00000
     5  H(1)              -0.00000      -0.00000      -0.00000      -0.00000
     6  H(1)              -0.00000      -0.00000      -0.00000      -0.00000
     7  H(1)              -0.00000      -0.00000      -0.00000      -0.00000
     8  H(1)              -0.00000      -0.00000      -0.00000      -0.00000
 --------------------------------------------------------
       Center         ----  Spin Dipole Couplings  ----
                      3XX-RR        3YY-RR        3ZZ-RR
 --------------------------------------------------------
     1   Atom        0.000000      0.000000      0.000000
     2   Atom        0.000000      0.000000      0.000000
     3   Atom        0.000000      0.000000      0.000000
     4   Atom        0.000000      0.000000      0.000000
     5   Atom        0.000000      0.000000      0.000000
     6   Atom        0.000000      0.000000      0.000000
     7   Atom        0.000000      0.000000      0.000000
     8   Atom        0.000000      0.000000      0.000000
 --------------------------------------------------------
                        XY            XZ            YZ
 --------------------------------------------------------
     1   Atom        0.000000      0.000000      0.000000
     2   Atom        0.000000      0.000000      0.000000
     3   Atom        0.000000      0.000000      0.000000
     4   Atom        0.000000      0.000000      0.000000
     5   Atom        0.000000      0.000000      0.000000
     6   Atom        0.000000      0.000000      0.000000
     7   Atom        0.000000      0.000000      0.000000
     8   Atom        0.000000      0.000000      0.000000
 --------------------------------------------------------


 ---------------------------------------------------------------------------------
              Anisotropic Spin Dipole Couplings in Principal Axis System
 ---------------------------------------------------------------------------------

       Atom             a.u.   MegaHertz   Gauss  10(-4) cm-1        Axes

              Baa     0.0000    -0.000    -0.000    -0.000  1.0000  0.0000  0.0000
     1 Si(29) Bbb     0.0000    -0.000    -0.000    -0.000 -0.0000  1.0000  0.0000
              Bcc     0.0000    -0.000    -0.000    -0.000  0.0000  0.0000  1.0000
 
              Baa     0.0000    -0.000    -0.000    -0.000  1.0000  0.0000  0.0000
     2 Si(29) Bbb     0.0000    -0.000    -0.000    -0.000 -0.0000  1.0000  0.0000
              Bcc     0.0000    -0.000    -0.000    -0.000  0.0000  0.0000  1.0000
 
              Baa     0.0000     0.000     0.000     0.000  1.0000  0.0000  0.0000
     3 H(1)   Bbb     0.0000     0.000     0.000     0.000 -0.0000  1.0000  0.0000
              Bcc     0.0000     0.000     0.000     0.000  0.0000  0.0000  1.0000
 
              Baa     0.0000     0.000     0.000     0.000  1.0000  0.0000  0.0000
     4 H(1)   Bbb     0.0000     0.000     0.000     0.000 -0.0000  1.0000  0.0000
              Bcc     0.0000     0.000     0.000     0.000  0.0000  0.0000  1.0000
 
              Baa     0.0000     0.000     0.000     0.000  1.0000  0.0000  0.0000
     5 H(1)   Bbb     0.0000     0.000     0.000     0.000 -0.0000  1.0000  0.0000
              Bcc     0.0000     0.000     0.000     0.000  0.0000  0.0000  1.0000
 
              Baa     0.0000     0.000     0.000     0.000  1.0000  0.0000  0.0000
     6 H(1)   Bbb     0.0000     0.000     0.000     0.000 -0.0000  1.0000  0.0000
              Bcc     0.0000     0.000     0.000     0.000  0.0000  0.0000  1.0000
 
              Baa     0.0000     0.000     0.000     0.000  1.0000  0.0000  0.0000
     7 H(1)   Bbb     0.0000     0.000     0.000     0.000 -0.0000  1.0000  0.0000
              Bcc     0.0000     0.000     0.000     0.000  0.0000  0.0000  1.0000
 
              Baa     0.0000     0.000     0.000     0.000  1.0000  0.0000  0.0000
     8 H(1)   Bbb     0.0000     0.000     0.000     0.000 -0.0000  1.0000  0.0000
              Bcc     0.0000     0.000     0.000     0.000  0.0000  0.0000  1.0000
 

 ---------------------------------------------------------------------------------

 No NMR shielding tensors so no spin-rotation constants.
 Leave Link  601 at Mon Apr 21 20:19:16 2025, MaxMem=   536870912 cpu:               1.8 elap:               0.3
 (Enter /home/szhao/Apps/g16/l701.exe)
 ... and contract with generalized density number  0.
 Compute integral first derivatives.
 Leave Link  701 at Mon Apr 21 20:19:17 2025, MaxMem=   536870912 cpu:               3.4 elap:               0.5
 (Enter /home/szhao/Apps/g16/l702.exe)
 L702 exits ... SP integral derivatives will be done elsewhere.
 Leave Link  702 at Mon Apr 21 20:19:17 2025, MaxMem=   536870912 cpu:               0.4 elap:               0.1
 (Enter /home/szhao/Apps/g16/l703.exe)
 Integral derivatives from FoFJK, PRISM(SPDF).
 Compute integral first derivatives, UseDBF=F ICtDFT=           0.
 Calling FoFJK, ICntrl=      2127 FMM=F ISym2X=0 I1Cent= 0 IOpClX= 1 NMat=1 NMatS=1 NMatT=0.
 FoFJK:  IHMeth= 1 ICntrl=    2127 DoSepK=F KAlg= 0 I1Cent=           0 FoldK=F
 IRaf=         0 NMat=       1 IRICut=       1 DoRegI=T DoRafI=F ISym2E= 0 IDoP0=0 IntGTp=1.
 FoFCou: FMM=F IPFlag=           0 FMFlag=      100000 FMFlg1=         800
         NFxFlg=           0 DoJE=F BraDBF=F KetDBF=F FulRan=T
         wScrn=  0.000000 ICntrl=      2127 IOpCl=  1 I1Cent=           0 NGrid=           0
         NMat0=    1 NMatS0=      1 NMatT0=    0 NMatD0=    1 NMtDS0=    0 NMtDT0=    0
 Symmetry not used in FoFCou.
 Leave Link  703 at Mon Apr 21 20:19:19 2025, MaxMem=   536870912 cpu:              13.2 elap:               1.7
 (Enter /home/szhao/Apps/g16/l716.exe)
 Dipole        = 4.91119837D-06-1.07828129D-06-6.07769480D-06
 -------------------------------------------------------------------
 Center     Atomic                   Forces (Hartrees/Bohr)
 Number     Number              X              Y              Z
 -------------------------------------------------------------------
      1       14          -0.000000000   -0.000000000   -0.000000000
      2       14          -0.000000000   -0.000000000   -0.000000000
      3        1          -0.004529847   -0.000939866   -0.000002148
      4        1           0.004531246   -0.000467242    0.000816716
      5        1          -0.004531567    0.000468192   -0.000818966
      6        1          -0.004532037    0.000468803    0.000816064
      7        1           0.004529963    0.000939853    0.000001221
      8        1           0.004532336   -0.000469972   -0.000818421
 -------------------------------------------------------------------
 Cartesian Forces:  Max     0.004532336 RMS     0.002313972
 Leave Link  716 at Mon Apr 21 20:19:19 2025, MaxMem=   536870912 cpu:               0.4 elap:               0.1
 (Enter /home/szhao/Apps/g16/l103.exe)

 GradGradGradGradGradGradGradGradGradGradGradGradGradGradGradGradGradGrad
 Berny optimization.
 FormGI is forming the generalized inverse of G from B-inverse, IUseBI=4.
 Internal  Forces:  Max     0.013593545 RMS     0.005080549
 Search for a local minimum.
 Step number   1 out of a maximum of   43
 All quantities printed in internal units (Hartrees-Bohrs-Radians)
 RMS Force = .42261D-02 SwitMx=.10000D-02 MixMth= 1
 Mixed Optimization -- RFO/linear search
 Second derivative matrix not updated -- first step.
 ITU=  0
     Eigenvalues ---    0.00230   0.05576   0.05576   0.05577   0.05577
     Eigenvalues ---    0.16000   0.16000   0.16000   0.16000   0.16000
     Eigenvalues ---    0.16000   0.17703   0.17703   0.17703   0.17703
     Eigenvalues ---    0.17703   0.177031000.000001000.000001000.00000
     Eigenvalues --- 1000.000001000.000001000.000001000.000001000.00000
     Eigenvalues --- 1000.000001000.000001000.000001000.000001000.00000
     Eigenvalues --- 1000.000001000.000001000.00000
 RFO step:  Lambda=-2.95760578D-03 EMin= 2.30000000D-03
 Linear search not attempted -- first point.
 Iteration  1 RMS(Cart)=  0.04570671 RMS(Int)=  0.00108900
 Iteration  2 RMS(Cart)=  0.00124421 RMS(Int)=  0.00048127
 Iteration  3 RMS(Cart)=  0.00000119 RMS(Int)=  0.00048127
 Iteration  4 RMS(Cart)=  0.00000000 RMS(Int)=  0.00048127
 ITry= 1 IFail=0 DXMaxC= 1.04D-01 DCOld= 1.00D+10 DXMaxT= 3.00D-01 DXLimC= 3.00D+00 Rises=F
 Variable       Old X    -DE/DX   Delta X   Delta X   Delta X     New X
                                 (Linear)    (Quad)   (Total)
    X1       -4.00588   0.01359   0.00000   0.00000   0.00000  -4.00588
    Y1        0.00000   0.00000   0.00000   0.00000   0.00000   0.00000
    Z1        0.00000  -0.00000   0.00000   0.00000   0.00000   0.00000
    X2        4.00588  -0.01359   0.00000   0.00000   0.00000   4.00588
    Y2        0.00000  -0.00000   0.00000   0.00000   0.00000   0.00000
    Z2        0.00000  -0.00001   0.00000   0.00000   0.00000   0.00000
    R1        2.79961  -0.00068   0.00000  -0.00379  -0.00379   2.79582
    R2        2.79960  -0.00068   0.00000  -0.00380  -0.00380   2.79580
    R3        2.79960  -0.00068   0.00000  -0.00378  -0.00378   2.79582
    R4        2.79960  -0.00068   0.00000  -0.00380  -0.00380   2.79580
    R5        2.79960  -0.00068   0.00000  -0.00378  -0.00378   2.79582
    R6        2.79961  -0.00068   0.00000  -0.00379  -0.00379   2.79582
    A1        1.92359  -0.00624   0.00000  -0.03826  -0.03903   1.88456
    A2        1.92367  -0.00623   0.00000  -0.03825  -0.03903   1.88464
    A3        1.92374  -0.00624   0.00000  -0.03828  -0.03905   1.88468
    A4        1.89746   0.00640   0.00000   0.03927   0.03845   1.93591
    A5        1.89740   0.00641   0.00000   0.03934   0.03852   1.93592
    A6        1.89741   0.00641   0.00000   0.03930   0.03848   1.93589
    A7        1.92366  -0.00623   0.00000  -0.03825  -0.03903   1.88464
    A8        1.92373  -0.00624   0.00000  -0.03828  -0.03905   1.88468
    A9        1.92360  -0.00624   0.00000  -0.03826  -0.03903   1.88456
   A10        1.89746   0.00640   0.00000   0.03927   0.03845   1.93590
   A11        1.89741   0.00640   0.00000   0.03930   0.03848   1.93589
   A12        1.89740   0.00641   0.00000   0.03934   0.03852   1.93592
    D1        1.04728   0.00000   0.00000   0.00005   0.00005   1.04733
    D2       -3.14142  -0.00000   0.00000  -0.00001  -0.00001  -3.14143
    D3       -1.04705   0.00000   0.00000   0.00003   0.00003  -1.04702
    D4       -3.14151   0.00000   0.00000   0.00002   0.00002  -3.14149
    D5       -1.04702  -0.00000   0.00000  -0.00004  -0.00004  -1.04706
    D6        1.04734   0.00000   0.00000   0.00001   0.00001   1.04735
    D7       -1.04709   0.00000   0.00000   0.00001   0.00001  -1.04708
    D8        1.04740  -0.00000   0.00000  -0.00005  -0.00005   1.04735
    D9       -3.14142  -0.00000   0.00000  -0.00001  -0.00001  -3.14143
         Item               Value     Threshold  Converged?
 Maximum Force            0.006409     0.000450     NO 
 RMS     Force            0.004226     0.000300     NO 
 Maximum Displacement     0.104478     0.001800     NO 
 RMS     Displacement     0.046596     0.001200     NO 
 Predicted change in Energy=-1.504971D-03
 Lowest energy point so far.  Saving SCF results.
 GradGradGradGradGradGradGradGradGradGradGradGradGradGradGradGradGradGrad

 Leave Link  103 at Mon Apr 21 20:19:19 2025, MaxMem=   536870912 cpu:               1.0 elap:               0.2
 (Enter /home/szhao/Apps/g16/l202.exe)
                          Input orientation:                          
 ---------------------------------------------------------------------
 Center     Atomic      Atomic             Coordinates (Angstroms)
 Number     Number       Type             X           Y           Z
 ---------------------------------------------------------------------
      1         14           0       -2.119819    0.000000    0.000000
      2         14           0        2.119819    0.000000    0.000000
      3          1           0        2.576553   -1.407208   -0.000034
      4          1           0       -2.576444   -0.703494    1.218793
      5          1           0        2.576615    0.703668   -1.218629
      6          1           0        2.576453    0.703538    1.218765
      7          1           0       -2.576558    1.407206   -0.000113
      8          1           0       -2.576622   -0.703713   -1.218601
 ---------------------------------------------------------------------
                    Distance matrix (angstroms):
                    1          2          3          4          5
     1  Si   0.000000
     2  Si   4.239638   0.000000
     3  H    4.902667   1.479473   0.000000
     4  H    1.479482   4.902576   5.341735   0.000000
     5  H    4.902724   1.479482   2.437369   5.871555   0.000000
     6  H    4.902584   1.479483   2.437359   5.341544   2.437394
     7  H    1.479473   4.902671   5.871582   2.437373   5.341811
     8  H    1.479483   4.902730   5.341818   2.437395   5.341964
                    6          7          8
     6  H    0.000000
     7  H    5.341754   0.000000
     8  H    5.871567   2.437354   0.000000
 Symmetry turned off by external request.
 Stoichiometry    H6Si2
 Framework group  C1[X(H6Si2)]
 Deg. of freedom    18
 Full point group                 C1      NOp   1
 Rotational constants (GHZ):          42.2043940           1.6983744           1.6983732
 Leave Link  202 at Mon Apr 21 20:19:20 2025, MaxMem=   536870912 cpu:               0.1 elap:               0.0
 (Enter /home/szhao/Apps/g16/l301.exe)
 Standard basis: 6-311+G(d,p) (5D, 7F)
 Ernie: Thresh=  0.10000D-02 Tol=  0.10000D-05 Strict=F.
    96 basis functions,   148 primitive gaussians,    98 cartesian basis functions
    17 alpha electrons       17 beta electrons
       nuclear repulsion energy        65.7431126889 Hartrees.
 IExCor= 4336 DFT=T Ex+Corr=M062X ExCW=0 ScaHFX=  0.540000
 ScaDFX=  1.000000  1.000000  1.000000  1.000000 ScalE2=  1.000000  1.000000
 IRadAn=      7 IRanWt=     -1 IRanGd=            0 ICorTp=0 IEmpDi=  4
 NAtoms=    8 NActive=    8 NUniq=    8 SFac= 1.00D+00 NAtFMM=   60 NAOKFM=F Big=F
 Integral buffers will be    131072 words long.
 Raffenetti 2 integral format.
 Two-electron integral symmetry is turned off.
 Leave Link  301 at Mon Apr 21 20:19:20 2025, MaxMem=   536870912 cpu:               0.5 elap:               0.1
 (Enter /home/szhao/Apps/g16/l302.exe)
 NPDir=0 NMtPBC=     1 NCelOv=     1 NCel=       1 NClECP=     1 NCelD=      1
         NCelK=      1 NCelE2=     1 NClLst=     1 CellRange=     0.0.
 One-electron integrals computed using PRISM.
 NBasis=    96 RedAO= T EigKep=  7.32D-03  NBF=    96
 NBsUse=    96 1.00D-06 EigRej= -1.00D+00 NBFU=    96
 Precomputing XC quadrature grid using
 IXCGrd= 4 IRadAn=           7 IRanWt=          -1 IRanGd=           0 AccXCQ= 0.00D+00.
 Generated NRdTot=       0 NPtTot=           0 NUsed=           0 NTot=          32
 NSgBfM=    90    90    90    90    90 MxSgAt=     8 MxSgA2=     8.
 Leave Link  302 at Mon Apr 21 20:19:20 2025, MaxMem=   536870912 cpu:               1.8 elap:               0.3
 (Enter /home/szhao/Apps/g16/l303.exe)
 DipDrv:  MaxL=1.
 Leave Link  303 at Mon Apr 21 20:19:21 2025, MaxMem=   536870912 cpu:               0.6 elap:               0.1
 (Enter /home/szhao/Apps/g16/l401.exe)
 Initial guess from the checkpoint file:  "opt.chk"
 B after Tr=     0.000000   -0.000000   -0.000004
         Rot=    1.000000   -0.000000   -0.000000    0.000000 Ang=  -0.00 deg.
 Guess basis will be translated and rotated to current coordinates.
 JPrj=2 DoOrth=T DoCkMO=T.
 Initial guess <Sx>= 0.0000 <Sy>= 0.0000 <Sz>= 0.0000 <S**2>= 0.0000 S= 0.0000
 Generating alternative initial guess.
 ExpMin= 3.31D-02 ExpMax= 6.94D+04 ExpMxC= 2.33D+03 IAcc=3 IRadAn=         5 AccDes= 0.00D+00
 Harris functional with IExCor= 1009 and IRadAn=       5 diagonalized for initial guess.
 HarFok:  IExCor= 1009 AccDes= 0.00D+00 IRadAn=         5 IDoV= 1 UseB2=F ITyADJ=14
 ICtDFT=  3500011 ScaDFX=  1.000000  1.000000  1.000000  1.000000
 FoFCou: FMM=F IPFlag=           0 FMFlag=      100000 FMFlg1=           0
         NFxFlg=           0 DoJE=T BraDBF=F KetDBF=T FulRan=T
         wScrn=  0.000000 ICntrl=       500 IOpCl=  0 I1Cent=   200000004 NGrid=           0
         NMat0=    1 NMatS0=      1 NMatT0=    0 NMatD0=    1 NMtDS0=    0 NMtDT0=    0
 Symmetry not used in FoFCou.
 Harris En= -582.099210221943    
 Leave Link  401 at Mon Apr 21 20:19:22 2025, MaxMem=   536870912 cpu:               5.3 elap:               1.1
 (Enter /home/szhao/Apps/g16/l502.exe)
 Keep R1 and R2 ints in memory in canonical form, NReq=29092346.
 FoFCou: FMM=F IPFlag=           0 FMFlag=           0 FMFlg1=           0
         NFxFlg=           0 DoJE=F BraDBF=F KetDBF=F FulRan=T
         wScrn=  0.000000 ICntrl=       600 IOpCl=  0 I1Cent=           0 NGrid=           0
         NMat0=    1 NMatS0=   4656 NMatT0=    0 NMatD0=    1 NMtDS0=    0 NMtDT0=    0
 Symmetry not used in FoFCou.
 Two-electron integral symmetry not used.
 UHF open shell SCF:
 Using DIIS extrapolation, IDIIS=  1040.
 NGot=   536870912 LenX=   515167018 LenY=   515156973
 Requested convergence on RMS density matrix=1.00D-08 within 128 cycles.
 Requested convergence on MAX density matrix=1.00D-06.
 Requested convergence on             energy=1.00D-06.
 No special actions if energy rises.

 Cycle   1  Pass 1  IDiag  1:
 E= -582.394082528019    
 DIIS: error= 2.57D-03 at cycle   1 NSaved=   1.
 NSaved= 1 IEnMin= 1 EnMin= -582.394082528019     IErMin= 1 ErrMin= 2.57D-03
 ErrMax= 2.57D-03  0.00D+00 EMaxC= 1.00D-01 BMatC= 8.15D-04 BMatP= 8.15D-04
 IDIUse=3 WtCom= 9.74D-01 WtEn= 2.57D-02
 Coeff-Com:  0.100D+01
 Coeff-En:   0.100D+01
 Coeff:      0.100D+01
 Gap=     0.407 Goal=   None    Shift=    0.000
 Gap=     0.407 Goal=   None    Shift=    0.000
 GapD=    0.407 DampG=2.000 DampE=1.000 DampFc=2.0000 IDamp=-1.
 RMSDP=2.19D-04 MaxDP=4.29D-03              OVMax= 1.24D-02

 Cycle   2  Pass 1  IDiag  1:
 E= -582.394450154661     Delta-E=       -0.000367626642 Rises=F Damp=F
 DIIS: error= 4.09D-04 at cycle   2 NSaved=   2.
 NSaved= 2 IEnMin= 2 EnMin= -582.394450154661     IErMin= 2 ErrMin= 4.09D-04
 ErrMax= 4.09D-04  0.00D+00 EMaxC= 1.00D-01 BMatC= 1.34D-05 BMatP= 8.15D-04
 IDIUse=3 WtCom= 9.96D-01 WtEn= 4.09D-03
 Coeff-Com: -0.925D-01 0.109D+01
 Coeff-En:   0.000D+00 0.100D+01
 Coeff:     -0.922D-01 0.109D+01
 Gap=     0.131 Goal=   None    Shift=    0.000
 Gap=     0.131 Goal=   None    Shift=    0.000
 RMSDP=7.93D-05 MaxDP=2.00D-03 DE=-3.68D-04 OVMax= 3.16D-03

 Cycle   3  Pass 1  IDiag  1:
 E= -582.394462681611     Delta-E=       -0.000012526950 Rises=F Damp=F
 DIIS: error= 6.60D-05 at cycle   3 NSaved=   3.
 NSaved= 3 IEnMin= 3 EnMin= -582.394462681611     IErMin= 3 ErrMin= 6.60D-05
 ErrMax= 6.60D-05  0.00D+00 EMaxC= 1.00D-01 BMatC= 6.35D-07 BMatP= 1.34D-05
 IDIUse=1 WtCom= 1.00D+00 WtEn= 0.00D+00
 Coeff-Com: -0.110D-01 0.350D-01 0.976D+00
 Coeff:     -0.110D-01 0.350D-01 0.976D+00
 Gap=     0.131 Goal=   None    Shift=    0.000
 Gap=     0.131 Goal=   None    Shift=    0.000
 RMSDP=2.00D-05 MaxDP=4.91D-04 DE=-1.25D-05 OVMax= 6.57D-04

 Cycle   4  Pass 1  IDiag  1:
 E= -582.394463104569     Delta-E=       -0.000000422959 Rises=F Damp=F
 DIIS: error= 1.39D-05 at cycle   4 NSaved=   4.
 NSaved= 4 IEnMin= 4 EnMin= -582.394463104569     IErMin= 4 ErrMin= 1.39D-05
 ErrMax= 1.39D-05  0.00D+00 EMaxC= 1.00D-01 BMatC= 1.11D-07 BMatP= 6.35D-07
 IDIUse=1 WtCom= 1.00D+00 WtEn= 0.00D+00
 Coeff-Com:  0.492D-02-0.842D-01 0.244D+00 0.835D+00
 Coeff:      0.492D-02-0.842D-01 0.244D+00 0.835D+00
 Gap=     0.130 Goal=   None    Shift=    0.000
 Gap=     0.130 Goal=   None    Shift=    0.000
 RMSDP=6.16D-06 MaxDP=1.59D-04 DE=-4.23D-07 OVMax= 1.76D-04

 Cycle   5  Pass 1  IDiag  1:
 E= -582.394463141895     Delta-E=       -0.000000037325 Rises=F Damp=F
 DIIS: error= 1.78D-06 at cycle   5 NSaved=   5.
 NSaved= 5 IEnMin= 5 EnMin= -582.394463141895     IErMin= 5 ErrMin= 1.78D-06
 ErrMax= 1.78D-06  0.00D+00 EMaxC= 1.00D-01 BMatC= 5.52D-10 BMatP= 1.11D-07
 IDIUse=1 WtCom= 1.00D+00 WtEn= 0.00D+00
 Coeff-Com: -0.326D-03 0.750D-02-0.385D-01-0.969D-01 0.113D+01
 Coeff:     -0.326D-03 0.750D-02-0.385D-01-0.969D-01 0.113D+01
 Gap=     0.130 Goal=   None    Shift=    0.000
 Gap=     0.130 Goal=   None    Shift=    0.000
 RMSDP=1.29D-06 MaxDP=3.41D-05 DE=-3.73D-08 OVMax= 4.12D-05

 Cycle   6  Pass 1  IDiag  1:
 E= -582.394463142854     Delta-E=       -0.000000000959 Rises=F Damp=F
 DIIS: error= 3.53D-07 at cycle   6 NSaved=   6.
 NSaved= 6 IEnMin= 6 EnMin= -582.394463142854     IErMin= 6 ErrMin= 3.53D-07
 ErrMax= 3.53D-07  0.00D+00 EMaxC= 1.00D-01 BMatC= 2.94D-11 BMatP= 5.52D-10
 IDIUse=1 WtCom= 1.00D+00 WtEn= 0.00D+00
 Coeff-Com: -0.154D-03 0.267D-02-0.977D-02-0.202D-01 0.368D-01 0.991D+00
 Coeff:     -0.154D-03 0.267D-02-0.977D-02-0.202D-01 0.368D-01 0.991D+00
 Gap=     0.130 Goal=   None    Shift=    0.000
 Gap=     0.130 Goal=   None    Shift=    0.000
 RMSDP=1.51D-07 MaxDP=3.42D-06 DE=-9.59D-10 OVMax= 6.70D-06

 Cycle   7  Pass 1  IDiag  1:
 E= -582.394463142883     Delta-E=       -0.000000000030 Rises=F Damp=F
 DIIS: error= 8.19D-08 at cycle   7 NSaved=   7.
 NSaved= 7 IEnMin= 7 EnMin= -582.394463142883     IErMin= 7 ErrMin= 8.19D-08
 ErrMax= 8.19D-08  0.00D+00 EMaxC= 1.00D-01 BMatC= 1.81D-12 BMatP= 2.94D-11
 IDIUse=1 WtCom= 1.00D+00 WtEn= 0.00D+00
 Coeff-Com: -0.641D-05-0.745D-05 0.701D-03 0.884D-03-0.430D-01 0.103D+00
 Coeff-Com:  0.939D+00
 Coeff:     -0.641D-05-0.745D-05 0.701D-03 0.884D-03-0.430D-01 0.103D+00
 Coeff:      0.939D+00
 Gap=     0.130 Goal=   None    Shift=    0.000
 Gap=     0.130 Goal=   None    Shift=    0.000
 RMSDP=3.34D-08 MaxDP=7.05D-07 DE=-2.97D-11 OVMax= 2.41D-06

 Cycle   8  Pass 1  IDiag  1:
 E= -582.394463142883     Delta-E=        0.000000000000 Rises=F Damp=F
 DIIS: error= 1.39D-07 at cycle   8 NSaved=   8.
 NSaved= 8 IEnMin= 7 EnMin= -582.394463142883     IErMin= 7 ErrMin= 8.19D-08
 ErrMax= 1.39D-07  0.00D+00 EMaxC= 1.00D-01 BMatC= 2.96D-12 BMatP= 1.81D-12
 IDIUse=1 WtCom= 1.00D+00 WtEn= 0.00D+00
 Coeff-Com:  0.986D-05-0.254D-03 0.141D-02 0.242D-02-0.329D-01-0.240D-01
 Coeff-Com:  0.651D+00 0.403D+00
 Coeff:      0.986D-05-0.254D-03 0.141D-02 0.242D-02-0.329D-01-0.240D-01
 Coeff:      0.651D+00 0.403D+00
 Gap=     0.130 Goal=   None    Shift=    0.000
 Gap=     0.130 Goal=   None    Shift=    0.000
 RMSDP=1.39D-08 MaxDP=3.24D-07 DE= 0.00D+00 OVMax= 1.36D-06

 Cycle   9  Pass 1  IDiag  1:
 E= -582.394463142885     Delta-E=       -0.000000000002 Rises=F Damp=F
 DIIS: error= 4.36D-09 at cycle   9 NSaved=   9.
 NSaved= 9 IEnMin= 9 EnMin= -582.394463142885     IErMin= 9 ErrMin= 4.36D-09
 ErrMax= 4.36D-09  0.00D+00 EMaxC= 1.00D-01 BMatC= 5.40D-15 BMatP= 1.81D-12
 IDIUse=1 WtCom= 1.00D+00 WtEn= 0.00D+00
 Coeff-Com: -0.598D-06 0.210D-04-0.123D-03-0.243D-03 0.349D-02-0.394D-02
 Coeff-Com: -0.569D-01-0.157D-02 0.106D+01
 Coeff:     -0.598D-06 0.210D-04-0.123D-03-0.243D-03 0.349D-02-0.394D-02
 Coeff:     -0.569D-01-0.157D-02 0.106D+01
 Gap=     0.130 Goal=   None    Shift=    0.000
 Gap=     0.130 Goal=   None    Shift=    0.000
 RMSDP=1.76D-09 MaxDP=3.80D-08 DE=-2.27D-12 OVMax= 5.17D-08

 SCF Done:  E(UM062X) =  -582.394463143     A.U. after    9 cycles
            NFock=  9  Conv=0.18D-08     -V/T= 2.0020
 <Sx>= 0.0000 <Sy>= 0.0000 <Sz>= 0.0000 <S**2>=-0.0000 S=-0.0000
 <L.S>=  0.00000000000    
 KE= 5.812597293985D+02 PE=-1.517552590017D+03 EE= 2.881552847869D+02
 Annihilation of the first spin contaminant:
 S**2 before annihilation    -0.0000,   after    -0.0000
 Leave Link  502 at Mon Apr 21 20:19:35 2025, MaxMem=   536870912 cpu:              89.7 elap:              12.5
 (Enter /home/szhao/Apps/g16/l701.exe)
 ... and contract with generalized density number  0.
 Compute integral first derivatives.
 Leave Link  701 at Mon Apr 21 20:19:35 2025, MaxMem=   536870912 cpu:               1.4 elap:               0.2
 (Enter /home/szhao/Apps/g16/l702.exe)
 L702 exits ... SP integral derivatives will be done elsewhere.
 Leave Link  702 at Mon Apr 21 20:19:35 2025, MaxMem=   536870912 cpu:               0.4 elap:               0.1
 (Enter /home/szhao/Apps/g16/l703.exe)
 Integral derivatives from FoFJK, PRISM(SPDF).
 Compute integral first derivatives, UseDBF=F ICtDFT=           0.
 Calling FoFJK, ICntrl=      2127 FMM=F ISym2X=0 I1Cent= 0 IOpClX= 1 NMat=1 NMatS=1 NMatT=0.
 FoFJK:  IHMeth= 1 ICntrl=    2127 DoSepK=F KAlg= 0 I1Cent=           0 FoldK=F
 IRaf=         0 NMat=       1 IRICut=       1 DoRegI=T DoRafI=F ISym2E= 0 IDoP0=0 IntGTp=1.
 FoFCou: FMM=F IPFlag=           0 FMFlag=      100000 FMFlg1=         800
         NFxFlg=           0 DoJE=F BraDBF=F KetDBF=F FulRan=T
         wScrn=  0.000000 ICntrl=      2127 IOpCl=  1 I1Cent=           0 NGrid=           0
         NMat0=    1 NMatS0=      1 NMatT0=    0 NMatD0=    1 NMtDS0=    0 NMtDT0=    0
 Symmetry not used in FoFCou.
 Leave Link  703 at Mon Apr 21 20:19:37 2025, MaxMem=   536870912 cpu:              15.1 elap:               2.0
 (Enter /home/szhao/Apps/g16/l716.exe)
 Dipole        = 3.09294897D-06-5.32531744D-07 9.89070298D-06
 -------------------------------------------------------------------
 Center     Atomic                   Forces (Hartrees/Bohr)
 Number     Number              X              Y              Z
 -------------------------------------------------------------------
      1       14          -0.000000000   -0.000000000   -0.000000000
      2       14          -0.000000000   -0.000000000   -0.000000000
      3        1          -0.002073271    0.000115372   -0.000000622
      4        1           0.002070595    0.000056952   -0.000101956
      5        1          -0.002071601   -0.000056746    0.000101411
      6        1          -0.002070965   -0.000056523   -0.000102305
      7        1           0.002073333   -0.000115358    0.000000540
      8        1           0.002071999    0.000056281    0.000101812
 -------------------------------------------------------------------
 Cartesian Forces:  Max     0.002073333 RMS     0.001037607
 Leave Link  716 at Mon Apr 21 20:19:38 2025, MaxMem=   536870912 cpu:               0.7 elap:               0.1
 (Enter /home/szhao/Apps/g16/l103.exe)

 GradGradGradGradGradGradGradGradGradGradGradGradGradGradGradGradGradGrad
 Berny optimization.
 Using GEDIIS/GDIIS optimizer.
 FormGI is forming the generalized inverse of G from B-inverse, IUseBI=4.
 Internal  Forces:  Max     0.006215927 RMS     0.002293505
 Search for a local minimum.
 Step number   2 out of a maximum of   43
 All quantities printed in internal units (Hartrees-Bohrs-Radians)
 RMS Force = .18887D-02 SwitMx=.10000D-02 MixMth= 1
 Mixed Optimization -- RFO/linear search
 Update second derivatives using D2CorX and points    1    2
 DE= -2.14D-03 DEPred=-1.50D-03 R= 1.42D+00
 TightC=F SS=  1.41D+00  RLast= 1.35D-01 DXNew= 5.0454D-01 4.0379D-01
 Trust test= 1.42D+00 RLast= 1.35D-01 DXMaxT set to 4.04D-01
 ITU=  1  0
 Use linear search instead of GDIIS.
     Eigenvalues ---    0.00230   0.05991   0.05991   0.05991   0.05991
     Eigenvalues ---    0.08991   0.16000   0.16000   0.16000   0.16000
     Eigenvalues ---    0.16000   0.17703   0.17703   0.17703   0.17703
     Eigenvalues ---    0.17703   0.178201000.000001000.000001000.00000
     Eigenvalues --- 1000.000001000.000001000.000001000.000001000.00000
     Eigenvalues --- 1000.000001000.000001000.000001000.000001000.00000
     Eigenvalues --- 1000.000001000.000001000.00000
 RFO step:  Lambda=-2.16842381D-05 EMin= 2.30000000D-03
 Quartic linear search produced a step of  0.77893.
 Iteration  1 RMS(Cart)=  0.03727766 RMS(Int)=  0.00099328
 Iteration  2 RMS(Cart)=  0.00079277 RMS(Int)=  0.00076447
 Iteration  3 RMS(Cart)=  0.00000113 RMS(Int)=  0.00076447
 Iteration  4 RMS(Cart)=  0.00000000 RMS(Int)=  0.00076447
 ITry= 1 IFail=0 DXMaxC= 8.68D-02 DCOld= 1.00D+10 DXMaxT= 4.04D-01 DXLimC= 3.00D+00 Rises=F
 Variable       Old X    -DE/DX   Delta X   Delta X   Delta X     New X
                                 (Linear)    (Quad)   (Total)
    X1       -4.00588   0.00622   0.00000   0.00000   0.00000  -4.00588
    Y1        0.00000  -0.00000   0.00000   0.00000   0.00000   0.00000
    Z1        0.00000   0.00000   0.00000   0.00000   0.00000   0.00000
    X2        4.00588  -0.00622   0.00000   0.00000   0.00000   4.00588
    Y2        0.00000   0.00000   0.00000   0.00000   0.00000   0.00000
    Z2        0.00000  -0.00000   0.00000   0.00000   0.00000   0.00000
    R1        2.79582  -0.00075  -0.00295  -0.00453  -0.00749   2.78833
    R2        2.79580  -0.00075  -0.00296  -0.00452  -0.00748   2.78832
    R3        2.79582  -0.00075  -0.00295  -0.00454  -0.00749   2.78833
    R4        2.79580  -0.00075  -0.00296  -0.00452  -0.00748   2.78832
    R5        2.79582  -0.00075  -0.00295  -0.00454  -0.00749   2.78833
    R6        2.79582  -0.00075  -0.00295  -0.00453  -0.00749   2.78833
    A1        1.88456  -0.00286  -0.03041  -0.00007  -0.03165   1.85291
    A2        1.88464  -0.00287  -0.03040  -0.00013  -0.03171   1.85293
    A3        1.88468  -0.00286  -0.03042  -0.00009  -0.03169   1.85300
    A4        1.93591   0.00270   0.02995   0.00013   0.02873   1.96464
    A5        1.93592   0.00270   0.03001   0.00002   0.02867   1.96459
    A6        1.93589   0.00270   0.02997   0.00013   0.02875   1.96463
    A7        1.88464  -0.00287  -0.03040  -0.00013  -0.03171   1.85293
    A8        1.88468  -0.00286  -0.03042  -0.00009  -0.03168   1.85299
    A9        1.88456  -0.00286  -0.03040  -0.00007  -0.03165   1.85291
   A10        1.93590   0.00270   0.02995   0.00013   0.02873   1.96463
   A11        1.93589   0.00270   0.02998   0.00012   0.02875   1.96464
   A12        1.93592   0.00270   0.03001   0.00002   0.02867   1.96459
    D1        1.04733  -0.00000   0.00004  -0.00004  -0.00001   1.04733
    D2       -3.14143  -0.00000  -0.00001  -0.00000  -0.00001  -3.14144
    D3       -1.04702  -0.00000   0.00003  -0.00007  -0.00005  -1.04707
    D4       -3.14149   0.00000   0.00001  -0.00000   0.00001  -3.14147
    D5       -1.04706   0.00000  -0.00003   0.00004   0.00001  -1.04705
    D6        1.04735  -0.00000   0.00000  -0.00003  -0.00003   1.04732
    D7       -1.04708   0.00000   0.00001   0.00003   0.00003  -1.04705
    D8        1.04735   0.00000  -0.00004   0.00006   0.00003   1.04738
    D9       -3.14143  -0.00000  -0.00001  -0.00001  -0.00001  -3.14144
         Item               Value     Threshold  Converged?
 Maximum Force            0.002866     0.000450     NO 
 RMS     Force            0.001889     0.000300     NO 
 Maximum Displacement     0.086825     0.001800     NO 
 RMS     Displacement     0.037852     0.001200     NO 
 Predicted change in Energy=-5.353180D-04
 Lowest energy point so far.  Saving SCF results.
 GradGradGradGradGradGradGradGradGradGradGradGradGradGradGradGradGradGrad

 Leave Link  103 at Mon Apr 21 20:19:38 2025, MaxMem=   536870912 cpu:               0.9 elap:               0.2
 (Enter /home/szhao/Apps/g16/l202.exe)
                          Input orientation:                          
 ---------------------------------------------------------------------
 Center     Atomic      Atomic             Coordinates (Angstroms)
 Number     Number       Type             X           Y           Z
 ---------------------------------------------------------------------
      1         14           0       -2.119819    0.000000    0.000000
      2         14           0        2.119819    0.000000    0.000000
      3          1           0        2.530609   -1.417178   -0.000056
      4          1           0       -2.530578   -0.708489    1.227389
      5          1           0        2.530704    0.708661   -1.227247
      6          1           0        2.530587    0.708542    1.227355
      7          1           0       -2.530612    1.417177   -0.000112
      8          1           0       -2.530710   -0.708715   -1.227214
 ---------------------------------------------------------------------
                    Distance matrix (angstroms):
                    1          2          3          4          5
     1  Si   0.000000
     2  Si   4.239638   0.000000
     3  H    4.861571   1.475514   0.000000
     4  H    1.475521   4.861547   5.255899   0.000000
     5  H    4.861656   1.475521   2.454626   5.800873   0.000000
     6  H    4.861554   1.475521   2.454632   5.255794   2.454603
     7  H    1.475514   4.861574   5.800820   2.454631   5.255927
     8  H    1.475521   4.861661   5.255928   2.454602   5.256126
                    6          7          8
     6  H    0.000000
     7  H    5.255908   0.000000
     8  H    5.800883   2.454627   0.000000
 Symmetry turned off by external request.
 Stoichiometry    H6Si2
 Framework group  C1[X(H6Si2)]
 Deg. of freedom    18
 Full point group                 C1      NOp   1
 Rotational constants (GHZ):          41.6134228           1.7060152           1.7060142
 Leave Link  202 at Mon Apr 21 20:19:38 2025, MaxMem=   536870912 cpu:               0.4 elap:               0.1
 (Enter /home/szhao/Apps/g16/l301.exe)
 Standard basis: 6-311+G(d,p) (5D, 7F)
 Ernie: Thresh=  0.10000D-02 Tol=  0.10000D-05 Strict=F.
    96 basis functions,   148 primitive gaussians,    98 cartesian basis functions
    17 alpha electrons       17 beta electrons
       nuclear repulsion energy        65.9041986252 Hartrees.
 IExCor= 4336 DFT=T Ex+Corr=M062X ExCW=0 ScaHFX=  0.540000
 ScaDFX=  1.000000  1.000000  1.000000  1.000000 ScalE2=  1.000000  1.000000
 IRadAn=      7 IRanWt=     -1 IRanGd=            0 ICorTp=0 IEmpDi=  4
 NAtoms=    8 NActive=    8 NUniq=    8 SFac= 1.00D+00 NAtFMM=   60 NAOKFM=F Big=F
 Integral buffers will be    131072 words long.
 Raffenetti 2 integral format.
 Two-electron integral symmetry is turned off.
 Leave Link  301 at Mon Apr 21 20:19:38 2025, MaxMem=   536870912 cpu:               0.5 elap:               0.1
 (Enter /home/szhao/Apps/g16/l302.exe)
 NPDir=0 NMtPBC=     1 NCelOv=     1 NCel=       1 NClECP=     1 NCelD=      1
         NCelK=      1 NCelE2=     1 NClLst=     1 CellRange=     0.0.
 One-electron integrals computed using PRISM.
 NBasis=    96 RedAO= T EigKep=  7.41D-03  NBF=    96
 NBsUse=    96 1.00D-06 EigRej= -1.00D+00 NBFU=    96
 Precomputing XC quadrature grid using
 IXCGrd= 4 IRadAn=           7 IRanWt=          -1 IRanGd=           0 AccXCQ= 0.00D+00.
 Generated NRdTot=       0 NPtTot=           0 NUsed=           0 NTot=          32
 NSgBfM=    90    90    90    90    90 MxSgAt=     8 MxSgA2=     8.
 Leave Link  302 at Mon Apr 21 20:19:39 2025, MaxMem=   536870912 cpu:               2.2 elap:               0.3
 (Enter /home/szhao/Apps/g16/l303.exe)
 DipDrv:  MaxL=1.
 Leave Link  303 at Mon Apr 21 20:19:39 2025, MaxMem=   536870912 cpu:               0.6 elap:               0.1
 (Enter /home/szhao/Apps/g16/l401.exe)
 Initial guess from the checkpoint file:  "opt.chk"
 B after Tr=     0.000000    0.000000   -0.000004
         Rot=    1.000000   -0.000000   -0.000000    0.000000 Ang=  -0.00 deg.
 Guess basis will be translated and rotated to current coordinates.
 JPrj=2 DoOrth=T DoCkMO=T.
 Initial guess <Sx>= 0.0000 <Sy>= 0.0000 <Sz>= 0.0000 <S**2>=-0.0000 S=-0.0000
 Generating alternative initial guess.
 ExpMin= 3.31D-02 ExpMax= 6.94D+04 ExpMxC= 2.33D+03 IAcc=3 IRadAn=         5 AccDes= 0.00D+00
 Harris functional with IExCor= 1009 and IRadAn=       5 diagonalized for initial guess.
 HarFok:  IExCor= 1009 AccDes= 0.00D+00 IRadAn=         5 IDoV= 1 UseB2=F ITyADJ=14
 ICtDFT=  3500011 ScaDFX=  1.000000  1.000000  1.000000  1.000000
 FoFCou: FMM=F IPFlag=           0 FMFlag=      100000 FMFlg1=           0
         NFxFlg=           0 DoJE=T BraDBF=F KetDBF=T FulRan=T
         wScrn=  0.000000 ICntrl=       500 IOpCl=  0 I1Cent=   200000004 NGrid=           0
         NMat0=    1 NMatS0=      1 NMatT0=    0 NMatD0=    1 NMtDS0=    0 NMtDT0=    0
 Symmetry not used in FoFCou.
 Harris En= -582.098424316793    
 Leave Link  401 at Mon Apr 21 20:19:40 2025, MaxMem=   536870912 cpu:               4.2 elap:               0.6
 (Enter /home/szhao/Apps/g16/l502.exe)
 Keep R1 and R2 ints in memory in canonical form, NReq=29092346.
 FoFCou: FMM=F IPFlag=           0 FMFlag=           0 FMFlg1=           0
         NFxFlg=           0 DoJE=F BraDBF=F KetDBF=F FulRan=T
         wScrn=  0.000000 ICntrl=       600 IOpCl=  0 I1Cent=           0 NGrid=           0
         NMat0=    1 NMatS0=   4656 NMatT0=    0 NMatD0=    1 NMtDS0=    0 NMtDT0=    0
 Symmetry not used in FoFCou.
 Two-electron integral symmetry not used.
 UHF open shell SCF:
 Using DIIS extrapolation, IDIIS=  1040.
 NGot=   536870912 LenX=   515167018 LenY=   515156973
 Requested convergence on RMS density matrix=1.00D-08 within 128 cycles.
 Requested convergence on MAX density matrix=1.00D-06.
 Requested convergence on             energy=1.00D-06.
 No special actions if energy rises.

 Cycle   1  Pass 1  IDiag  1:
 E= -582.394700693207    
 DIIS: error= 2.09D-03 at cycle   1 NSaved=   1.
 NSaved= 1 IEnMin= 1 EnMin= -582.394700693207     IErMin= 1 ErrMin= 2.09D-03
 ErrMax= 2.09D-03  0.00D+00 EMaxC= 1.00D-01 BMatC= 5.77D-04 BMatP= 5.77D-04
 IDIUse=3 WtCom= 9.79D-01 WtEn= 2.09D-02
 Coeff-Com:  0.100D+01
 Coeff-En:   0.100D+01
 Coeff:      0.100D+01
 Gap=     0.400 Goal=   None    Shift=    0.000
 Gap=     0.400 Goal=   None    Shift=    0.000
 GapD=    0.400 DampG=1.000 DampE=1.000 DampFc=1.0000 IDamp=-1.
 RMSDP=2.10D-04 MaxDP=4.54D-03              OVMax= 1.15D-02

 Cycle   2  Pass 1  IDiag  1:
 E= -582.394978139068     Delta-E=       -0.000277445861 Rises=F Damp=F
 DIIS: error= 3.62D-04 at cycle   2 NSaved=   2.
 NSaved= 2 IEnMin= 2 EnMin= -582.394978139068     IErMin= 2 ErrMin= 3.62D-04
 ErrMax= 3.62D-04  0.00D+00 EMaxC= 1.00D-01 BMatC= 1.11D-05 BMatP= 5.77D-04
 IDIUse=3 WtCom= 9.96D-01 WtEn= 3.62D-03
 Coeff-Com: -0.948D-01 0.109D+01
 Coeff-En:   0.000D+00 0.100D+01
 Coeff:     -0.945D-01 0.109D+01
 Gap=     0.130 Goal=   None    Shift=    0.000
 Gap=     0.130 Goal=   None    Shift=    0.000
 RMSDP=7.61D-05 MaxDP=1.83D-03 DE=-2.77D-04 OVMax= 3.08D-03

 Cycle   3  Pass 1  IDiag  1:
 E= -582.394989214403     Delta-E=       -0.000011075335 Rises=F Damp=F
 DIIS: error= 5.98D-05 at cycle   3 NSaved=   3.
 NSaved= 3 IEnMin= 3 EnMin= -582.394989214403     IErMin= 3 ErrMin= 5.98D-05
 ErrMax= 5.98D-05  0.00D+00 EMaxC= 1.00D-01 BMatC= 5.77D-07 BMatP= 1.11D-05
 IDIUse=1 WtCom= 1.00D+00 WtEn= 0.00D+00
 Coeff-Com: -0.146D-01 0.464D-01 0.968D+00
 Coeff:     -0.146D-01 0.464D-01 0.968D+00
 Gap=     0.130 Goal=   None    Shift=    0.000
 Gap=     0.130 Goal=   None    Shift=    0.000
 RMSDP=2.21D-05 MaxDP=5.33D-04 DE=-1.11D-05 OVMax= 7.09D-04

 Cycle   4  Pass 1  IDiag  1:
 E= -582.394989652672     Delta-E=       -0.000000438269 Rises=F Damp=F
 DIIS: error= 1.23D-05 at cycle   4 NSaved=   4.
 NSaved= 4 IEnMin= 4 EnMin= -582.394989652672     IErMin= 4 ErrMin= 1.23D-05
 ErrMax= 1.23D-05  0.00D+00 EMaxC= 1.00D-01 BMatC= 9.70D-08 BMatP= 5.77D-07
 IDIUse=1 WtCom= 1.00D+00 WtEn= 0.00D+00
 Coeff-Com:  0.517D-02-0.888D-01 0.222D+00 0.862D+00
 Coeff:      0.517D-02-0.888D-01 0.222D+00 0.862D+00
 Gap=     0.130 Goal=   None    Shift=    0.000
 Gap=     0.130 Goal=   None    Shift=    0.000
 RMSDP=6.58D-06 MaxDP=1.66D-04 DE=-4.38D-07 OVMax= 1.97D-04

 Cycle   5  Pass 1  IDiag  1:
 E= -582.394989692571     Delta-E=       -0.000000039899 Rises=F Damp=F
 DIIS: error= 1.72D-06 at cycle   5 NSaved=   5.
 NSaved= 5 IEnMin= 5 EnMin= -582.394989692571     IErMin= 5 ErrMin= 1.72D-06
 ErrMax= 1.72D-06  0.00D+00 EMaxC= 1.00D-01 BMatC= 7.56D-10 BMatP= 9.70D-08
 IDIUse=1 WtCom= 1.00D+00 WtEn= 0.00D+00
 Coeff-Com: -0.421D-03 0.112D-01-0.502D-01-0.140D+00 0.118D+01
 Coeff:     -0.421D-03 0.112D-01-0.502D-01-0.140D+00 0.118D+01
 Gap=     0.130 Goal=   None    Shift=    0.000
 Gap=     0.130 Goal=   None    Shift=    0.000
 RMSDP=1.29D-06 MaxDP=3.33D-05 DE=-3.99D-08 OVMax= 4.47D-05

 Cycle   6  Pass 1  IDiag  1:
 E= -582.394989693607     Delta-E=       -0.000000001036 Rises=F Damp=F
 DIIS: error= 4.32D-07 at cycle   6 NSaved=   6.
 NSaved= 6 IEnMin= 6 EnMin= -582.394989693607     IErMin= 6 ErrMin= 4.32D-07
 ErrMax= 4.32D-07  0.00D+00 EMaxC= 1.00D-01 BMatC= 3.42D-11 BMatP= 7.56D-10
 IDIUse=1 WtCom= 1.00D+00 WtEn= 0.00D+00
 Coeff-Com: -0.205D-03 0.347D-02-0.104D-01-0.303D-01 0.179D+00 0.858D+00
 Coeff:     -0.205D-03 0.347D-02-0.104D-01-0.303D-01 0.179D+00 0.858D+00
 Gap=     0.130 Goal=   None    Shift=    0.000
 Gap=     0.130 Goal=   None    Shift=    0.000
 RMSDP=9.77D-08 MaxDP=2.01D-06 DE=-1.04D-09 OVMax= 3.69D-06

 Cycle   7  Pass 1  IDiag  1:
 E= -582.394989693630     Delta-E=       -0.000000000023 Rises=F Damp=F
 DIIS: error= 1.01D-07 at cycle   7 NSaved=   7.
 NSaved= 7 IEnMin= 7 EnMin= -582.394989693630     IErMin= 7 ErrMin= 1.01D-07
 ErrMax= 1.01D-07  0.00D+00 EMaxC= 1.00D-01 BMatC= 1.90D-12 BMatP= 3.42D-11
 IDIUse=1 WtCom= 1.00D+00 WtEn= 0.00D+00
 Coeff-Com:  0.158D-05-0.217D-03 0.136D-02 0.297D-02-0.643D-01 0.122D-01
 Coeff-Com:  0.105D+01
 Coeff:      0.158D-05-0.217D-03 0.136D-02 0.297D-02-0.643D-01 0.122D-01
 Coeff:      0.105D+01
 Gap=     0.130 Goal=   None    Shift=    0.000
 Gap=     0.130 Goal=   None    Shift=    0.000
 RMSDP=4.49D-08 MaxDP=8.68D-07 DE=-2.25D-11 OVMax= 2.23D-06

 Cycle   8  Pass 1  IDiag  1:
 E= -582.394989693631     Delta-E=       -0.000000000001 Rises=F Damp=F
 DIIS: error= 5.17D-08 at cycle   8 NSaved=   8.
 NSaved= 8 IEnMin= 8 EnMin= -582.394989693631     IErMin= 8 ErrMin= 5.17D-08
 ErrMax= 5.17D-08  0.00D+00 EMaxC= 1.00D-01 BMatC= 4.24D-13 BMatP= 1.90D-12
 IDIUse=1 WtCom= 1.00D+00 WtEn= 0.00D+00
 Coeff-Com:  0.347D-05-0.162D-03 0.875D-03 0.201D-02-0.365D-01-0.207D-02
 Coeff-Com:  0.552D+00 0.483D+00
 Coeff:      0.347D-05-0.162D-03 0.875D-03 0.201D-02-0.365D-01-0.207D-02
 Coeff:      0.552D+00 0.483D+00
 Gap=     0.130 Goal=   None    Shift=    0.000
 Gap=     0.130 Goal=   None    Shift=    0.000
 RMSDP=6.98D-09 MaxDP=1.65D-07 DE=-1.36D-12 OVMax= 6.89D-07

 SCF Done:  E(UM062X) =  -582.394989694     A.U. after    8 cycles
            NFock=  8  Conv=0.70D-08     -V/T= 2.0019
 <Sx>= 0.0000 <Sy>= 0.0000 <Sz>= 0.0000 <S**2>=-0.0000 S=-0.0000
 <L.S>=  0.00000000000    
 KE= 5.812754494070D+02 PE=-1.517911009236D+03 EE= 2.883363715106D+02
 Annihilation of the first spin contaminant:
 S**2 before annihilation    -0.0000,   after    -0.0000
 Leave Link  502 at Mon Apr 21 20:19:50 2025, MaxMem=   536870912 cpu:              74.4 elap:               9.8
 (Enter /home/szhao/Apps/g16/l701.exe)
 ... and contract with generalized density number  0.
 Compute integral first derivatives.
 Leave Link  701 at Mon Apr 21 20:19:51 2025, MaxMem=   536870912 cpu:               2.8 elap:               0.5
 (Enter /home/szhao/Apps/g16/l702.exe)
 L702 exits ... SP integral derivatives will be done elsewhere.
 Leave Link  702 at Mon Apr 21 20:19:51 2025, MaxMem=   536870912 cpu:               0.7 elap:               0.2
 (Enter /home/szhao/Apps/g16/l703.exe)
 Integral derivatives from FoFJK, PRISM(SPDF).
 Compute integral first derivatives, UseDBF=F ICtDFT=           0.
 Calling FoFJK, ICntrl=      2127 FMM=F ISym2X=0 I1Cent= 0 IOpClX= 1 NMat=1 NMatS=1 NMatT=0.
 FoFJK:  IHMeth= 1 ICntrl=    2127 DoSepK=F KAlg= 0 I1Cent=           0 FoldK=F
 IRaf=         0 NMat=       1 IRICut=       1 DoRegI=T DoRafI=F ISym2E= 0 IDoP0=0 IntGTp=1.
 FoFCou: FMM=F IPFlag=           0 FMFlag=      100000 FMFlg1=         800
         NFxFlg=           0 DoJE=F BraDBF=F KetDBF=F FulRan=T
         wScrn=  0.000000 ICntrl=      2127 IOpCl=  1 I1Cent=           0 NGrid=           0
         NMat0=    1 NMatS0=      1 NMatT0=    0 NMatD0=    1 NMtDS0=    0 NMtDT0=    0
 Symmetry not used in FoFCou.
 Leave Link  703 at Mon Apr 21 20:19:53 2025, MaxMem=   536870912 cpu:              15.3 elap:               2.0
 (Enter /home/szhao/Apps/g16/l716.exe)
 Dipole        = 3.40066231D-06-2.51809166D-07 1.35618165D-05
 -------------------------------------------------------------------
 Center     Atomic                   Forces (Hartrees/Bohr)
 Number     Number              X              Y              Z
 -------------------------------------------------------------------
      1       14          -0.000000000   -0.000000000   -0.000000000
      2       14          -0.000000000   -0.000000000   -0.000000000
      3        1          -0.000000048   -0.000073688    0.000000185
      4        1           0.000004467   -0.000039142    0.000062284
      5        1          -0.000005244    0.000039366   -0.000062393
      6        1          -0.000004503    0.000039114    0.000062361
      7        1           0.000000049    0.000073732    0.000000046
      8        1           0.000005224   -0.000039384   -0.000062548
 -------------------------------------------------------------------
 Cartesian Forces:  Max     0.000073732 RMS     0.000036911
 Leave Link  716 at Mon Apr 21 20:19:53 2025, MaxMem=   536870912 cpu:               0.4 elap:               0.1
 (Enter /home/szhao/Apps/g16/l103.exe)

 GradGradGradGradGradGradGradGradGradGradGradGradGradGradGradGradGradGrad
 Berny optimization.
 Using GEDIIS/GDIIS optimizer.
 FormGI is forming the generalized inverse of G from B-inverse, IUseBI=4.
 Internal  Forces:  Max     0.000070803 RMS     0.000036842
 Search for a local minimum.
 Step number   3 out of a maximum of   43
 All quantities printed in internal units (Hartrees-Bohrs-Radians)
 RMS Force = .40570D-04 SwitMx=.10000D-02 MixMth= 2
 Mixed Optimization -- En-DIIS/RFO-DIIS
 Update second derivatives using D2CorX and points    1    2    3
 DE= -5.27D-04 DEPred=-5.35D-04 R= 9.84D-01
 TightC=F SS=  1.41D+00  RLast= 1.06D-01 DXNew= 6.7909D-01 3.1899D-01
 Trust test= 9.84D-01 RLast= 1.06D-01 DXMaxT set to 4.04D-01
 ITU=  1  1  0
 Use linear search instead of GDIIS.
     Eigenvalues ---    0.00230   0.06323   0.06323   0.06323   0.06323
     Eigenvalues ---    0.09126   0.16000   0.16000   0.16000   0.16000
     Eigenvalues ---    0.16000   0.17703   0.17703   0.17703   0.17703
     Eigenvalues ---    0.17703   0.178201000.000001000.000001000.00000
     Eigenvalues --- 1000.000001000.000001000.000001000.000001000.00000
     Eigenvalues --- 1000.000001000.000001000.000001000.000001000.00000
     Eigenvalues --- 1000.000001000.000001000.00000
 RFO step:  Lambda=-2.11697507D-07 EMin= 2.30000000D-03
 Quartic linear search produced a step of  0.00931.
 Iteration  1 RMS(Cart)=  0.00047105 RMS(Int)=  0.00000362
 Iteration  2 RMS(Cart)=  0.00000018 RMS(Int)=  0.00000362
 ITry= 1 IFail=0 DXMaxC= 1.00D-03 DCOld= 1.00D+10 DXMaxT= 4.04D-01 DXLimC= 3.00D+00 Rises=F
 Variable       Old X    -DE/DX   Delta X   Delta X   Delta X     New X
                                 (Linear)    (Quad)   (Total)
    X1       -4.00588   0.00001   0.00000   0.00000   0.00000  -4.00588
    Y1        0.00000  -0.00001   0.00000   0.00000   0.00000   0.00000
    Z1        0.00000  -0.00000   0.00000   0.00000   0.00000   0.00000
    X2        4.00588  -0.00001   0.00000   0.00000   0.00000   4.00588
    Y2        0.00000   0.00001   0.00000   0.00000   0.00000   0.00000
    Z2        0.00000   0.00000   0.00000   0.00000   0.00000   0.00000
    R1        2.78833   0.00007  -0.00007   0.00043   0.00036   2.78869
    R2        2.78832   0.00007  -0.00007   0.00044   0.00037   2.78869
    R3        2.78833   0.00007  -0.00007   0.00043   0.00036   2.78869
    R4        2.78832   0.00007  -0.00007   0.00044   0.00037   2.78868
    R5        2.78833   0.00007  -0.00007   0.00043   0.00036   2.78869
    R6        2.78833   0.00007  -0.00007   0.00043   0.00036   2.78869
    A1        1.85291  -0.00004  -0.00029  -0.00010  -0.00040   1.85251
    A2        1.85293  -0.00003  -0.00030  -0.00000  -0.00030   1.85263
    A3        1.85300  -0.00004  -0.00029  -0.00011  -0.00041   1.85259
    A4        1.96464   0.00003   0.00027   0.00008   0.00034   1.96497
    A5        1.96459   0.00003   0.00027   0.00003   0.00029   1.96488
    A6        1.96463   0.00003   0.00027   0.00008   0.00034   1.96497
    A7        1.85293  -0.00003  -0.00030   0.00000  -0.00030   1.85263
    A8        1.85299  -0.00004  -0.00029  -0.00011  -0.00041   1.85258
    A9        1.85291  -0.00004  -0.00029  -0.00010  -0.00040   1.85251
   A10        1.96463   0.00003   0.00027   0.00008   0.00034   1.96497
   A11        1.96464   0.00003   0.00027   0.00008   0.00034   1.96498
   A12        1.96459   0.00003   0.00027   0.00003   0.00029   1.96488
    D1        1.04733  -0.00000  -0.00000  -0.00004  -0.00004   1.04729
    D2       -3.14144  -0.00000  -0.00000   0.00000  -0.00000  -3.14144
    D3       -1.04707  -0.00000  -0.00000  -0.00008  -0.00008  -1.04714
    D4       -3.14147   0.00000   0.00000   0.00000   0.00000  -3.14147
    D5       -1.04705   0.00000   0.00000   0.00004   0.00004  -1.04701
    D6        1.04732  -0.00000  -0.00000  -0.00003  -0.00004   1.04729
    D7       -1.04705   0.00000   0.00000   0.00004   0.00004  -1.04701
    D8        1.04738   0.00000   0.00000   0.00008   0.00008   1.04745
    D9       -3.14144  -0.00000  -0.00000  -0.00000  -0.00000  -3.14144
         Item               Value     Threshold  Converged?
 Maximum Force            0.000071     0.000450     YES
 RMS     Force            0.000041     0.000300     YES
 Maximum Displacement     0.001002     0.001800     YES
 RMS     Displacement     0.000471     0.001200     YES
 Predicted change in Energy=-1.507411D-07
 Optimization completed.
    -- Stationary point found.
                           ----------------------------
                           !   Optimized Parameters   !
                           ! (Angstroms and Degrees)  !
 --------------------------                            --------------------------
 ! Name  Definition              Value          Derivative Info.                !
 --------------------------------------------------------------------------------
 ! X1    R(1,-1)                -2.1198         -DE/DX =    0.0                 !
 ! Y1    R(1,-2)                 0.0            -DE/DX =    0.0                 !
 ! Z1    R(1,-3)                 0.0            -DE/DX =    0.0                 !
 ! X2    R(2,-1)                 2.1198         -DE/DX =    0.0                 !
 ! Y2    R(2,-2)                 0.0            -DE/DX =    0.0                 !
 ! Z2    R(2,-3)                 0.0            -DE/DX =    0.0                 !
 ! R1    R(1,4)                  1.4755         -DE/DX =    0.0001              !
 ! R2    R(1,7)                  1.4755         -DE/DX =    0.0001              !
 ! R3    R(1,8)                  1.4755         -DE/DX =    0.0001              !
 ! R4    R(2,3)                  1.4755         -DE/DX =    0.0001              !
 ! R5    R(2,5)                  1.4755         -DE/DX =    0.0001              !
 ! R6    R(2,6)                  1.4755         -DE/DX =    0.0001              !
 ! A1    A(2,1,4)              106.1637         -DE/DX =    0.0                 !
 ! A2    A(2,1,7)              106.1651         -DE/DX =    0.0                 !
 ! A3    A(2,1,8)              106.169          -DE/DX =    0.0                 !
 ! A4    A(4,1,7)              112.5654         -DE/DX =    0.0                 !
 ! A5    A(4,1,8)              112.563          -DE/DX =    0.0                 !
 ! A6    A(7,1,8)              112.5652         -DE/DX =    0.0                 !
 ! A7    A(1,2,3)              106.165          -DE/DX =    0.0                 !
 ! A8    A(1,2,5)              106.1688         -DE/DX =    0.0                 !
 ! A9    A(1,2,6)              106.164          -DE/DX =    0.0                 !
 ! A10   A(3,2,5)              112.565          -DE/DX =    0.0                 !
 ! A11   A(3,2,6)              112.5655         -DE/DX =    0.0                 !
 ! A12   A(5,2,6)              112.563          -DE/DX =    0.0                 !
 ! D1    D(4,1,2,3)             60.0073         -DE/DX =    0.0                 !
 ! D2    D(4,1,2,5)           -179.9911         -DE/DX =    0.0                 !
 ! D3    D(4,1,2,6)            -59.9924         -DE/DX =    0.0                 !
 ! D4    D(7,1,2,3)           -179.9932         -DE/DX =    0.0                 !
 ! D5    D(7,1,2,5)            -59.9916         -DE/DX =    0.0                 !
 ! D6    D(7,1,2,6)             60.0071         -DE/DX =    0.0                 !
 ! D7    D(8,1,2,3)            -59.9913         -DE/DX =    0.0                 !
 ! D8    D(8,1,2,5)             60.0103         -DE/DX =    0.0                 !
 ! D9    D(8,1,2,6)           -179.9911         -DE/DX =    0.0                 !
 --------------------------------------------------------------------------------
 Lowest energy point so far.  Saving SCF results.
 Largest change from initial coordinates is atom    5       0.105 Angstoms.
 GradGradGradGradGradGradGradGradGradGradGradGradGradGradGradGradGradGrad

 Leave Link  103 at Mon Apr 21 20:19:54 2025, MaxMem=   536870912 cpu:               1.8 elap:               0.4
 (Enter /home/szhao/Apps/g16/l202.exe)
                          Input orientation:                          
 ---------------------------------------------------------------------
 Center     Atomic      Atomic             Coordinates (Angstroms)
 Number     Number       Type             X           Y           Z
 ---------------------------------------------------------------------
      1         14           0       -2.119819    0.000000    0.000000
      2         14           0        2.119819    0.000000    0.000000
      3          1           0        2.530609   -1.417178   -0.000056
      4          1           0       -2.530578   -0.708489    1.227389
      5          1           0        2.530704    0.708661   -1.227247
      6          1           0        2.530587    0.708542    1.227355
      7          1           0       -2.530612    1.417177   -0.000112
      8          1           0       -2.530710   -0.708715   -1.227214
 ---------------------------------------------------------------------
                    Distance matrix (angstroms):
                    1          2          3          4          5
     1  Si   0.000000
     2  Si   4.239638   0.000000
     3  H    4.861571   1.475514   0.000000
     4  H    1.475521   4.861547   5.255899   0.000000
     5  H    4.861656   1.475521   2.454626   5.800873   0.000000
     6  H    4.861554   1.475521   2.454632   5.255794   2.454603
     7  H    1.475514   4.861574   5.800820   2.454631   5.255927
     8  H    1.475521   4.861661   5.255928   2.454602   5.256126
                    6          7          8
     6  H    0.000000
     7  H    5.255908   0.000000
     8  H    5.800883   2.454627   0.000000
 Symmetry turned off by external request.
 Stoichiometry    H6Si2
 Framework group  C1[X(H6Si2)]
 Deg. of freedom    18
 Full point group                 C1      NOp   1
 Rotational constants (GHZ):          41.6134228           1.7060152           1.7060142
 Leave Link  202 at Mon Apr 21 20:19:54 2025, MaxMem=   536870912 cpu:               0.2 elap:               0.1
 (Enter /home/szhao/Apps/g16/l601.exe)
 Copying SCF densities to generalized density rwf, IOpCl= 1 IROHF=0.

 **********************************************************************

            Population analysis using the SCF density.

 **********************************************************************

 Alpha  occ. eigenvalues --  -67.01807 -67.01807  -5.56679  -5.56678  -3.87909
 Alpha  occ. eigenvalues --   -3.87908  -3.87682  -3.87681  -3.87681  -3.87681
 Alpha  occ. eigenvalues --   -0.61112  -0.60690  -0.41996  -0.41995  -0.41884
 Alpha  occ. eigenvalues --   -0.41883  -0.22724
 Alpha virt. eigenvalues --   -0.09693   0.02112   0.02921   0.02921   0.03348
 Alpha virt. eigenvalues --    0.05162   0.05162   0.05805   0.06868   0.07389
 Alpha virt. eigenvalues --    0.07389   0.08791   0.08792   0.12573   0.16163
 Alpha virt. eigenvalues --    0.27818   0.27818   0.29325   0.30324   0.30324
 Alpha virt. eigenvalues --    0.30810   0.37696   0.40232   0.40232   0.40836
 Alpha virt. eigenvalues --    0.40836   0.45714   0.48348   0.54072   0.58470
 Alpha virt. eigenvalues --    0.58471   0.58698   0.58698   0.74149   0.74667
 Alpha virt. eigenvalues --    0.89769   0.89769   0.90169   0.90169   1.22568
 Alpha virt. eigenvalues --    1.22569   1.22608   1.22609   1.22663   1.27118
 Alpha virt. eigenvalues --    1.31429   1.31429   1.43386   1.43386   1.43417
 Alpha virt. eigenvalues --    1.43418   1.55227   1.55747   1.62436   1.62437
 Alpha virt. eigenvalues --    1.62988   1.62989   1.85938   1.87216   2.10509
 Alpha virt. eigenvalues --    2.10510   2.10654   2.10654   2.58984   2.58985
 Alpha virt. eigenvalues --    2.60423   2.60424   2.67681   2.70679   5.56741
 Alpha virt. eigenvalues --    5.62256  11.46876  11.50464  11.58723  11.58724
 Alpha virt. eigenvalues --   11.59566  11.59567 141.14865 141.21303
  Beta  occ. eigenvalues --  -67.01807 -67.01807  -5.56679  -5.56678  -3.87909
  Beta  occ. eigenvalues --   -3.87908  -3.87682  -3.87681  -3.87681  -3.87681
  Beta  occ. eigenvalues --   -0.61112  -0.60690  -0.41996  -0.41995  -0.41884
  Beta  occ. eigenvalues --   -0.41883  -0.22724
  Beta virt. eigenvalues --   -0.09693   0.02112   0.02921   0.02921   0.03348
  Beta virt. eigenvalues --    0.05162   0.05162   0.05805   0.06868   0.07389
  Beta virt. eigenvalues --    0.07389   0.08791   0.08792   0.12573   0.16163
  Beta virt. eigenvalues --    0.27818   0.27818   0.29325   0.30324   0.30324
  Beta virt. eigenvalues --    0.30810   0.37696   0.40232   0.40232   0.40836
  Beta virt. eigenvalues --    0.40836   0.45714   0.48348   0.54072   0.58470
  Beta virt. eigenvalues --    0.58471   0.58698   0.58698   0.74149   0.74667
  Beta virt. eigenvalues --    0.89769   0.89769   0.90169   0.90169   1.22568
  Beta virt. eigenvalues --    1.22569   1.22608   1.22609   1.22663   1.27118
  Beta virt. eigenvalues --    1.31429   1.31429   1.43386   1.43386   1.43417
  Beta virt. eigenvalues --    1.43418   1.55227   1.55747   1.62436   1.62437
  Beta virt. eigenvalues --    1.62988   1.62989   1.85938   1.87216   2.10509
  Beta virt. eigenvalues --    2.10510   2.10654   2.10654   2.58984   2.58985
  Beta virt. eigenvalues --    2.60423   2.60424   2.67681   2.70679   5.56741
  Beta virt. eigenvalues --    5.62256  11.46876  11.50464  11.58723  11.58724
  Beta virt. eigenvalues --   11.59566  11.59567 141.14865 141.21303
          Condensed to atoms (all electrons):
               1          2          3          4          5          6
     1  Si  12.500591   0.198489  -0.006037   0.349322  -0.006036  -0.006037
     2  Si   0.198489  12.500590   0.349324  -0.006037   0.349324   0.349322
     3  H   -0.006037   0.349324   0.790436   0.000072  -0.021773  -0.021772
     4  H    0.349322  -0.006037   0.000072   0.790442   0.000031   0.000072
     5  H   -0.006036   0.349324  -0.021773   0.000031   0.790440  -0.021775
     6  H   -0.006037   0.349322  -0.021772   0.000072  -0.021775   0.790441
     7  H    0.349324  -0.006037   0.000031  -0.021772   0.000072   0.000072
     8  H    0.349324  -0.006036   0.000072  -0.021775   0.000072   0.000031
               7          8
     1  Si   0.349324   0.349324
     2  Si  -0.006037  -0.006036
     3  H    0.000031   0.000072
     4  H   -0.021772  -0.021775
     5  H    0.000072   0.000072
     6  H    0.000072   0.000031
     7  H    0.790436  -0.021773
     8  H   -0.021773   0.790440
          Atomic-Atomic Spin Densities.
               1          2          3          4          5          6
     1  Si   0.000000  -0.000000  -0.000000  -0.000000  -0.000000  -0.000000
     2  Si  -0.000000  -0.000000   0.000000   0.000000   0.000000   0.000000
     3  H   -0.000000   0.000000  -0.000000   0.000000  -0.000000  -0.000000
     4  H   -0.000000   0.000000   0.000000   0.000000  -0.000000   0.000000
     5  H   -0.000000   0.000000  -0.000000  -0.000000  -0.000000  -0.000000
     6  H   -0.000000   0.000000  -0.000000   0.000000  -0.000000  -0.000000
     7  H   -0.000000   0.000000  -0.000000   0.000000   0.000000   0.000000
     8  H   -0.000000   0.000000   0.000000   0.000000   0.000000  -0.000000
               7          8
     1  Si  -0.000000  -0.000000
     2  Si   0.000000   0.000000
     3  H   -0.000000   0.000000
     4  H    0.000000   0.000000
     5  H    0.000000   0.000000
     6  H    0.000000  -0.000000
     7  H    0.000000   0.000000
     8  H    0.000000   0.000000
 Mulliken charges and spin densities:
               1          2
     1  Si   0.271060   0.000000
     2  Si   0.271061  -0.000000
     3  H   -0.090352  -0.000000
     4  H   -0.090354  -0.000000
     5  H   -0.090354   0.000000
     6  H   -0.090354   0.000000
     7  H   -0.090352   0.000000
     8  H   -0.090354   0.000000
 Sum of Mulliken charges =  -0.00000   0.00000
 Mulliken charges and spin densities with hydrogens summed into heavy atoms:
               1          2
     1  Si  -0.000000   0.000000
     2  Si   0.000000  -0.000000
 Electronic spatial extent (au):  <R**2>=            698.4393
 Charge=             -0.0000 electrons
 Dipole moment (field-independent basis, Debye):
    X=              0.0000    Y=             -0.0000    Z=              0.0000  Tot=              0.0000
 Quadrupole moment (field-independent basis, Debye-Ang):
   XX=            -28.4319   YY=            -32.1020   ZZ=            -32.1020
   XY=             -0.0002   XZ=              0.0000   YZ=              0.0000
 Traceless Quadrupole moment (field-independent basis, Debye-Ang):
   XX=              2.4467   YY=             -1.2233   ZZ=             -1.2234
   XY=             -0.0002   XZ=              0.0000   YZ=              0.0000
 Octapole moment (field-independent basis, Debye-Ang**2):
  XXX=              0.0001  YYY=              0.0000  ZZZ=             -0.0004  XYY=              0.0000
  XXY=              0.0000  XXZ=             -0.0002  XZZ=              0.0000  YZZ=              0.0000
  YYZ=              0.0002  XYZ=              0.0000
 Hexadecapole moment (field-independent basis, Debye-Ang**3):
 XXXX=           -947.8282 YYYY=            -87.3244 ZZZZ=            -87.3241 XXXY=             -0.0024
 XXXZ=              0.0001 YYYX=              2.2746 YYYZ=             -0.0000 ZZZX=              0.0002
 ZZZY=             -0.0000 XXYY=           -175.9295 XXZZ=           -175.9301 YYZZ=            -29.1080
 XXYZ=              0.0000 YYXZ=             -0.0001 ZZXY=             -2.2762
 N-N= 6.590419862523D+01 E-N=-1.517911009167D+03  KE= 5.812754494070D+02
                          Isotropic Fermi Contact Couplings
        Atom                 a.u.       MegaHertz       Gauss      10(-4) cm-1
     1  Si(29)             0.00000      -0.00000      -0.00000      -0.00000
     2  Si(29)            -0.00000       0.00000       0.00000       0.00000
     3  H(1)              -0.00000      -0.00000      -0.00000      -0.00000
     4  H(1)               0.00000       0.00000       0.00000       0.00000
     5  H(1)              -0.00000      -0.00000      -0.00000      -0.00000
     6  H(1)              -0.00000      -0.00000      -0.00000      -0.00000
     7  H(1)               0.00000       0.00000       0.00000       0.00000
     8  H(1)               0.00000       0.00000       0.00000       0.00000
 --------------------------------------------------------
       Center         ----  Spin Dipole Couplings  ----
                      3XX-RR        3YY-RR        3ZZ-RR
 --------------------------------------------------------
     1   Atom        0.000000     -0.000000     -0.000000
     2   Atom       -0.000000      0.000000      0.000000
     3   Atom       -0.000000     -0.000000      0.000000
     4   Atom        0.000000     -0.000000      0.000000
     5   Atom       -0.000000      0.000000     -0.000000
     6   Atom       -0.000000      0.000000     -0.000000
     7   Atom        0.000000      0.000000     -0.000000
     8   Atom        0.000000     -0.000000      0.000000
 --------------------------------------------------------
                        XY            XZ            YZ
 --------------------------------------------------------
     1   Atom       -0.000000      0.000000     -0.000000
     2   Atom        0.000000     -0.000000     -0.000000
     3   Atom        0.000000      0.000000     -0.000000
     4   Atom        0.000000     -0.000000     -0.000000
     5   Atom       -0.000000      0.000000      0.000000
     6   Atom       -0.000000     -0.000000     -0.000000
     7   Atom       -0.000000      0.000000     -0.000000
     8   Atom        0.000000      0.000000      0.000000
 --------------------------------------------------------


 ---------------------------------------------------------------------------------
              Anisotropic Spin Dipole Couplings in Principal Axis System
 ---------------------------------------------------------------------------------

       Atom             a.u.   MegaHertz   Gauss  10(-4) cm-1        Axes

              Baa    -0.0000     0.000     0.000     0.000  0.0000  1.0000  0.0039
     1 Si(29) Bbb    -0.0000     0.000     0.000     0.000 -0.0000 -0.0039  1.0000
              Bcc     0.0000    -0.000    -0.000    -0.000  1.0000 -0.0000  0.0000
 
              Baa    -0.0000     0.000     0.000     0.000  1.0000 -0.0001  0.0000
     2 Si(29) Bbb     0.0000    -0.000    -0.000    -0.000 -0.0000  0.0024  1.0000
              Bcc     0.0000    -0.000    -0.000    -0.000  0.0001  1.0000 -0.0024
 
              Baa    -0.0000    -0.000    -0.000    -0.000 -0.2820  0.9594  0.0004
     3 H(1)   Bbb    -0.0000    -0.000    -0.000    -0.000  0.9594  0.2820 -0.0000
              Bcc     0.0000     0.000     0.000     0.000  0.0001 -0.0004  1.0000
 
              Baa    -0.0000    -0.000    -0.000    -0.000 -0.0008  0.8653  0.5012
     4 H(1)   Bbb     0.0000     0.000     0.000     0.000  0.9612 -0.1376  0.2392
              Bcc     0.0000     0.000     0.000     0.000 -0.2759 -0.4820  0.8316
 
              Baa    -0.0000    -0.000    -0.000    -0.000 -0.2813 -0.4805  0.8307
     5 H(1)   Bbb    -0.0000    -0.000    -0.000    -0.000  0.9596 -0.1414  0.2432
              Bcc     0.0000     0.000     0.000     0.000  0.0006  0.8655  0.5009
 
              Baa    -0.0000    -0.000    -0.000    -0.000  0.2806  0.4807  0.8308
     6 H(1)   Bbb    -0.0000    -0.000    -0.000    -0.000  0.9598 -0.1406 -0.2428
              Bcc     0.0000     0.000     0.000     0.000  0.0001  0.8655 -0.5009
 
              Baa    -0.0000    -0.000    -0.000    -0.000 -0.0001  0.0001  1.0000
     7 H(1)   Bbb     0.0000     0.000     0.000     0.000  0.9614  0.2751  0.0001
              Bcc     0.0000     0.000     0.000     0.000 -0.2751  0.9614 -0.0001
 
              Baa    -0.0000    -0.000    -0.000    -0.000  0.0002  0.8663 -0.4996
     8 H(1)   Bbb     0.0000     0.000     0.000     0.000  0.9611 -0.1381 -0.2391
              Bcc     0.0000     0.000     0.000     0.000  0.2761  0.4801  0.8326
 

 ---------------------------------------------------------------------------------

 No NMR shielding tensors so no spin-rotation constants.
 Leave Link  601 at Mon Apr 21 20:19:55 2025, MaxMem=   536870912 cpu:               2.7 elap:               0.4
 (Enter /home/szhao/Apps/g16/l9999.exe)
 1\1\GINC-NODE06\FOpt\UM062X\6-311+G(d,p)\H6Si2\SZHAO\21-Apr-2025\0\\#p
  opt UM062X/6-311+G** nosymm int=superfine\\Title Card Required\\0,1\S
 i,-2.11981901,0.,0.\Si,2.11981901,0.,0.\H,2.5306086243,-1.4171776257,-
 0.0000558557\H,-2.5305783107,-0.7084888321,1.2273887336\H,2.5307037474
 ,0.7086611331,-1.227247345\H,2.5305867729,0.708541528,1.2273551603\H,-
 2.5306119626,1.4171766814,-0.0001120004\H,-2.5307097785,-0.7087154073,
 -1.2272136577\\Version=ES64L-G16RevA.03\HF=-582.3949897\S2=0.\S2-1=0.\
 S2A=0.\RMSD=6.980e-09\RMSF=3.691e-05\Dipole=0.0000034,-0.0000003,0.000
 0136\Quadrupole=1.8190985,-0.9095259,-0.9095726,-0.0001794,0.0000113,0
 .0000018\PG=C01 [X(H6Si2)]\\@


 WE ARE PERHAPS NOT FAR REMOVED FROM THE TIME WHEN WE SHALL BE ABLE TO SUBMIT
 THE BULK OF CHEMICAL PHENOMENA TO CALCULATION.

            -- JOSEPH LOUIS GAY-LUSSAC
               MEMOIRES DE LA SOCIETE D'ARCUEIL, 2, 207 (1808)
 Job cpu time:       0 days  0 hours  5 minutes 52.9 seconds.
 Elapsed time:       0 days  0 hours  0 minutes 49.4 seconds.
 File lengths (MBytes):  RWF=     22 Int=      0 D2E=      0 Chk=      3 Scr=      2
 Normal termination of Gaussian 16 at Mon Apr 21 20:19:55 2025.
