Title Card Required                                                     
FOpt      UM062X                                                      6-311+G(d,p)        
Number of atoms                            I                1
Info1-9                                    I   N=           9
          10          10           0           0           0         100
           2          18        -502
Full Title                                 C   N=           2
Title Card Required     
Route                                      C   N=           4
#p opt UM062X/6-311+G** nosymm int=superfine    
Charge                                     I                0
Multiplicity                               I                4
Number of electrons                        I                7
Number of alpha electrons                  I                5
Number of beta electrons                   I                2
Number of basis functions                  I               22
Number of independent functions            I               22
Number of point charges in /Mol/           I                0
Number of translation vectors              I                0
Atomic numbers                             I   N=           1
           7
Nuclear charges                            R   N=           1
  7.00000000E+00
Current cartesian coordinates              R   N=           3
  0.00000000E+00  0.00000000E+00  0.00000000E+00
Number of symbols in /Mol/                 I                0
Force Field                                I                0
Atom Types                                 C   N=           1
            
Int Atom Types                             I   N=           1
           0
MM charges                                 R   N=           1
  0.00000000E+00
Integer atomic weights                     I   N=           1
          14
Real atomic weights                        R   N=           1
  1.40030740E+01
Atom fragment info                         I   N=           1
           0
Atom residue num                           I   N=           1
           0
Nuclear spins                              I   N=           1
           2
Nuclear ZEff                               R   N=           1
 -4.55000000E+00
Nuclear ZNuc                               R   N=           1
  7.00000000E+00
Nuclear QMom                               R   N=           1
  2.04400000E+00
Nuclear GFac                               R   N=           1
  4.03761000E-01
MicOpt                                     I   N=           1
          -1
Number of residues                         I                0
Number of secondary structures             I                0
Number of contracted shells                I                6
Number of primitive shells                 I               13
Pure/Cartesian d shells                    I                0
Pure/Cartesian f shells                    I                0
Highest angular momentum                   I                2
Largest degree of contraction              I                6
Shell types                                I   N=           6
           0          -1          -1          -1          -1          -2
Number of primitives per shell             I   N=           6
           6           3           1           1           1           1
Shell to atom map                          I   N=           6
           1           1           1           1           1           1
Primitive exponents                        R   N=          13
  6.29348000E+03  9.49044000E+02  2.18776000E+02  6.36916000E+01  1.88282000E+01
  2.72023000E+00  3.06331000E+01  7.02614000E+00  2.11205000E+00  6.84009000E-01
  2.00878000E-01  6.39000000E-02  9.13000000E-01
Contraction coefficients                   R   N=          13
  1.96978815E-03  1.49612859E-02  7.35005308E-02  2.48936766E-01  6.02459433E-01
  2.56201759E-01  1.11906080E-01  9.21666655E-01 -2.56919183E-03  1.00000000E+00
  1.00000000E+00  1.00000000E+00  1.00000000E+00
P(S=P) Contraction coefficients            R   N=          13
  0.00000000E+00  0.00000000E+00  0.00000000E+00  0.00000000E+00  0.00000000E+00
  0.00000000E+00  3.83119186E-02  2.37403116E-01  8.17592398E-01  1.00000000E+00
  1.00000000E+00  1.00000000E+00  0.00000000E+00
Coordinates of each shell                  R   N=          18
  0.00000000E+00  0.00000000E+00  0.00000000E+00  0.00000000E+00  0.00000000E+00
  0.00000000E+00  0.00000000E+00  0.00000000E+00  0.00000000E+00  0.00000000E+00
  0.00000000E+00  0.00000000E+00  0.00000000E+00  0.00000000E+00  0.00000000E+00
  0.00000000E+00  0.00000000E+00  0.00000000E+00
Num ILSW                                   I              100
ILSW                                       I   N=         100
           1           0           0           0           2           0
           0           0           0           0        4336          -1
           7           0           0           0           2           0
           0           0           0           0           1           0
           1           1           0           0           0           0
           0           0      100000           0          -1           0
           0           0           0           0           0           0
           0           0           0           1           0           0
           0 -2000000000           1           0           0           0
           0           0           4          52           0           0
           0           0          55           0           0           0
           0           0           0           1           0           1
           0           0           0           0           0           0
           0           0           0           0           0           0
           0           0           0           0           0           0
           0           0           0           0           0           0
           0           0           0           0
Num RLSW                                   I               52
RLSW                                       R   N=          52
  1.00000000E+00  1.00000000E+00  1.00000000E+00  1.00000000E+00  5.40000000E-01
  0.00000000E+00  0.00000000E+00  1.00000000E+00  0.00000000E+00  0.00000000E+00
  0.00000000E+00  0.00000000E+00  1.00000000E+00  0.00000000E+00  0.00000000E+00
  0.00000000E+00  0.00000000E+00  1.00000000E+00  0.00000000E+00  0.00000000E+00
  0.00000000E+00  0.00000000E+00  1.00000000E+00  0.00000000E+00  0.00000000E+00
  0.00000000E+00  0.00000000E+00  1.00000000E+00  0.00000000E+00  0.00000000E+00
  0.00000000E+00  0.00000000E+00  1.00000000E+00  0.00000000E+00  0.00000000E+00
  0.00000000E+00  0.00000000E+00  0.00000000E+00  1.00000000E+00  1.00000000E+00
  0.00000000E+00  1.00000000E+00  0.00000000E+00  0.00000000E+00  0.00000000E+00
  0.00000000E+00  0.00000000E+00  0.00000000E+00  0.00000000E+00  0.00000000E+00
  0.00000000E+00  0.00000000E+00
MxBond                                     I                1
NBond                                      I   N=           1
           0
IBond                                      I   N=           1
           0
RBond                                      R   N=           1
  0.00000000E+00
Virial Ratio                               R      2.001486023466747E+00
SCF Energy                                 R     -5.458461868554642E+01
Total Energy                               R     -5.458461868554642E+01
S**2                                       R      3.754140778722105E+00
S**2 after annihilation                    R      3.750000000541367E+00
RMS Density                                R      1.170017179958010E-09
Job Status                                 I                1
Nuclear derivative order                   I                1
External E-field                           R   N=          35
  0.00000000E+00  0.00000000E+00  0.00000000E+00  0.00000000E+00  0.00000000E+00
  0.00000000E+00  0.00000000E+00  0.00000000E+00  0.00000000E+00  0.00000000E+00
  0.00000000E+00  0.00000000E+00  0.00000000E+00  0.00000000E+00  0.00000000E+00
  0.00000000E+00  0.00000000E+00  0.00000000E+00  0.00000000E+00  0.00000000E+00
  0.00000000E+00  0.00000000E+00  0.00000000E+00  0.00000000E+00  0.00000000E+00
  0.00000000E+00  0.00000000E+00  0.00000000E+00  0.00000000E+00  0.00000000E+00
  0.00000000E+00  0.00000000E+00  0.00000000E+00  0.00000000E+00  0.00000000E+00
IOpCl                                      I                1
IROHF                                      I                0
Alpha Orbital Energies                     R   N=          22
 -1.48487499E+01 -9.18070289E-01 -4.32985686E-01 -4.32985686E-01 -4.32985686E-01
  9.90720985E-02  1.25125778E-01  1.25125778E-01  1.25125778E-01  7.79174462E-01
  7.79174462E-01  7.79174462E-01  9.37481957E-01  1.93548104E+00  1.93548104E+00
  1.93548104E+00  1.93548104E+00  1.93548104E+00  3.76178254E+00  3.76178254E+00
  3.76178254E+00  3.52371740E+01
Beta Orbital Energies                      R   N=          22
 -1.48076295E+01 -6.89568088E-01 -6.28527349E-02 -6.28527349E-02 -6.28527349E-02
  6.57762864E-02  1.59905107E-01  1.59905107E-01  1.59905107E-01  8.17415526E-01
  8.17415526E-01  8.17415526E-01  9.87557742E-01  2.02948226E+00  2.02948226E+00
  2.02948226E+00  2.02948226E+00  2.02948226E+00  3.81941772E+00  3.81941772E+00
  3.81941772E+00  3.52392018E+01
Alpha MO coefficients                      R   N=         484
  5.58262512E-01  4.66157089E-01 -1.20015322E-15  1.27557413E-15 -5.90416128E-16
  1.00781716E-02  1.60467238E-15 -1.64318982E-15  6.86768935E-16 -4.06345016E-03
 -1.13201543E-15  1.03741442E-15 -3.70201252E-16  1.57244724E-03  4.89946319E-16
 -3.97694482E-16  1.58365164E-16 -5.37722556E-19  8.60758142E-20 -6.06810926E-19
  1.98348936E-18  1.90357934E-18 -1.29958689E-01 -2.15021673E-01  1.01776262E-16
 -5.50135620E-17  4.51267209E-17  6.35969376E-01 -7.87761680E-17 -1.15201451E-16
  2.44997807E-16  4.88250980E-01  2.03742911E-17 -2.80512209E-17 -8.79760728E-17
 -3.93735354E-03  3.14052716E-17  8.35294933E-18  6.50319804E-17  6.49917479E-17
  1.50417720E-17 -1.63537216E-18 -3.74456966E-17  2.68509895E-17  2.17195871E-17
  7.33957995E-17 -2.12909569E-01 -7.93955363E-02  2.20039682E-01 -4.69622260E-16
 -3.20513701E-01 -1.19521904E-01  3.31247360E-01  8.18811403E-16 -2.68110475E-01
 -9.99803581E-02  2.77089207E-01 -7.95468683E-16 -2.51269948E-02 -9.37004022E-03
  2.59684708E-02  3.14776497E-17  4.01484574E-17 -7.95928586E-17  5.61405294E-17
  3.61032520E-17 -3.24173402E-18 -2.34304207E-17  2.27251807E-01  3.61328768E-04
  2.20018370E-01  4.46988971E-16  3.42104481E-01  5.43943709E-04  3.31215277E-01
 -1.18444315E-15  2.86171214E-01  4.55010210E-04  2.77062369E-01  8.23429031E-16
  2.68196257E-02  4.26430156E-05  2.59659557E-02 -1.53965676E-17  2.43830272E-17
 -1.46179289E-17  1.13499069E-16 -1.22127222E-16 -7.25233956E-18  1.45083509E-17
 -5.54772846E-02  3.06182651E-01  5.67983507E-02 -2.23190243E-16 -8.35154091E-02
  4.60926838E-01  8.55041399E-02  4.43908322E-16 -6.98608389E-02  3.85566399E-01
  7.15244169E-02 -1.28823007E-16 -6.54727471E-03  3.61348243E-02  6.70318327E-03
 -1.75370362E-17 -3.63976993E-17  1.37585290E-16  1.08467784E-16 -1.56201524E-17
  3.81446477E-02  6.18018965E-02 -2.71407449E-17 -6.59184209E-18 -3.49694195E-17
 -1.44338434E-01 -1.19713197E-16 -7.44166862E-17  3.80261893E-18 -9.07198552E-01
 -1.47419236E-16  1.17897315E-18 -5.44406278E-17  1.53428975E+00  5.37179955E-16
 -4.63101026E-16  2.03379300E-16 -3.43123821E-17 -2.15669722E-17 -1.23479493E-17
  9.25245947E-17 -1.30587474E-17 -2.38562124E-18 -9.02658648E-18 -5.73745686E-04
 -1.03846855E-03 -1.11121484E-01 -1.64206917E-17 -4.24067860E-04 -7.67554593E-04
 -8.21322952E-02  2.14422413E-16 -2.51617115E-03 -4.55422093E-03 -4.87325099E-01
 -2.39126263E-16  6.41005449E-03  1.16020742E-02  1.24148170E+00 -9.65116920E-17
  3.81922929E-16  5.87012418E-16  8.15378304E-16  2.32255866E-16  1.51878438E-17
  2.50532224E-17 -1.09377941E-03 -1.11117530E-01  1.04407903E-03 -2.82995290E-17
 -8.08436048E-04 -8.21293723E-02  7.71701418E-04 -4.10438534E-16 -4.79678762E-03
 -4.87307757E-01  4.57882577E-03  6.04670123E-16  1.22200233E-02  1.24143752E+00
 -1.16647560E-02  3.14381146E-17 -3.27562690E-17 -2.89665808E-16 -2.05456427E-16
 -1.32611968E-16 -1.57913160E-17 -1.89945478E-17 -1.11120954E-01  1.09910759E-03
  5.63471407E-04 -1.23667293E-17 -8.21319030E-02  8.12374217E-04  4.16473918E-04
  5.45307907E-16 -4.87322772E-01  4.82015442E-03  2.47111313E-03 -7.75153095E-16
  1.24147577E+00 -1.22795512E-02 -6.29526724E-03  2.39988358E-17  7.60512808E-17
  4.53877815E-17  8.64125417E-17  5.42222144E-17 -3.23599242E-18  1.47989372E-18
  1.57403195E-02 -2.58863026E-01 -1.81029955E-02  1.57201419E-16  5.16101062E-02
 -8.48772370E-01 -5.93569606E-02 -3.60736753E-16 -9.90264779E-02  1.62857519E+00
  1.13890693E-01  2.62686295E-16  4.46061468E-02 -7.33586264E-01 -5.13016829E-02
 -2.67490771E-16 -2.07650425E-16  2.08457203E-17  2.24770984E-16 -5.44343099E-16
  1.42296205E-16  2.85434906E-16 -4.09153053E-02  1.54336383E-02 -2.56267990E-01
 -2.14671713E-15 -1.34155044E-01  5.06045455E-02 -8.40263645E-01  2.98875452E-15
  2.57408916E-01 -9.70970664E-02  1.61224914E+00 -1.33703532E-15 -1.15948988E-01
  4.37370498E-02 -7.26232250E-01 -7.25750554E-17  1.68505866E-16  1.75131231E-17
  8.08249630E-16  1.54231653E-16 -3.11057750E-17 -1.92434380E-17 -2.56249336E-01
 -1.83651549E-02  3.98062928E-02  1.00209329E-16 -8.40202481E-01 -6.02165410E-02
  1.30518761E-01  7.94897373E-17  1.61213178E+00  1.15540006E-01 -2.50431828E-01
 -2.64977625E-16 -7.26179387E-01 -5.20446104E-02  1.12806182E-01 -4.58170990E-16
 -4.57331226E-17 -2.49539413E-16  2.90429214E-17  5.23887343E-17  1.20769594E-01
  2.53223308E-01 -6.72001491E-16 -2.91254139E-16  6.85164672E-16 -1.84701106E+00
  4.31092004E-16  2.14431164E-16  8.20521433E-16  2.51197859E+00 -7.40973057E-16
  6.28261350E-17 -1.87388832E-15 -1.09065654E+00 -8.60667231E-17  9.26386541E-18
  8.46398457E-16 -2.74152321E-17  5.18358931E-18  1.23148497E-17  2.66163779E-16
 -4.41324274E-18 -1.25345341E-16 -1.80267554E-16 -1.05306941E-16  2.89997610E-16
  5.97978829E-16  9.98209585E-16  9.16795972E-17  1.95305908E-16  7.48664458E-16
  1.50843500E-16 -9.07245503E-16 -1.29533054E-15 -6.68380599E-16 -1.51639003E-15
  1.34379889E-16  1.69750234E-15 -6.70926283E-16 -1.22161886E-01 -1.02937977E-05
 -1.82409925E-05  9.92510188E-01 -2.46592615E-05  7.05925142E-18 -5.34575322E-17
 -1.19700429E-15  7.08897129E-16 -9.19097900E-20  2.56365690E-16  2.85430083E-16
 -1.78998778E-15  2.99491893E-16 -5.97563888E-16  1.08505040E-15  1.79485385E-15
 -1.23180417E-15  6.45885166E-16 -1.21958752E-15 -1.00746706E-15  3.67940759E-16
  9.92510179E-01 -8.81446302E-05 -8.60712134E-05  1.22161884E-01  5.95162662E-05
 -2.08421173E-19 -3.76606445E-18 -1.82977141E-15 -7.73197717E-16 -1.93885057E-15
  2.17546481E-17  9.95355576E-16  1.27173301E-15  2.69050559E-15 -4.52525387E-17
  1.85504630E-16 -1.77558198E-15 -9.44081057E-16  5.81993612E-17  2.38354514E-17
  9.06188894E-16 -5.34835293E-16  9.72224368E-05  7.30331034E-01 -9.33041086E-02
  1.01368482E-06 -6.76691152E-01 -1.38874486E-18 -6.11384302E-18 -5.52387011E-16
  8.53178730E-16  1.03576491E-15  4.00797871E-17 -1.03087953E-15 -6.16641654E-16
 -1.22500736E-15 -5.67623803E-17  1.57786922E-15 -9.02371740E-16  1.07793389E-15
  3.52526244E-17 -5.76633505E-16  1.79405860E-15 -1.04217079E-15  8.40954691E-05
 -1.45018191E-01  9.46868676E-01  1.91165322E-05 -2.87070423E-01 -3.82327356E-19
  4.17852347E-19  3.30378008E-16  4.49558119E-16  1.18276762E-15  3.67360588E-17
 -6.00836666E-16 -2.27319391E-15 -1.26315908E-15 -2.16961291E-16  6.32959589E-16
  2.37867517E-15  7.22880697E-16  2.89520024E-16 -1.08885841E-15 -3.27757742E-16
 -8.16508926E-16  4.10738855E-05  6.67522507E-01  3.07788964E-01  3.44805342E-05
  6.77996794E-01 -1.89527121E-16 -2.54809221E-16 -1.10866415E+00 -6.61996089E-01
 -4.75937153E-02  1.67426703E-15  1.34170183E+00  8.01145564E-01  5.75977631E-02
 -1.94779776E-15 -7.49725854E-01 -4.47669915E-01 -3.21848948E-02  1.01563669E-15
  2.57904202E-01  1.53997560E-01  1.10715398E-02 -7.18464386E-16 -9.87951496E-16
  8.11091999E-16 -5.09049980E-17  2.46720002E-15 -1.36761393E-16 -9.03872018E-17
  4.32960702E-01 -6.51134813E-01 -1.02869269E+00 -2.31321538E-16 -5.23967667E-01
  7.88001282E-01  1.24492063E+00  1.29640101E-15  2.92786444E-01 -4.40325058E-01
 -6.95645756E-01 -5.33050683E-16 -1.00717954E-01  1.51470944E-01  2.39300756E-01
  9.61181308E-16 -4.11077899E-16  1.70755030E-15  3.56590239E-16  1.63986445E-15
 -4.34467658E-18  1.20929985E-16  5.03039774E-01 -8.98568197E-01  7.80491097E-01
  1.89819562E-17 -6.08777137E-01  1.08744438E+00 -9.44547846E-01 -1.49386941E-15
  3.40176893E-01 -6.07650037E-01  5.27801280E-01 -7.67392863E-18 -1.17020174E-01
  2.09030404E-01 -1.81562590E-01  1.46447030E-15  1.11514321E-15 -4.67266190E-16
  5.68041073E-16 -1.42780529E-15 -2.14453440E+00  2.25348392E+00  3.74474316E-17
  3.25132188E-16  9.15439780E-17 -3.21925094E-01  6.78846124E-18 -7.57366320E-17
 -1.14143701E-16  2.74526397E-01 -2.83927296E-16  3.74515628E-17  3.80269413E-17
 -1.03572052E-01 -6.98048722E-17  2.72198906E-17 -1.03899139E-17  1.08426463E-17
  4.66465717E-22  2.09196368E-19  8.33100944E-18 -6.20897975E-19
Beta MO coefficients                       R   N=         484
  5.58889500E-01  4.66567254E-01  6.09762719E-16 -1.56193958E-16 -1.62057864E-15
  7.48020927E-03 -5.43562376E-16  5.90995509E-17  1.84085466E-15 -3.97270202E-03
  6.50574058E-17  8.42947623E-17 -9.83193234E-16  1.42042934E-03  7.25918505E-17
 -6.64859633E-17  3.74334360E-16 -5.09675465E-18  1.68436634E-17  4.66484954E-18
 -1.68657390E-18  2.19147009E-17 -1.24748484E-01 -1.98039202E-01 -1.24848889E-16
 -8.82094692E-17  2.94357481E-16  5.58711244E-01  2.17780394E-16 -2.01102666E-18
  1.94323071E-17  5.32080098E-01 -9.33421394E-17 -3.58443928E-17  1.07583135E-16
  3.68153378E-02  6.36436675E-17  1.71624601E-17  1.18475872E-17 -2.98178636E-17
  7.89069711E-17 -1.44399034E-16 -7.12269449E-17 -4.21216795E-17  6.84614725E-18
  8.62154099E-18  2.13832338E-01  1.05452108E-02 -9.57524322E-03  4.18517213E-17
  3.00886392E-01  1.48383097E-02 -1.34734551E-02 -3.74528826E-16  4.14871560E-01
  2.04595250E-02 -1.85776208E-02  3.44927190E-16  3.72524242E-01  1.83711533E-02
 -1.66813414E-02  8.51775072E-18  5.26263596E-17 -1.37010482E-18  3.99235364E-17
 -2.32590573E-17  9.71064698E-18  1.36379914E-17 -2.03697947E-03  1.65223220E-01
  1.36470852E-01 -1.35014625E-17 -2.86626154E-03  2.32487842E-01  1.92029994E-01
  5.01455629E-17 -3.95209097E-03  3.20561501E-01  2.64776956E-01 -2.20056437E-16
 -3.54868792E-03  2.87840724E-01  2.37750293E-01  4.58800752E-17 -7.98323885E-17
  1.35963776E-17  1.41139805E-16  6.75639861E-17  5.54353830E-18  1.76752067E-17
  1.40974277E-02 -1.36078071E-01  1.64958105E-01  4.94118325E-17  1.98366824E-02
 -1.91477306E-01  2.32114795E-01 -1.15345892E-16  2.73514375E-02 -2.64014892E-01
  3.20047132E-01 -2.98288710E-16  2.45595855E-02 -2.37066015E-01  2.87378858E-01
  4.55005417E-17 -9.61192958E-18 -1.90833595E-17 -2.90465286E-17  5.79344411E-17
  4.30068998E-02  6.71620654E-02  2.20944883E-16  2.28067218E-16 -1.12944242E-16
 -1.41966769E-01 -2.70514944E-16 -2.09269643E-16  1.01877351E-16 -9.79188013E-01
  1.52086588E-16  1.45475092E-16 -5.43568451E-17  1.55294334E+00  2.73485498E-16
 -2.68408262E-16  4.05266625E-16  5.82937071E-17  1.04202523E-18 -1.76477137E-17
  3.99226818E-17  4.14107933E-17 -2.19071622E-17 -3.92630874E-17 -1.82234065E-01
 -3.66539400E-04  1.41031905E-03  1.37360701E-16 -2.27439378E-01 -4.57463829E-04
  1.76016535E-03  3.17410307E-16 -6.58273438E-01 -1.32402880E-03  5.09441287E-03
 -5.51029691E-16  1.17855144E+00  2.37049828E-03 -9.12087176E-03  4.26838149E-17
 -7.93196788E-17  6.03192027E-17  2.70790326E-17  3.31562746E-17  2.69102055E-18
  1.34167716E-17  3.39817153E-04 -1.82206993E-01 -3.44587337E-03  2.38298345E-18
  4.24112812E-04 -2.27405590E-01 -4.30066298E-03 -2.68146227E-16  1.22750159E-03
 -6.58175647E-01 -1.24473265E-02  3.09434022E-16 -2.19767909E-03  1.17837636E+00
  2.22852902E-02 -1.90534538E-16 -2.24126188E-16 -8.15988314E-17  3.83708177E-17
  3.78649745E-17 -1.50463453E-17 -2.75729067E-17 -1.41699515E-03  3.44313344E-03
 -1.82201852E-01 -4.44996877E-17 -1.76849754E-03  4.29724337E-03 -2.27399174E-01
  5.06782681E-16 -5.11852856E-03  1.24374292E-02 -6.58157075E-01 -4.43089346E-16
  9.16404771E-03 -2.22675703E-02  1.17834311E+00  8.64227485E-17  2.43780305E-16
  3.90312791E-17 -3.25293577E-17 -2.12702867E-16 -8.33144970E-17 -1.45013652E-16
 -2.53775964E-01 -3.14665089E-02 -8.74401768E-03  1.03622137E-15 -9.58550853E-01
 -1.18853844E-01 -3.30274998E-02 -1.09502273E-15  1.58096231E+00  1.96028669E-01
  5.44730957E-02  1.98500383E-16 -7.44014688E-01 -9.22528060E-02 -2.56355152E-02
  1.10916184E-17  3.93607088E-16 -1.76851017E-16 -1.36994994E-16  2.27665072E-16
 -6.36261748E-17 -9.70110516E-17  2.68692500E-02 -2.40106855E-01  8.42352679E-02
  8.69483177E-16  1.01489290E-01 -9.06920527E-01  3.18169564E-01 -1.38179537E-15
 -1.67388869E-01  1.49580710E+00 -5.24765157E-01  7.41719745E-16  7.87746654E-02
 -7.03939901E-01  2.46959072E-01 -5.61749591E-16 -1.19222070E-16  1.23917438E-16
  3.36610992E-16 -3.79596449E-16  1.50922652E-16  3.08872115E-16  1.85645477E-02
 -8.26280569E-02 -2.41447304E-01 -2.30795445E-15  7.01211522E-02 -3.12098881E-01
 -9.11983608E-01  3.07196774E-15 -1.15652600E-01  5.14752624E-01  1.50415777E+00
 -1.27655674E-15  5.44271251E-02 -2.42247086E-01 -7.07869799E-01 -2.78585898E-16
 -6.45832181E-16  4.63123559E-17  1.74679465E-16 -3.05747035E-16  1.27853163E-01
  2.59718278E-01 -2.09165119E-16 -6.53170675E-17 -2.29594188E-18 -1.87158624E+00
 -1.34521967E-15  2.66623948E-17  1.99014684E-15  2.47563773E+00  7.37374345E-16
  1.28749882E-16 -2.49216030E-15 -1.06324485E+00 -7.02894326E-16 -1.07956022E-17
  1.11080752E-15 -6.52844978E-17 -1.73872809E-16 -8.34570666E-17  1.25997649E-16
  5.05454788E-16 -3.71764084E-17 -4.39476820E-17 -2.61536181E-16 -7.41815992E-16
 -1.19843541E-16  3.93340685E-16  7.91042663E-17  1.69244591E-15  2.81268064E-16
 -5.78959594E-16 -1.02689742E-16 -1.57878873E-15 -1.18354758E-15  3.79905877E-16
  1.71996527E-16  4.40603340E-16  1.33017047E-15  1.79304532E-01 -6.98010177E-05
 -1.85583375E-06  9.83793615E-01  5.08406464E-05  1.92449812E-17 -2.78545871E-17
  2.84241173E-16 -7.15447174E-16 -1.24764138E-16 -1.79910294E-16  3.31954007E-18
 -1.36663081E-15  5.15359568E-17  9.61809937E-16 -8.16040049E-17  2.48830693E-15
 -3.03536418E-16 -1.15825286E-15  8.56859620E-17 -1.42820551E-15 -4.46873887E-16
  9.83793618E-01  1.65731824E-06 -4.57689623E-05 -1.79304533E-01  1.24095067E-05
  1.22021299E-17  1.18907733E-17 -4.18042732E-16  9.22807026E-16 -6.47511627E-16
  1.17711295E-16  1.85775368E-16 -1.34603991E-15 -9.22796337E-17 -4.41817729E-16
 -1.94162620E-16  9.05730961E-16  1.01162904E-15  1.44120871E-16 -5.50340167E-16
  1.03456861E-17 -8.60774422E-16  2.71164873E-05  5.73585345E-01  6.76976491E-01
  1.31974158E-05  4.61197010E-01 -1.39408482E-16 -2.72574161E-16 -4.99965037E-16
  2.99683572E-16 -3.06310425E-17  1.85865017E-15  2.39264827E-16  2.21479129E-16
  7.03343224E-17 -2.00223004E-15  5.55878484E-16  1.74195200E-15 -1.81444557E-15
  3.80698507E-16 -4.22750576E-16 -2.08473343E-15  1.20209776E-15 -2.00633254E-05
 -6.71307696E-01  6.58432356E-02 -8.20002728E-05  7.38248358E-01  3.86465185E-17
  8.05842970E-17  9.52752049E-16 -8.24720460E-16  4.91816482E-17 -6.76435685E-16
 -1.98240864E-15  1.83510870E-15  5.78811425E-16  9.17629162E-16  2.11751787E-15
 -1.71044494E-15 -1.17441110E-15 -2.09233299E-16 -7.10630707E-16  9.21652776E-16
  3.76156734E-16  3.86380811E-05 -4.69410081E-01  7.33053543E-01 -1.35269819E-05
 -4.92226246E-01 -8.44418256E-17 -1.72168582E-18  6.84608426E-01 -9.74157243E-01
  5.36048784E-01  3.33074501E-17 -8.00081673E-01  1.13846883E+00 -6.26464401E-01
  6.96927227E-17  4.34777425E-01 -6.18662525E-01  3.40430969E-01 -3.87959982E-16
 -1.52660401E-01  2.17226709E-01 -1.19533180E-01 -3.70355041E-16  1.82312708E-15
 -3.18312894E-16 -7.28309310E-16  1.63025137E-15 -2.81283710E-17 -8.11012588E-17
 -3.85448513E-01 -7.98397406E-01 -9.58650278E-01  1.74648148E-15  4.50462307E-01
  9.33063497E-01  1.12034630E+00 -3.12752813E-15 -2.44788562E-01 -5.07041916E-01
 -6.08814446E-01  1.77436426E-15  8.59509209E-02  1.78034134E-01  2.13768821E-01
 -4.05020258E-16  3.29406782E-16 -1.99307604E-16 -8.73213711E-16  4.76184474E-16
 -9.64901714E-17  5.26611918E-17 -1.04295737E+00 -3.44381443E-01  7.06159101E-01
 -1.68913076E-15  1.21887351E+00  4.02468433E-01 -8.25267310E-01  3.42562380E-15
 -6.62355739E-01 -2.18707908E-01  4.48463711E-01 -1.54534629E-15  2.32568406E-01
  7.67934007E-02 -1.57465972E-01  1.10903066E-16  2.19457540E-16  8.36911150E-16
 -5.25015616E-16 -7.61983322E-16 -2.14417787E+00  2.25406282E+00  3.48570964E-17
  3.28349734E-16  9.27422620E-17 -3.24459549E-01  6.23001099E-18 -7.39069918E-17
 -1.15012759E-16  2.75861513E-01 -2.84562298E-16  3.72514127E-17  3.83067535E-17
 -1.04124239E-01 -6.98591882E-17  2.74090967E-17 -1.05388480E-17  1.06887183E-17
 -2.80319863E-20  3.33214202E-19  8.50320461E-18 -9.88265664E-19
Orthonormal basis                          R   N=         484
  2.37258796E-01  2.48792276E-01  0.00000000E+00  0.00000000E+00  0.00000000E+00
  3.14136421E-01  7.55130716E-20 -1.02708421E-20  6.39680561E-24  3.10357360E-01
  6.70523784E-20 -7.69291212E-21  4.81181027E-24  2.47131997E-01  4.49068655E-20
 -4.91236166E-21  3.06822212E-24  4.63819108E-35  0.00000000E+00  0.00000000E+00
  1.26945182E-17  0.00000000E+00 -2.48721325E-17  5.45910647E-18  2.58107962E-01
 -3.42786718E-02  2.96443694E-05  8.28624969E-17  3.72300318E-01 -4.94442725E-02
  4.27596577E-05 -7.97448524E-17  3.83008132E-01 -5.08663504E-02  4.39894780E-05
  1.02890753E-17  2.84720708E-01 -3.78130439E-02  3.27009123E-05  8.19250534E-33
  0.00000000E+00  0.00000000E+00  9.62092965E-17  0.00000000E+00 -1.98431522E-17
  3.07663908E-17  2.82521577E-02  2.12602469E-01 -1.47637239E-01 -3.31082810E-17
  4.07515026E-02  3.06662243E-01 -2.12955038E-01  2.43472331E-17  4.19235659E-02
  3.15482226E-01 -2.19079887E-01 -7.40749959E-19  3.11651538E-02  2.34523278E-01
 -1.62859676E-01  3.19216848E-21  0.00000000E+00  0.00000000E+00  6.49900828E-17
  0.00000000E+00 -9.31550195E-18  1.35960548E-17  1.94124652E-02  1.46355428E-01
  2.14471428E-01 -8.96168756E-18  2.80009454E-02  2.11106128E-01  3.09358068E-01
 -2.82894344E-18  2.88062869E-02  2.17177799E-01  3.18255586E-01  1.02048753E-17
  2.14140268E-02  1.61445702E-01  2.36584940E-01  6.09599510E-17  0.00000000E+00
  0.00000000E+00  3.40858629E-17  0.00000000E+00  4.42543018E-01  4.32319358E-01
  0.00000000E+00  0.00000000E+00  0.00000000E+00 -9.06604449E-02  2.96659564E-19
 -1.49915462E-20  3.39593634E-23 -3.14228116E-01  8.21614970E-19 -1.62547748E-19
  2.77541665E-22 -3.50226540E-01  8.65592862E-19 -1.77093532E-19  3.00528069E-22
 -2.40192456E-34  0.00000000E+00  0.00000000E+00 -2.49069134E-17  0.00000000E+00
  9.46343641E-17 -9.57883529E-17  5.72139500E-01 -1.84257206E-01 -7.44458513E-03
 -3.75022752E-17  2.98596525E-01 -9.61628439E-02 -3.88528890E-03  2.56489778E-17
 -2.82100523E-01  9.08503157E-02  3.67064563E-03  4.02948492E-17 -5.29622691E-01
  1.70564691E-01  6.89136339E-03  7.33616400E-18  0.00000000E+00  0.00000000E+00
  1.50327852E-16  0.00000000E+00 -2.80746849E-18  4.70527241E-18  2.55208059E-02
  5.50818247E-02  5.98050524E-01 -5.22168704E-18  1.33191712E-02  2.87469078E-02
  3.12119349E-01  1.68545863E-18 -1.25833520E-02 -2.71587813E-02 -2.94876277E-01
  2.63626824E-18 -2.36243047E-02 -5.09885862E-02 -5.53608215E-01 -3.82108474E-16
  0.00000000E+00  0.00000000E+00 -8.35232379E-17  0.00000000E+00  1.12869634E-17
 -1.57124192E-17  1.82633043E-01  5.69530528E-01 -6.02486274E-02  2.24543773E-17
  9.53152018E-02  2.97234917E-01 -3.14434343E-02 -5.00349124E-17 -9.00495017E-02
 -2.80814137E-01  2.97063379E-02  4.21601900E-17 -1.69061223E-01 -5.27207596E-01
  5.57714336E-02  2.96049827E-16  0.00000000E+00  0.00000000E+00  7.76525808E-16
  0.00000000E+00  0.00000000E+00  0.00000000E+00  0.00000000E+00  0.00000000E+00
  0.00000000E+00  0.00000000E+00  0.00000000E+00  0.00000000E+00  0.00000000E+00
  0.00000000E+00  0.00000000E+00  0.00000000E+00  0.00000000E+00  0.00000000E+00
  0.00000000E+00  0.00000000E+00  0.00000000E+00  0.00000000E+00  0.00000000E+00
  0.00000000E+00  0.00000000E+00  1.00000000E+00  0.00000000E+00  0.00000000E+00
  0.00000000E+00  0.00000000E+00  0.00000000E+00  0.00000000E+00  0.00000000E+00
  0.00000000E+00  0.00000000E+00  0.00000000E+00  0.00000000E+00  0.00000000E+00
  0.00000000E+00  0.00000000E+00  0.00000000E+00  0.00000000E+00  0.00000000E+00
  0.00000000E+00  0.00000000E+00  1.00000000E+00  0.00000000E+00  0.00000000E+00
  0.00000000E+00  0.00000000E+00  0.00000000E+00  0.00000000E+00  0.00000000E+00
  0.00000000E+00  0.00000000E+00  0.00000000E+00  0.00000000E+00  0.00000000E+00
  0.00000000E+00  0.00000000E+00  0.00000000E+00  0.00000000E+00  0.00000000E+00
  0.00000000E+00  0.00000000E+00  0.00000000E+00  1.00000000E+00  0.00000000E+00
  0.00000000E+00  0.00000000E+00  8.52384718E-18  1.62004990E-18 -5.55688196E-16
 -6.07084412E-16  1.31302375E-16  1.01902567E-18 -2.35922393E-16 -3.13984949E-16
  5.31208243E-17 -1.11538034E-17  7.92213680E-27  2.76688394E-16 -3.03212384E-17
 -4.85713389E-17  9.71445147E-17  4.19803081E-16 -9.80795331E-17  8.13576475E-03
  0.00000000E+00  0.00000000E+00  9.99966904E-01  0.00000000E+00 -6.93503107E-20
 -1.31807811E-20 -4.60228369E-17 -1.65783743E-16  2.52508153E-16 -8.29082749E-21
 -3.29597460E-17 -1.51964487E-16  1.59158629E-16  9.07477236E-20 -4.50182221E-29
  3.24379737E-17 -1.84709778E-16  3.95178066E-19  6.19621542E-17  9.63652443E-17
 -4.98036212E-16  9.99966904E-01  0.00000000E+00  0.00000000E+00 -8.13576475E-03
  0.00000000E+00 -3.08427338E-01 -1.57173734E-01 -1.55553492E-16  1.55553492E-16