 Entering Gaussian System, Link 0=g16
 Initial command:
 /home/szhao/Apps/g16/l1.exe "/home/szhao/tmp/Gau-149593.inp" -scrdir="/home/szhao/tmp/"
 Default is to use a total of  16 processors:
                               16 via shared-memory
                                1 via Linda
 Entering Link 1 = /home/szhao/Apps/g16/l1.exe PID=    149594.
  
 Copyright (c) 1988,1990,1992,1993,1995,1998,2003,2009,2016,
            Gaussian, Inc.  All Rights Reserved.
  
 This is part of the Gaussian(R) 16 program.  It is based on
 the Gaussian(R) 09 system (copyright 2009, Gaussian, Inc.),
 the Gaussian(R) 03 system (copyright 2003, Gaussian, Inc.),
 the Gaussian(R) 98 system (copyright 1998, Gaussian, Inc.),
 the Gaussian(R) 94 system (copyright 1995, Gaussian, Inc.),
 the Gaussian 92(TM) system (copyright 1992, Gaussian, Inc.),
 the Gaussian 90(TM) system (copyright 1990, Gaussian, Inc.),
 the Gaussian 88(TM) system (copyright 1988, Gaussian, Inc.),
 the Gaussian 86(TM) system (copyright 1986, Carnegie Mellon
 University), and the Gaussian 82(TM) system (copyright 1983,
 Carnegie Mellon University). Gaussian is a federally registered
 trademark of Gaussian, Inc.
  
 This software contains proprietary and confidential information,
 including trade secrets, belonging to Gaussian, Inc.
  
 This software is provided under written license and may be
 used, copied, transmitted, or stored only in accord with that
 written license.
  
 The following legend is applicable only to US Government
 contracts under FAR:
  
                    RESTRICTED RIGHTS LEGEND
  
 Use, reproduction and disclosure by the US Government is
 subject to restrictions as set forth in subparagraphs (a)
 and (c) of the Commercial Computer Software - Restricted
 Rights clause in FAR 52.227-19.
  
 Gaussian, Inc.
 340 Quinnipiac St., Bldg. 40, Wallingford CT 06492
  
  
 ---------------------------------------------------------------
 Warning -- This program may not be used in any manner that
 competes with the business of Gaussian, Inc. or will provide
 assistance to any competitor of Gaussian, Inc.  The licensee
 of this program is prohibited from giving any competitor of
 Gaussian, Inc. access to this program.  By using this program,
 the user acknowledges that Gaussian, Inc. is engaged in the
 business of creating and licensing software in the field of
 computational chemistry and represents and warrants to the
 licensee that it is not a competitor of Gaussian, Inc. and that
 it will not use this program in any manner prohibited above.
 ---------------------------------------------------------------
  

 Cite this work as:
 Gaussian 16, Revision A.03,
 M. J. Frisch, G. W. Trucks, H. B. Schlegel, G. E. Scuseria, 
 M. A. Robb, J. R. Cheeseman, G. Scalmani, V. Barone, 
 G. A. Petersson, H. Nakatsuji, X. Li, M. Caricato, A. V. Marenich, 
 J. Bloino, B. G. Janesko, R. Gomperts, B. Mennucci, H. P. Hratchian, 
 J. V. Ortiz, A. F. Izmaylov, J. L. Sonnenberg, D. Williams-Young, 
 F. Ding, F. Lipparini, F. Egidi, J. Goings, B. Peng, A. Petrone, 
 T. Henderson, D. Ranasinghe, V. G. Zakrzewski, J. Gao, N. Rega, 
 G. Zheng, W. Liang, M. Hada, M. Ehara, K. Toyota, R. Fukuda, 
 J. Hasegawa, M. Ishida, T. Nakajima, Y. Honda, O. Kitao, H. Nakai, 
 T. Vreven, K. Throssell, J. A. Montgomery, Jr., J. E. Peralta, 
 F. Ogliaro, M. J. Bearpark, J. J. Heyd, E. N. Brothers, K. N. Kudin, 
 V. N. Staroverov, T. A. Keith, R. Kobayashi, J. Normand, 
 K. Raghavachari, A. P. Rendell, J. C. Burant, S. S. Iyengar, 
 J. Tomasi, M. Cossi, J. M. Millam, M. Klene, C. Adamo, R. Cammi, 
 J. W. Ochterski, R. L. Martin, K. Morokuma, O. Farkas, 
 J. B. Foresman, and D. J. Fox, Gaussian, Inc., Wallingford CT, 2016.
 
 ******************************************
 Gaussian 16:  ES64L-G16RevA.03 25-Dec-2016
                21-Apr-2025 
 ******************************************
 %chk=opt.chk
 %mem=4GB
 %nprocshared=8
 Will use up to    8 processors via shared memory.
 --------------------------------------------
 #p opt UM062X/6-311+G** nosymm int=superfine
 --------------------------------------------
 1/18=20,19=15,26=5,38=1/1,3;
 2/9=110,12=2,15=1,17=6,18=5,40=1/2;
 3/5=4,6=6,7=111,11=2,25=1,30=1,71=1,74=-55,75=-7,116=2/1,2,3;
 4//1;
 5/5=2,38=5/2;
 6/7=2,8=2,9=2,10=2,28=1/1;
 7/30=1/1,2,3,16;
 1/18=20,19=15,26=5/3(2);
 2/9=110,15=1/2;
 99//99;
 2/9=110,15=1/2;
 3/5=4,6=6,7=111,11=2,25=1,30=1,71=1,74=-55,75=-7,116=2/1,2,3;
 4/5=5,16=3,69=1/1;
 5/5=2,38=5/2;
 7/30=1/1,2,3,16;
 1/18=20,19=15,26=5/3(-5);
 2/9=110,15=1/2;
 6/7=2,8=2,9=2,10=2,19=2,28=1/1;
 99/9=1/99;
 Leave Link    1 at Mon Apr 21 17:29:15 2025, MaxMem=   536870912 cpu:               1.6 elap:               0.2
 (Enter /home/szhao/Apps/g16/l101.exe)
 -------------------
 Title Card Required
 -------------------
 Symbolic Z-matrix:
 Charge =  0 Multiplicity = 3
 B                    -1   -1.97841   0.        0. 
 B                    -1    1.97841   0.        0. 
 H                    0    -3.15095  -0.00008   0. 
 H                    0     3.15095   0.00008   0. 
 
 Add virtual bond connecting atoms B2         and B1         Dist= 7.48D+00.
 ITRead=  2  2  0  0
 MicOpt= -2 -2 -1 -1
 NAtoms=      4 NQM=        2 NQMF=       2 NMMI=      0 NMMIF=      0
                NMic=       0 NMicF=      0.
                    Isotopes and Nuclear Properties:
 (Nuclear quadrupole moments (NQMom) in fm**2, nuclear magnetic moments (NMagM)
  in nuclear magnetons)

  Atom         1           2           3           4
 IAtWgt=          11          11           1           1
 AtmWgt=  11.0093053  11.0093053   1.0078250   1.0078250
 NucSpn=           3           3           1           1
 AtZEff=  -0.0000000  -0.0000000  -0.0000000  -0.0000000
 NQMom=    4.0590000   4.0590000   0.0000000   0.0000000
 NMagM=    2.6886370   2.6886370   2.7928460   2.7928460
 AtZNuc=   5.0000000   5.0000000   1.0000000   1.0000000
 Leave Link  101 at Mon Apr 21 17:29:16 2025, MaxMem=   536870912 cpu:               3.1 elap:               0.4
 (Enter /home/szhao/Apps/g16/l103.exe)

 GradGradGradGradGradGradGradGradGradGradGradGradGradGradGradGradGradGrad
 Berny optimization.
 Initialization pass.
                           ----------------------------
                           !    Initial Parameters    !
                           ! (Angstroms and Degrees)  !
 --------------------------                            --------------------------
 ! Name  Definition              Value          Derivative Info.                !
 --------------------------------------------------------------------------------
 ! X1    R(1,-1)                -1.9784         Frozen                          !
 ! Y1    R(1,-2)                 0.0            Frozen                          !
 ! Z1    R(1,-3)                 0.0            Frozen                          !
 ! X2    R(2,-1)                 1.9784         Frozen                          !
 ! Y2    R(2,-2)                 0.0            Frozen                          !
 ! Z2    R(2,-3)                 0.0            Frozen                          !
 ! R1    R(1,3)                  1.1725         estimate D2E/DX2                !
 ! R2    R(2,4)                  1.1725         estimate D2E/DX2                !
 ! A1    L(2,1,3,-3,-1)        179.9961         estimate D2E/DX2                !
 ! A2    L(1,2,4,-3,-1)        179.9961         estimate D2E/DX2                !
 ! A3    L(2,1,3,-2,-2)        180.0            estimate D2E/DX2                !
 ! A4    L(1,2,4,-2,-2)        180.0            estimate D2E/DX2                !
 --------------------------------------------------------------------------------
 Trust Radius=3.00D-01 FncErr=1.00D-07 GrdErr=1.00D-07 EigMax=2.50D+02 EigMin=1.00D-04
 Number of steps in this run=     22 maximum allowed number of steps=    100.
 GradGradGradGradGradGradGradGradGradGradGradGradGradGradGradGradGradGrad

 Leave Link  103 at Mon Apr 21 17:29:16 2025, MaxMem=   536870912 cpu:               0.3 elap:               0.1
 (Enter /home/szhao/Apps/g16/l202.exe)
                          Input orientation:                          
 ---------------------------------------------------------------------
 Center     Atomic      Atomic             Coordinates (Angstroms)
 Number     Number       Type             X           Y           Z
 ---------------------------------------------------------------------
      1          5           0       -1.978410    0.000000    0.000000
      2          5           0        1.978410    0.000000    0.000000
      3          1           0       -3.150953   -0.000080    0.000000
      4          1           0        3.150953    0.000080    0.000000
 ---------------------------------------------------------------------
                    Distance matrix (angstroms):
                    1          2          3          4
     1  B    0.000000
     2  B    3.956821   0.000000
     3  H    1.172542   5.129363   0.000000
     4  H    5.129363   1.172542   6.301906   0.000000
 Symmetry turned off by external request.
 Stoichiometry    B2H2(3)
 Framework group  C*V[C*(HBBH)]
 Deg. of freedom     3
 Full point group                 C*V     NOp   4
 Rotational constants (GHZ):           0.0000000           4.7589445           4.7589445
 Leave Link  202 at Mon Apr 21 17:29:16 2025, MaxMem=   536870912 cpu:               0.2 elap:               0.0
 (Enter /home/szhao/Apps/g16/l301.exe)
 Standard basis: 6-311+G(d,p) (5D, 7F)
 Ernie: Thresh=  0.10000D-02 Tol=  0.10000D-05 Strict=F.
    56 basis functions,    88 primitive gaussians,    58 cartesian basis functions
     7 alpha electrons        5 beta electrons
       nuclear repulsion energy         8.9721585668 Hartrees.
 IExCor= 4336 DFT=T Ex+Corr=M062X ExCW=0 ScaHFX=  0.540000
 ScaDFX=  1.000000  1.000000  1.000000  1.000000 ScalE2=  1.000000  1.000000
 IRadAn=      7 IRanWt=     -1 IRanGd=            0 ICorTp=0 IEmpDi=  4
 NAtoms=    4 NActive=    4 NUniq=    4 SFac= 1.00D+00 NAtFMM=   60 NAOKFM=F Big=F
 Integral buffers will be    131072 words long.
 Raffenetti 2 integral format.
 Two-electron integral symmetry is turned off.
 Leave Link  301 at Mon Apr 21 17:29:17 2025, MaxMem=   536870912 cpu:               0.4 elap:               0.1
 (Enter /home/szhao/Apps/g16/l302.exe)
 NPDir=0 NMtPBC=     1 NCelOv=     1 NCel=       1 NClECP=     1 NCelD=      1
         NCelK=      1 NCelE2=     1 NClLst=     1 CellRange=     0.0.
 One-electron integrals computed using PRISM.
 NBasis=    56 RedAO= T EigKep=  7.79D-03  NBF=    56
 NBsUse=    56 1.00D-06 EigRej= -1.00D+00 NBFU=    56
 Precomputing XC quadrature grid using
 IXCGrd= 4 IRadAn=           7 IRanWt=          -1 IRanGd=           0 AccXCQ= 0.00D+00.
 Generated NRdTot=       0 NPtTot=           0 NUsed=           0 NTot=          32
 NSgBfM=    58    58    58    58    58 MxSgAt=     4 MxSgA2=     4.
 Leave Link  302 at Mon Apr 21 17:29:17 2025, MaxMem=   536870912 cpu:               1.4 elap:               0.2
 (Enter /home/szhao/Apps/g16/l303.exe)
 DipDrv:  MaxL=1.
 Leave Link  303 at Mon Apr 21 17:29:17 2025, MaxMem=   536870912 cpu:               0.6 elap:               0.1
 (Enter /home/szhao/Apps/g16/l401.exe)
 ExpMin= 3.15D-02 ExpMax= 2.86D+03 ExpMxC= 4.28D+02 IAcc=3 IRadAn=         7 AccDes= 0.00D+00
 Harris functional with IExCor= 1009 and IRadAn=       7 diagonalized for initial guess.
 HarFok:  IExCor= 1009 AccDes= 0.00D+00 IRadAn=         7 IDoV= 1 UseB2=F ITyADJ=14
 ICtDFT=  3500011 ScaDFX=  1.000000  1.000000  1.000000  1.000000
 FoFCou: FMM=F IPFlag=           0 FMFlag=      100000 FMFlg1=           0
         NFxFlg=           0 DoJE=T BraDBF=F KetDBF=T FulRan=T
         wScrn=  0.000000 ICntrl=       500 IOpCl=  0 I1Cent=   200000004 NGrid=           0
         NMat0=    1 NMatS0=      1 NMatT0=    0 NMatD0=    1 NMtDS0=    0 NMtDT0=    0
 Symmetry not used in FoFCou.
 Harris En= -50.4148490326168    
 JPrj=0 DoOrth=F DoCkMO=F.
 Initial guess <Sx>= 0.0000 <Sy>= 0.0000 <Sz>= 1.0000 <S**2>= 2.0000 S= 1.0000
 Leave Link  401 at Mon Apr 21 17:29:18 2025, MaxMem=   536870912 cpu:               2.3 elap:               0.3
 (Enter /home/szhao/Apps/g16/l502.exe)
 Keep R1 and R2 ints in memory in canonical form, NReq=9624198.
 FoFCou: FMM=F IPFlag=           0 FMFlag=           0 FMFlg1=           0
         NFxFlg=           0 DoJE=F BraDBF=F KetDBF=F FulRan=T
         wScrn=  0.000000 ICntrl=       600 IOpCl=  0 I1Cent=           0 NGrid=           0
         NMat0=    1 NMatS0=   1596 NMatT0=    0 NMatD0=    1 NMtDS0=    0 NMtDT0=    0
 Symmetry not used in FoFCou.
 Two-electron integral symmetry not used.
 UHF open shell SCF:
 Using DIIS extrapolation, IDIIS=  1040.
 NGot=   536870912 LenX=   534314338 LenY=   534310533
 Requested convergence on RMS density matrix=1.00D-08 within 128 cycles.
 Requested convergence on MAX density matrix=1.00D-06.
 Requested convergence on             energy=1.00D-06.
 No special actions if energy rises.

 Cycle   1  Pass 1  IDiag  1:
 E= -50.4652785393573    
 DIIS: error= 1.50D-02 at cycle   1 NSaved=   1.
 NSaved= 1 IEnMin= 1 EnMin= -50.4652785393573     IErMin= 1 ErrMin= 1.50D-02
 ErrMax= 1.50D-02  0.00D+00 EMaxC= 1.00D-01 BMatC= 4.20D-02 BMatP= 4.20D-02
 IDIUse=3 WtCom= 8.50D-01 WtEn= 1.50D-01
 Coeff-Com:  0.100D+01
 Coeff-En:   0.100D+01
 Coeff:      0.100D+01
 Gap=     0.118 Goal=   None    Shift=    0.000
 Gap=     0.121 Goal=   None    Shift=    0.000
 GapD=    0.118 DampG=1.000 DampE=0.500 DampFc=0.5000 IDamp=-1.
 Damping current iteration by 5.00D-01
 RMSDP=2.63D-03 MaxDP=4.04D-02              OVMax= 8.24D-02

 Cycle   2  Pass 1  IDiag  1:
 E= -50.4707064975770     Delta-E=       -0.005427958220 Rises=F Damp=T
 DIIS: error= 8.49D-03 at cycle   2 NSaved=   2.
 NSaved= 2 IEnMin= 2 EnMin= -50.4707064975770     IErMin= 2 ErrMin= 8.49D-03
 ErrMax= 8.49D-03  0.00D+00 EMaxC= 1.00D-01 BMatC= 1.04D-02 BMatP= 4.20D-02
 IDIUse=3 WtCom= 9.15D-01 WtEn= 8.49D-02
 Coeff-Com: -0.940D+00 0.194D+01
 Coeff-En:   0.000D+00 0.100D+01
 Coeff:     -0.860D+00 0.186D+01
 Gap=     0.076 Goal=   None    Shift=    0.000
 Gap=     0.121 Goal=   None    Shift=    0.000
 RMSDP=1.65D-03 MaxDP=2.73D-02 DE=-5.43D-03 OVMax= 1.48D-02

 Cycle   3  Pass 1  IDiag  1:
 E= -50.4767283608466     Delta-E=       -0.006021863270 Rises=F Damp=F
 DIIS: error= 8.97D-04 at cycle   3 NSaved=   3.
 NSaved= 3 IEnMin= 3 EnMin= -50.4767283608466     IErMin= 3 ErrMin= 8.97D-04
 ErrMax= 8.97D-04  0.00D+00 EMaxC= 1.00D-01 BMatC= 7.47D-05 BMatP= 1.04D-02
 IDIUse=3 WtCom= 9.91D-01 WtEn= 8.97D-03
 Coeff-Com:  0.890D-01-0.222D+00 0.113D+01
 Coeff-En:   0.000D+00 0.000D+00 0.100D+01
 Coeff:      0.882D-01-0.220D+00 0.113D+01
 Gap=     0.076 Goal=   None    Shift=    0.000
 Gap=     0.122 Goal=   None    Shift=    0.000
 RMSDP=2.38D-04 MaxDP=4.16D-03 DE=-6.02D-03 OVMax= 7.97D-03

 Cycle   4  Pass 1  IDiag  1:
 E= -50.4768054385199     Delta-E=       -0.000077077673 Rises=F Damp=F
 DIIS: error= 2.60D-04 at cycle   4 NSaved=   4.
 NSaved= 4 IEnMin= 4 EnMin= -50.4768054385199     IErMin= 4 ErrMin= 2.60D-04
 ErrMax= 2.60D-04  0.00D+00 EMaxC= 1.00D-01 BMatC= 5.20D-06 BMatP= 7.47D-05
 IDIUse=3 WtCom= 9.97D-01 WtEn= 2.60D-03
 Coeff-Com:  0.416D-01-0.821D-01-0.186D+00 0.123D+01
 Coeff-En:   0.000D+00 0.000D+00 0.000D+00 0.100D+01
 Coeff:      0.414D-01-0.819D-01-0.185D+00 0.123D+01
 Gap=     0.076 Goal=   None    Shift=    0.000
 Gap=     0.122 Goal=   None    Shift=    0.000
 RMSDP=8.02D-05 MaxDP=1.31D-03 DE=-7.71D-05 OVMax= 2.67D-03

 Cycle   5  Pass 1  IDiag  1:
 E= -50.4768124110858     Delta-E=       -0.000006972566 Rises=F Damp=F
 DIIS: error= 5.79D-05 at cycle   5 NSaved=   5.
 NSaved= 5 IEnMin= 5 EnMin= -50.4768124110858     IErMin= 5 ErrMin= 5.79D-05
 ErrMax= 5.79D-05  0.00D+00 EMaxC= 1.00D-01 BMatC= 2.15D-07 BMatP= 5.20D-06
 IDIUse=1 WtCom= 1.00D+00 WtEn= 0.00D+00
 Coeff-Com: -0.140D-01 0.284D-01 0.503D-02-0.267D+00 0.125D+01
 Coeff:     -0.140D-01 0.284D-01 0.503D-02-0.267D+00 0.125D+01
 Gap=     0.076 Goal=   None    Shift=    0.000
 Gap=     0.122 Goal=   None    Shift=    0.000
 RMSDP=1.38D-05 MaxDP=2.22D-04 DE=-6.97D-06 OVMax= 5.66D-04

 Cycle   6  Pass 1  IDiag  1:
 E= -50.4768126720865     Delta-E=       -0.000000261001 Rises=F Damp=F
 DIIS: error= 1.54D-05 at cycle   6 NSaved=   6.
 NSaved= 6 IEnMin= 6 EnMin= -50.4768126720865     IErMin= 6 ErrMin= 1.54D-05
 ErrMax= 1.54D-05  0.00D+00 EMaxC= 1.00D-01 BMatC= 1.63D-08 BMatP= 2.15D-07
 IDIUse=1 WtCom= 1.00D+00 WtEn= 0.00D+00
 Coeff-Com: -0.165D-02 0.314D-02 0.540D-02-0.253D-01-0.190D+00 0.121D+01
 Coeff:     -0.165D-02 0.314D-02 0.540D-02-0.253D-01-0.190D+00 0.121D+01
 Gap=     0.076 Goal=   None    Shift=    0.000
 Gap=     0.122 Goal=   None    Shift=    0.000
 RMSDP=3.13D-06 MaxDP=7.43D-05 DE=-2.61D-07 OVMax= 1.69D-04

 Cycle   7  Pass 1  IDiag  1:
 E= -50.4768126899185     Delta-E=       -0.000000017832 Rises=F Damp=F
 DIIS: error= 3.76D-06 at cycle   7 NSaved=   7.
 NSaved= 7 IEnMin= 7 EnMin= -50.4768126899185     IErMin= 7 ErrMin= 3.76D-06
 ErrMax= 3.76D-06  0.00D+00 EMaxC= 1.00D-01 BMatC= 1.18D-09 BMatP= 1.63D-08
 IDIUse=1 WtCom= 1.00D+00 WtEn= 0.00D+00
 Coeff-Com:  0.266D-03-0.616D-03 0.968D-03 0.792D-02-0.113D+00 0.197D+00
 Coeff-Com:  0.907D+00
 Coeff:      0.266D-03-0.616D-03 0.968D-03 0.792D-02-0.113D+00 0.197D+00
 Coeff:      0.907D+00
 Gap=     0.076 Goal=   None    Shift=    0.000
 Gap=     0.122 Goal=   None    Shift=    0.000
 RMSDP=7.91D-07 MaxDP=1.47D-05 DE=-1.78D-08 OVMax= 2.72D-05

 Cycle   8  Pass 1  IDiag  1:
 E= -50.4768126906952     Delta-E=       -0.000000000777 Rises=F Damp=F
 DIIS: error= 6.32D-07 at cycle   8 NSaved=   8.
 NSaved= 8 IEnMin= 8 EnMin= -50.4768126906952     IErMin= 8 ErrMin= 6.32D-07
 ErrMax= 6.32D-07  0.00D+00 EMaxC= 1.00D-01 BMatC= 2.51D-11 BMatP= 1.18D-09
 IDIUse=1 WtCom= 1.00D+00 WtEn= 0.00D+00
 Coeff-Com:  0.544D-04-0.954D-04-0.291D-03 0.110D-02 0.134D-01-0.563D-01
 Coeff-Com: -0.653D-01 0.111D+01
 Coeff:      0.544D-04-0.954D-04-0.291D-03 0.110D-02 0.134D-01-0.563D-01
 Coeff:     -0.653D-01 0.111D+01
 Gap=     0.076 Goal=   None    Shift=    0.000
 Gap=     0.122 Goal=   None    Shift=    0.000
 RMSDP=1.08D-07 MaxDP=1.74D-06 DE=-7.77D-10 OVMax= 3.00D-06

 Cycle   9  Pass 1  IDiag  1:
 E= -50.4768126907157     Delta-E=       -0.000000000020 Rises=F Damp=F
 DIIS: error= 1.28D-07 at cycle   9 NSaved=   9.
 NSaved= 9 IEnMin= 9 EnMin= -50.4768126907157     IErMin= 9 ErrMin= 1.28D-07
 ErrMax= 1.28D-07  0.00D+00 EMaxC= 1.00D-01 BMatC= 2.19D-12 BMatP= 2.51D-11
 IDIUse=1 WtCom= 1.00D+00 WtEn= 0.00D+00
 Coeff-Com: -0.945D-05 0.126D-04 0.169D-03-0.439D-03-0.659D-02 0.279D-01
 Coeff-Com:  0.217D-01-0.587D+00 0.154D+01
 Coeff:     -0.945D-05 0.126D-04 0.169D-03-0.439D-03-0.659D-02 0.279D-01
 Coeff:      0.217D-01-0.587D+00 0.154D+01
 Gap=     0.076 Goal=   None    Shift=    0.000
 Gap=     0.122 Goal=   None    Shift=    0.000
 RMSDP=3.36D-08 MaxDP=4.07D-07 DE=-2.05D-11 OVMax= 1.30D-06

 Cycle  10  Pass 1  IDiag  1:
 E= -50.4768126907179     Delta-E=       -0.000000000002 Rises=F Damp=F
 DIIS: error= 4.61D-08 at cycle  10 NSaved=  10.
 NSaved=10 IEnMin=10 EnMin= -50.4768126907179     IErMin=10 ErrMin= 4.61D-08
 ErrMax= 4.61D-08  0.00D+00 EMaxC= 1.00D-01 BMatC= 1.03D-13 BMatP= 2.19D-12
 IDIUse=1 WtCom= 1.00D+00 WtEn= 0.00D+00
 Coeff-Com:  0.321D-05-0.547D-05-0.220D-04 0.668D-04 0.103D-02-0.494D-02
 Coeff-Com: -0.185D-02 0.110D+00-0.376D+00 0.127D+01
 Coeff:      0.321D-05-0.547D-05-0.220D-04 0.668D-04 0.103D-02-0.494D-02
 Coeff:     -0.185D-02 0.110D+00-0.376D+00 0.127D+01
 Gap=     0.076 Goal=   None    Shift=    0.000
 Gap=     0.122 Goal=   None    Shift=    0.000
 RMSDP=1.00D-08 MaxDP=1.04D-07 DE=-2.21D-12 OVMax= 6.54D-07

 SCF Done:  E(UM062X) =  -50.4768126907     A.U. after   10 cycles
            NFock= 10  Conv=0.10D-07     -V/T= 2.0050
 <Sx>= 0.0000 <Sy>= 0.0000 <Sz>= 1.0000 <S**2>= 2.0223 S= 1.0074
 <L.S>=  0.00000000000    
 KE= 5.022461774219D+01 PE=-1.339294511999D+02 EE= 2.425586220012D+01
 Annihilation of the first spin contaminant:
 S**2 before annihilation     2.0223,   after     2.0000
 Leave Link  502 at Mon Apr 21 17:29:21 2025, MaxMem=   536870912 cpu:              27.9 elap:               3.6
 (Enter /home/szhao/Apps/g16/l601.exe)
 Copying SCF densities to generalized density rwf, IOpCl= 1 IROHF=0.

 **********************************************************************

            Population analysis using the SCF density.

 **********************************************************************

 Alpha  occ. eigenvalues --   -7.14129  -7.14128  -0.57533  -0.57374  -0.33416
 Alpha  occ. eigenvalues --   -0.30827  -0.17741
 Alpha virt. eigenvalues --   -0.10170  -0.06373  -0.05454   0.02652   0.02847
 Alpha virt. eigenvalues --    0.05708   0.06990   0.07122   0.07954   0.08120
 Alpha virt. eigenvalues --    0.11500   0.17251   0.22711   0.32930   0.39581
 Alpha virt. eigenvalues --    0.40082   0.40241   0.41994   0.42647   0.42997
 Alpha virt. eigenvalues --    0.55448   0.60799   0.63181   0.80158   0.80235
 Alpha virt. eigenvalues --    0.80505   0.80758   0.83661   0.83747   0.84416
 Alpha virt. eigenvalues --    0.84500   1.11492   1.15081   1.66588   1.66778
 Alpha virt. eigenvalues --    1.66984   1.67206   1.80694   1.81720   1.82488
 Alpha virt. eigenvalues --    1.83132   1.84177   1.94257   2.33317   2.37985
 Alpha virt. eigenvalues --    2.60924   2.61097  14.21378  14.23900
  Beta  occ. eigenvalues --   -7.13219  -7.13218  -0.54297  -0.54175  -0.23599
  Beta virt. eigenvalues --   -0.11378  -0.04490  -0.03971  -0.03161  -0.02622
  Beta virt. eigenvalues --    0.01885   0.02410   0.07078   0.07345   0.07996
  Beta virt. eigenvalues --    0.08063   0.08891   0.09686   0.17453   0.23874
  Beta virt. eigenvalues --    0.32712   0.39375   0.39491   0.40173   0.42031
  Beta virt. eigenvalues --    0.42804   0.44615   0.56390   0.62529   0.64534
  Beta virt. eigenvalues --    0.82190   0.82623   0.82716   0.83152   0.87092
  Beta virt. eigenvalues --    0.87095   0.87110   0.87112   1.12608   1.15633
  Beta virt. eigenvalues --    1.67854   1.68175   1.68226   1.68566   1.83942
  Beta virt. eigenvalues --    1.84978   1.86035   1.86351   1.87241   1.97923
  Beta virt. eigenvalues --    2.40504   2.44584   2.61981   2.62326  14.23262
  Beta virt. eigenvalues --   14.25800
          Condensed to atoms (all electrons):
               1          2          3          4
     1  B    4.723442   0.082984   0.258083  -0.002188
     2  B    0.082984   4.723442  -0.002188   0.258083
     3  H    0.258083  -0.002188   0.681763   0.000021
     4  H   -0.002188   0.258083   0.000021   0.681763
          Atomic-Atomic Spin Densities.
               1          2          3          4
     1  B    1.058327  -0.083415  -0.044850   0.004798
     2  B   -0.083415   1.058327   0.004798  -0.044850
     3  H   -0.044850   0.004798   0.105209  -0.000016
     4  H    0.004798  -0.044850  -0.000016   0.105209
 Mulliken charges and spin densities:
               1          2
     1  B   -0.062321   0.934860
     2  B   -0.062321   0.934860
     3  H    0.062321   0.065140
     4  H    0.062321   0.065140
 Sum of Mulliken charges =  -0.00000   2.00000
 Mulliken charges and spin densities with hydrogens summed into heavy atoms:
               1          2
     1  B    0.000000   1.000000
     2  B   -0.000000   1.000000
 Electronic spatial extent (au):  <R**2>=            239.3200
 Charge=             -0.0000 electrons
 Dipole moment (field-independent basis, Debye):
    X=             -0.0000    Y=              0.0000    Z=             -0.0000  Tot=              0.0000
 Quadrupole moment (field-independent basis, Debye-Ang):
   XX=             -7.2629   YY=            -13.6226   ZZ=            -17.6282
   XY=              0.0000   XZ=              0.0000   YZ=             -0.0000
 Traceless Quadrupole moment (field-independent basis, Debye-Ang):
   XX=              5.5750   YY=             -0.7847   ZZ=             -4.7903
   XY=              0.0000   XZ=              0.0000   YZ=             -0.0000
 Octapole moment (field-independent basis, Debye-Ang**2):
  XXX=             -0.0000  YYY=              0.0000  ZZZ=              0.0000  XYY=             -0.0000
  XXY=              0.0000  XXZ=              0.0000  XZZ=             -0.0000  YZZ=              0.0000
  YYZ=              0.0000  XYZ=              0.0000
 Hexadecapole moment (field-independent basis, Debye-Ang**3):
 XXXX=           -383.6315 YYYY=            -22.3433 ZZZZ=            -40.0927 XXXY=             -0.0029
 XXXZ=              0.0000 YYYX=             -0.0011 YYYZ=             -0.0000 ZZZX=              0.0000
 ZZZY=             -0.0000 XXYY=            -64.1726 XXZZ=            -81.7382 YYZZ=            -10.4059
 XXYZ=             -0.0000 YYXZ=              0.0000 ZZXY=             -0.0004
 N-N= 8.972158566826D+00 E-N=-1.339294511932D+02  KE= 5.022461774220D+01
                          Isotropic Fermi Contact Couplings
        Atom                 a.u.       MegaHertz       Gauss      10(-4) cm-1
     1  B(11)              0.50019     358.72943     128.00358     119.65926
     2  B(11)              0.50019     358.72943     128.00358     119.65926
     3  H(1)               0.03509      78.41746      27.98130      26.15725
     4  H(1)               0.03509      78.41746      27.98130      26.15725
 --------------------------------------------------------
       Center         ----  Spin Dipole Couplings  ----
                      3XX-RR        3YY-RR        3ZZ-RR
 --------------------------------------------------------
     1   Atom        0.081634     -0.243085      0.161451
     2   Atom        0.081634     -0.243085      0.161451
     3   Atom        0.047717     -0.038082     -0.009635
     4   Atom        0.047717     -0.038082     -0.009635
 --------------------------------------------------------
                        XY            XZ            YZ
 --------------------------------------------------------
     1   Atom        0.000036     -0.000000      0.000000
     2   Atom        0.000036     -0.000000      0.000000
     3   Atom        0.000006     -0.000000      0.000000
     4   Atom        0.000006     -0.000000      0.000000
 --------------------------------------------------------


 ---------------------------------------------------------------------------------
              Anisotropic Spin Dipole Couplings in Principal Axis System
 ---------------------------------------------------------------------------------

       Atom             a.u.   MegaHertz   Gauss  10(-4) cm-1        Axes

              Baa    -0.2431   -41.620   -14.851   -13.883 -0.0001  1.0000 -0.0000
     1 B(11)  Bbb     0.0816    13.977     4.987     4.662  1.0000  0.0001  0.0000
              Bcc     0.1615    27.643     9.864     9.221 -0.0000  0.0000  1.0000
 
              Baa    -0.2431   -41.620   -14.851   -13.883 -0.0001  1.0000 -0.0000
     2 B(11)  Bbb     0.0816    13.977     4.987     4.662  1.0000  0.0001  0.0000
              Bcc     0.1615    27.643     9.864     9.221 -0.0000  0.0000  1.0000
 
              Baa    -0.0381   -20.319    -7.250    -6.778 -0.0001  1.0000 -0.0000
     3 H(1)   Bbb    -0.0096    -5.141    -1.834    -1.715 -0.0000  0.0000  1.0000
              Bcc     0.0477    25.459     9.085     8.492  1.0000  0.0001  0.0000
 
              Baa    -0.0381   -20.319    -7.250    -6.778 -0.0001  1.0000 -0.0000
     4 H(1)   Bbb    -0.0096    -5.141    -1.834    -1.715 -0.0000  0.0000  1.0000
              Bcc     0.0477    25.459     9.085     8.492  1.0000  0.0001  0.0000
 

 ---------------------------------------------------------------------------------

 No NMR shielding tensors so no spin-rotation constants.
 Leave Link  601 at Mon Apr 21 17:29:22 2025, MaxMem=   536870912 cpu:               2.1 elap:               0.3
 (Enter /home/szhao/Apps/g16/l701.exe)
 ... and contract with generalized density number  0.
 Compute integral first derivatives.
 Leave Link  701 at Mon Apr 21 17:29:22 2025, MaxMem=   536870912 cpu:               1.2 elap:               0.2
 (Enter /home/szhao/Apps/g16/l702.exe)
 L702 exits ... SP integral derivatives will be done elsewhere.
 Leave Link  702 at Mon Apr 21 17:29:22 2025, MaxMem=   536870912 cpu:               0.3 elap:               0.1
 (Enter /home/szhao/Apps/g16/l703.exe)
 Integral derivatives from FoFJK, PRISM(SPDF).
 Compute integral first derivatives, UseDBF=F ICtDFT=           0.
 Calling FoFJK, ICntrl=      2127 FMM=F ISym2X=0 I1Cent= 0 IOpClX= 1 NMat=1 NMatS=1 NMatT=0.
 FoFJK:  IHMeth= 1 ICntrl=    2127 DoSepK=F KAlg= 0 I1Cent=           0 FoldK=F
 IRaf=         0 NMat=       1 IRICut=       1 DoRegI=T DoRafI=F ISym2E= 0 IDoP0=0 IntGTp=1.
 FoFCou: FMM=F IPFlag=           0 FMFlag=      100000 FMFlg1=         800
         NFxFlg=           0 DoJE=F BraDBF=F KetDBF=F FulRan=T
         wScrn=  0.000000 ICntrl=      2127 IOpCl=  1 I1Cent=           0 NGrid=           0
         NMat0=    1 NMatS0=      1 NMatT0=    0 NMatD0=    1 NMtDS0=    0 NMtDT0=    0
 Symmetry not used in FoFCou.
 Leave Link  703 at Mon Apr 21 17:29:23 2025, MaxMem=   536870912 cpu:               5.0 elap:               0.7
 (Enter /home/szhao/Apps/g16/l716.exe)
 Dipole        =-2.35687155D-07 6.47754257D-13-5.27799536D-16
 -------------------------------------------------------------------
 Center     Atomic                   Forces (Hartrees/Bohr)
 Number     Number              X              Y              Z
 -------------------------------------------------------------------
      1        5          -0.000000000   -0.000000000   -0.000000000
      2        5          -0.000000000   -0.000000000   -0.000000000
      3        1          -0.015274486   -0.000001182    0.000000000
      4        1           0.015274489    0.000001182   -0.000000000
 -------------------------------------------------------------------
 Cartesian Forces:  Max     0.015274489 RMS     0.006235783
 Leave Link  716 at Mon Apr 21 17:29:23 2025, MaxMem=   536870912 cpu:               0.4 elap:               0.1
 (Enter /home/szhao/Apps/g16/l103.exe)

 GradGradGradGradGradGradGradGradGradGradGradGradGradGradGradGradGradGrad
 Berny optimization.
 FormGI is forming the generalized inverse of G from B-inverse, IUseBI=4.
 Internal  Forces:  Max     0.015274489 RMS     0.008818730
 Search for a local minimum.
 Step number   1 out of a maximum of   22
 All quantities printed in internal units (Hartrees-Bohrs-Radians)
 RMS Force = .88187D-02 SwitMx=.10000D-02 MixMth= 1
 Mixed Optimization -- RFO/linear search
 Second derivative matrix not updated -- first step.
 The second derivative matrix:
                          X1        Y1        Z1        X2        Y2
           X1           0.50000
           Y1           0.00000   0.50000
           Z1           0.00000   0.00000   0.50000
           X2           0.00000   0.00000   0.00000   0.50000
           Y2           0.00000   0.00000   0.00000   0.00000   0.50000
           Z2           0.00000   0.00000   0.00000   0.00000   0.00000
           R1           0.00000   0.00000   0.00000   0.00000   0.00000
           R2           0.00000   0.00000   0.00000   0.00000   0.00000
           A1           0.00000   0.00000   0.00000   0.00000   0.00000
           A2           0.00000   0.00000   0.00000   0.00000   0.00000
           A3           0.00000   0.00000   0.00000   0.00000   0.00000
           A4           0.00000   0.00000   0.00000   0.00000   0.00000
                          Z2        R1        R2        A1        A2
           Z2           0.50000
           R1           0.00000   0.26783
           R2           0.00000   0.00000   0.26783
           A1           0.00000   0.00000   0.00000   0.00230
           A2           0.00000   0.00000   0.00000   0.00000   0.00230
           A3           0.00000   0.00000   0.00000   0.00000   0.00000
           A4           0.00000   0.00000   0.00000   0.00000   0.00000
                          A3        A4
           A3           0.00230
           A4           0.00000   0.00230
 ITU=  0
     Eigenvalues ---    0.00230   0.00230   0.00230   0.26783   0.26783
     Eigenvalues --- 1000.000001000.000001000.000001000.000001000.00000
     Eigenvalues --- 1000.000001000.00000
 RFO step:  Lambda=-1.73102391D-03 EMin= 2.30000000D-03
 Linear search not attempted -- first point.
 Iteration  1 RMS(Cart)=  0.02313293 RMS(Int)=  0.00000000
 Iteration  2 RMS(Cart)=  0.00000000 RMS(Int)=  0.00000001
 ITry= 1 IFail=0 DXMaxC= 5.67D-02 DCOld= 1.00D+10 DXMaxT= 3.00D-01 DXLimC= 3.00D+00 Rises=F
 Variable       Old X    -DE/DX   Delta X   Delta X   Delta X     New X
                                 (Linear)    (Quad)   (Total)
    X1       -3.73865  -0.01527   0.00000   0.00000   0.00000  -3.73865
    Y1        0.00000  -0.00000   0.00000   0.00000   0.00000   0.00000
    Z1        0.00000  -0.00000   0.00000   0.00000   0.00000   0.00000
    X2        3.73865   0.01527   0.00000   0.00000   0.00000   3.73865
    Y2        0.00000   0.00000   0.00000   0.00000   0.00000   0.00000
    Z2        0.00000   0.00000   0.00000   0.00000   0.00000   0.00000
    R1        2.21578   0.01527   0.00000   0.05666   0.05666   2.27245
    R2        2.21578   0.01527   0.00000   0.05666   0.05666   2.27245
    A1        3.14152   0.00000   0.00000   0.00000   0.00000   3.14152
    A2        3.14152   0.00000   0.00000   0.00000   0.00000   3.14152
    A3        3.14159  -0.00000   0.00000  -0.00000   0.00000   3.14159
    A4        3.14159  -0.00000   0.00000  -0.00000  -0.00000   3.14159
         Item               Value     Threshold  Converged?
 Maximum Force            0.015274     0.000450     NO 
 RMS     Force            0.008819     0.000300     NO 
 Maximum Displacement     0.056664     0.001800     NO 
 RMS     Displacement     0.023133     0.001200     NO 
 Predicted change in Energy=-8.710697D-04
 Lowest energy point so far.  Saving SCF results.
 GradGradGradGradGradGradGradGradGradGradGradGradGradGradGradGradGradGrad

 Leave Link  103 at Mon Apr 21 17:29:23 2025, MaxMem=   536870912 cpu:               0.2 elap:               0.1
 (Enter /home/szhao/Apps/g16/l202.exe)
                          Input orientation:                          
 ---------------------------------------------------------------------
 Center     Atomic      Atomic             Coordinates (Angstroms)
 Number     Number       Type             X           Y           Z
 ---------------------------------------------------------------------
      1          5           0       -1.978410    0.000000    0.000000
      2          5           0        1.978410    0.000000    0.000000
      3          1           0       -3.180938   -0.000082    0.000000
      4          1           0        3.180938    0.000082   -0.000000
 ---------------------------------------------------------------------
                    Distance matrix (angstroms):
                    1          2          3          4
     1  B    0.000000
     2  B    3.956821   0.000000
     3  H    1.202528   5.159348   0.000000
     4  H    5.159348   1.202528   6.361876   0.000000
 Symmetry turned off by external request.
 Stoichiometry    B2H2(3)
 Framework group  C*V[C*(HBBH)]
 Deg. of freedom     3
 Full point group                 C*V     NOp   4
 Rotational constants (GHZ):           0.0000000           4.7418563           4.7418563
 Leave Link  202 at Mon Apr 21 17:29:23 2025, MaxMem=   536870912 cpu:               0.2 elap:               0.1
 (Enter /home/szhao/Apps/g16/l301.exe)
 Standard basis: 6-311+G(d,p) (5D, 7F)
 Ernie: Thresh=  0.10000D-02 Tol=  0.10000D-05 Strict=F.
    56 basis functions,    88 primitive gaussians,    58 cartesian basis functions
     7 alpha electrons        5 beta electrons
       nuclear repulsion energy         8.8528368391 Hartrees.
 IExCor= 4336 DFT=T Ex+Corr=M062X ExCW=0 ScaHFX=  0.540000
 ScaDFX=  1.000000  1.000000  1.000000  1.000000 ScalE2=  1.000000  1.000000
 IRadAn=      7 IRanWt=     -1 IRanGd=            0 ICorTp=0 IEmpDi=  4
 NAtoms=    4 NActive=    4 NUniq=    4 SFac= 1.00D+00 NAtFMM=   60 NAOKFM=F Big=F
 Integral buffers will be    131072 words long.
 Raffenetti 2 integral format.
 Two-electron integral symmetry is turned off.
 Leave Link  301 at Mon Apr 21 17:29:24 2025, MaxMem=   536870912 cpu:               0.5 elap:               0.1
 (Enter /home/szhao/Apps/g16/l302.exe)
 NPDir=0 NMtPBC=     1 NCelOv=     1 NCel=       1 NClECP=     1 NCelD=      1
         NCelK=      1 NCelE2=     1 NClLst=     1 CellRange=     0.0.
 One-electron integrals computed using PRISM.
 NBasis=    56 RedAO= T EigKep=  8.40D-03  NBF=    56
 NBsUse=    56 1.00D-06 EigRej= -1.00D+00 NBFU=    56
 Precomputing XC quadrature grid using
 IXCGrd= 4 IRadAn=           7 IRanWt=          -1 IRanGd=           0 AccXCQ= 0.00D+00.
 Generated NRdTot=       0 NPtTot=           0 NUsed=           0 NTot=          32
 NSgBfM=    58    58    58    58    58 MxSgAt=     4 MxSgA2=     4.
 Leave Link  302 at Mon Apr 21 17:29:24 2025, MaxMem=   536870912 cpu:               1.3 elap:               0.2
 (Enter /home/szhao/Apps/g16/l303.exe)
 DipDrv:  MaxL=1.
 Leave Link  303 at Mon Apr 21 17:29:24 2025, MaxMem=   536870912 cpu:               0.7 elap:               0.1
 (Enter /home/szhao/Apps/g16/l401.exe)
 Initial guess from the checkpoint file:  "opt.chk"
 B after Tr=     0.000000   -0.000000   -0.000000
         Rot=    1.000000    0.000000   -0.000000   -0.000000 Ang=   0.00 deg.
 Guess basis will be translated and rotated to current coordinates.
 JPrj=2 DoOrth=T DoCkMO=T.
 Initial guess <Sx>= 0.0000 <Sy>= 0.0000 <Sz>= 1.0000 <S**2>= 2.0222 S= 1.0074
 Generating alternative initial guess.
 ExpMin= 3.15D-02 ExpMax= 2.86D+03 ExpMxC= 4.28D+02 IAcc=3 IRadAn=         5 AccDes= 0.00D+00
 Harris functional with IExCor= 1009 and IRadAn=       5 diagonalized for initial guess.
 HarFok:  IExCor= 1009 AccDes= 0.00D+00 IRadAn=         5 IDoV= 1 UseB2=F ITyADJ=14
 ICtDFT=  3500011 ScaDFX=  1.000000  1.000000  1.000000  1.000000
 FoFCou: FMM=F IPFlag=           0 FMFlag=      100000 FMFlg1=           0
         NFxFlg=           0 DoJE=T BraDBF=F KetDBF=T FulRan=T
         wScrn=  0.000000 ICntrl=       500 IOpCl=  0 I1Cent=   200000004 NGrid=           0
         NMat0=    1 NMatS0=      1 NMatT0=    0 NMatD0=    1 NMtDS0=    0 NMtDT0=    0
 Symmetry not used in FoFCou.
 Harris En= -50.4146186242698    
 Leave Link  401 at Mon Apr 21 17:29:25 2025, MaxMem=   536870912 cpu:               3.0 elap:               0.5
 (Enter /home/szhao/Apps/g16/l502.exe)
 Keep R1 and R2 ints in memory in canonical form, NReq=9624198.
 FoFCou: FMM=F IPFlag=           0 FMFlag=           0 FMFlg1=           0
         NFxFlg=           0 DoJE=F BraDBF=F KetDBF=F FulRan=T
         wScrn=  0.000000 ICntrl=       600 IOpCl=  0 I1Cent=           0 NGrid=           0
         NMat0=    1 NMatS0=   1596 NMatT0=    0 NMatD0=    1 NMtDS0=    0 NMtDT0=    0
 Symmetry not used in FoFCou.
 Two-electron integral symmetry not used.
 UHF open shell SCF:
 Using DIIS extrapolation, IDIIS=  1040.
 NGot=   536870912 LenX=   534314338 LenY=   534310533
 Requested convergence on RMS density matrix=1.00D-08 within 128 cycles.
 Requested convergence on MAX density matrix=1.00D-06.
 Requested convergence on             energy=1.00D-06.
 No special actions if energy rises.

 Cycle   1  Pass 1  IDiag  1:
 E= -50.4775013350980    
 DIIS: error= 2.57D-03 at cycle   1 NSaved=   1.
 NSaved= 1 IEnMin= 1 EnMin= -50.4775013350980     IErMin= 1 ErrMin= 2.57D-03
 ErrMax= 2.57D-03  0.00D+00 EMaxC= 1.00D-01 BMatC= 7.63D-04 BMatP= 7.63D-04
 IDIUse=3 WtCom= 9.74D-01 WtEn= 2.57D-02
 Coeff-Com:  0.100D+01
 Coeff-En:   0.100D+01
 Coeff:      0.100D+01
 Gap=     0.391 Goal=   None    Shift=    0.000
 Gap=     0.396 Goal=   None    Shift=    0.000
 GapD=    0.391 DampG=1.000 DampE=1.000 DampFc=1.0000 IDamp=-1.
 RMSDP=2.31D-04 MaxDP=2.80D-03              OVMax= 8.82D-03

 Cycle   2  Pass 1  IDiag  1:
 E= -50.4777193735687     Delta-E=       -0.000218038471 Rises=F Damp=F
 DIIS: error= 3.35D-04 at cycle   2 NSaved=   2.
 NSaved= 2 IEnMin= 2 EnMin= -50.4777193735687     IErMin= 2 ErrMin= 3.35D-04
 ErrMax= 3.35D-04  0.00D+00 EMaxC= 1.00D-01 BMatC= 1.55D-05 BMatP= 7.63D-04
 IDIUse=3 WtCom= 9.97D-01 WtEn= 3.35D-03
 Coeff-Com:  0.244D-01 0.976D+00
 Coeff-En:   0.000D+00 0.100D+01
 Coeff:      0.243D-01 0.976D+00
 Gap=     0.076 Goal=   None    Shift=    0.000
 Gap=     0.121 Goal=   None    Shift=    0.000
 RMSDP=7.35D-05 MaxDP=1.62D-03 DE=-2.18D-04 OVMax= 2.10D-03

 Cycle   3  Pass 1  IDiag  1:
 E= -50.4777288499029     Delta-E=       -0.000009476334 Rises=F Damp=F
 DIIS: error= 1.47D-04 at cycle   3 NSaved=   3.
 NSaved= 3 IEnMin= 3 EnMin= -50.4777288499029     IErMin= 3 ErrMin= 1.47D-04
 ErrMax= 1.47D-04  0.00D+00 EMaxC= 1.00D-01 BMatC= 1.31D-06 BMatP= 1.55D-05
 IDIUse=3 WtCom= 9.99D-01 WtEn= 1.47D-03
 Coeff-Com: -0.142D-01-0.377D-01 0.105D+01
 Coeff-En:   0.000D+00 0.000D+00 0.100D+01
 Coeff:     -0.142D-01-0.376D-01 0.105D+01
 Gap=     0.076 Goal=   None    Shift=    0.000
 Gap=     0.121 Goal=   None    Shift=    0.000
 RMSDP=2.25D-05 MaxDP=3.52D-04 DE=-9.48D-06 OVMax= 1.04D-03

 Cycle   4  Pass 1  IDiag  1:
 E= -50.4777301411576     Delta-E=       -0.000001291255 Rises=F Damp=F
 DIIS: error= 5.15D-05 at cycle   4 NSaved=   4.
 NSaved= 4 IEnMin= 4 EnMin= -50.4777301411576     IErMin= 4 ErrMin= 5.15D-05
 ErrMax= 5.15D-05  0.00D+00 EMaxC= 1.00D-01 BMatC= 1.73D-07 BMatP= 1.31D-06
 IDIUse=1 WtCom= 1.00D+00 WtEn= 0.00D+00
 Coeff-Com:  0.171D-02-0.751D-01-0.105D+00 0.118D+01
 Coeff:      0.171D-02-0.751D-01-0.105D+00 0.118D+01
 Gap=     0.076 Goal=   None    Shift=    0.000
 Gap=     0.121 Goal=   None    Shift=    0.000
 RMSDP=1.09D-05 MaxDP=2.47D-04 DE=-1.29D-06 OVMax= 5.42D-04

 Cycle   5  Pass 1  IDiag  1:
 E= -50.4777303539729     Delta-E=       -0.000000212815 Rises=F Damp=F
 DIIS: error= 1.42D-05 at cycle   5 NSaved=   5.
 NSaved= 5 IEnMin= 5 EnMin= -50.4777303539729     IErMin= 5 ErrMin= 1.42D-05
 ErrMax= 1.42D-05  0.00D+00 EMaxC= 1.00D-01 BMatC= 1.55D-08 BMatP= 1.73D-07
 IDIUse=1 WtCom= 1.00D+00 WtEn= 0.00D+00
 Coeff-Com:  0.164D-02-0.123D-02-0.890D-01-0.307D-01 0.112D+01
 Coeff:      0.164D-02-0.123D-02-0.890D-01-0.307D-01 0.112D+01
 Gap=     0.076 Goal=   None    Shift=    0.000
 Gap=     0.121 Goal=   None    Shift=    0.000
 RMSDP=3.96D-06 MaxDP=7.96D-05 DE=-2.13D-07 OVMax= 1.52D-04

 Cycle   6  Pass 1  IDiag  1:
 E= -50.4777303704802     Delta-E=       -0.000000016507 Rises=F Damp=F
 DIIS: error= 3.10D-06 at cycle   6 NSaved=   6.
 NSaved= 6 IEnMin= 6 EnMin= -50.4777303704802     IErMin= 6 ErrMin= 3.10D-06
 ErrMax= 3.10D-06  0.00D+00 EMaxC= 1.00D-01 BMatC= 9.89D-10 BMatP= 1.55D-08
 IDIUse=1 WtCom= 1.00D+00 WtEn= 0.00D+00
 Coeff-Com: -0.393D-03 0.651D-02 0.205D-01-0.998D-01-0.563D-01 0.113D+01
 Coeff:     -0.393D-03 0.651D-02 0.205D-01-0.998D-01-0.563D-01 0.113D+01
 Gap=     0.076 Goal=   None    Shift=    0.000
 Gap=     0.121 Goal=   None    Shift=    0.000
 RMSDP=9.96D-07 MaxDP=2.28D-05 DE=-1.65D-08 OVMax= 6.18D-05

 Cycle   7  Pass 1  IDiag  1:
 E= -50.4777303697957     Delta-E=        0.000000000685 Rises=F Damp=F
 DIIS: error= 7.69D-06 at cycle   7 NSaved=   7.
 NSaved= 7 IEnMin= 6 EnMin= -50.4777303704802     IErMin= 6 ErrMin= 3.10D-06
 ErrMax= 7.69D-06  0.00D+00 EMaxC= 1.00D-01 BMatC= 2.30D-09 BMatP= 9.89D-10
 IDIUse=1 WtCom= 1.00D+00 WtEn= 0.00D+00
 Coeff-Com: -0.384D-03 0.497D-02 0.201D-01-0.733D-01-0.102D+00 0.861D+00
 Coeff-Com:  0.289D+00
 Coeff:     -0.384D-03 0.497D-02 0.201D-01-0.733D-01-0.102D+00 0.861D+00
 Coeff:      0.289D+00
 Gap=     0.076 Goal=   None    Shift=    0.000
 Gap=     0.121 Goal=   None    Shift=    0.000
 RMSDP=6.86D-07 MaxDP=1.14D-05 DE= 6.85D-10 OVMax= 5.79D-05

 Cycle   8  Pass 1  IDiag  1:
 E= -50.4777303712526     Delta-E=       -0.000000001457 Rises=F Damp=F
 DIIS: error= 1.52D-06 at cycle   8 NSaved=   8.
 NSaved= 8 IEnMin= 8 EnMin= -50.4777303712526     IErMin= 8 ErrMin= 1.52D-06
 ErrMax= 1.52D-06  0.00D+00 EMaxC= 1.00D-01 BMatC= 9.81D-11 BMatP= 9.89D-10
 IDIUse=1 WtCom= 1.00D+00 WtEn= 0.00D+00
 Coeff-Com: -0.140D-04-0.554D-03 0.520D-03 0.109D-01-0.296D-01-0.683D-01
 Coeff-Com:  0.166D+00 0.921D+00
 Coeff:     -0.140D-04-0.554D-03 0.520D-03 0.109D-01-0.296D-01-0.683D-01
 Coeff:      0.166D+00 0.921D+00
 Gap=     0.076 Goal=   None    Shift=    0.000
 Gap=     0.121 Goal=   None    Shift=    0.000
 RMSDP=1.36D-07 MaxDP=2.67D-06 DE=-1.46D-09 OVMax= 9.88D-06

 Cycle   9  Pass 1  IDiag  1:
 E= -50.4777303713186     Delta-E=       -0.000000000066 Rises=F Damp=F
 DIIS: error= 4.62D-08 at cycle   9 NSaved=   9.
 NSaved= 9 IEnMin= 9 EnMin= -50.4777303713186     IErMin= 9 ErrMin= 4.62D-08
 ErrMax= 4.62D-08  0.00D+00 EMaxC= 1.00D-01 BMatC= 2.13D-13 BMatP= 9.81D-11
 IDIUse=1 WtCom= 1.00D+00 WtEn= 0.00D+00
 Coeff-Com:  0.607D-05-0.455D-04-0.172D-03-0.311D-03 0.541D-02-0.706D-02
 Coeff-Com: -0.289D-01-0.131D+00 0.116D+01
 Coeff:      0.607D-05-0.455D-04-0.172D-03-0.311D-03 0.541D-02-0.706D-02
 Coeff:     -0.289D-01-0.131D+00 0.116D+01
 Gap=     0.076 Goal=   None    Shift=    0.000
 Gap=     0.121 Goal=   None    Shift=    0.000
 RMSDP=1.21D-08 MaxDP=2.15D-07 DE=-6.60D-11 OVMax= 3.95D-07

 Cycle  10  Pass 1  IDiag  1:
 E= -50.4777303713188     Delta-E=       -0.000000000000 Rises=F Damp=F
 DIIS: error= 1.59D-08 at cycle  10 NSaved=  10.
 NSaved=10 IEnMin=10 EnMin= -50.4777303713188     IErMin=10 ErrMin= 1.59D-08
 ErrMax= 1.59D-08  0.00D+00 EMaxC= 1.00D-01 BMatC= 1.65D-14 BMatP= 2.13D-13
 IDIUse=1 WtCom= 1.00D+00 WtEn= 0.00D+00
 Coeff-Com: -0.146D-05 0.151D-04 0.120D-04 0.172D-04-0.989D-03 0.196D-02
 Coeff-Com:  0.651D-02 0.240D-01-0.366D+00 0.133D+01
 Coeff:     -0.146D-05 0.151D-04 0.120D-04 0.172D-04-0.989D-03 0.196D-02
 Coeff:      0.651D-02 0.240D-01-0.366D+00 0.133D+01
 Gap=     0.076 Goal=   None    Shift=    0.000
 Gap=     0.121 Goal=   None    Shift=    0.000
 RMSDP=6.89D-09 MaxDP=1.33D-07 DE=-2.13D-13 OVMax= 4.86D-07

 SCF Done:  E(UM062X) =  -50.4777303713     A.U. after   10 cycles
            NFock= 10  Conv=0.69D-08     -V/T= 2.0062
 <Sx>= 0.0000 <Sy>= 0.0000 <Sz>= 1.0000 <S**2>= 2.0218 S= 1.0072
 <L.S>=  0.00000000000    
 KE= 5.016659417555D+01 PE=-1.336523904437D+02 EE= 2.415522905776D+01
 Annihilation of the first spin contaminant:
 S**2 before annihilation     2.0218,   after     2.0000
 Leave Link  502 at Mon Apr 21 17:29:29 2025, MaxMem=   536870912 cpu:              28.9 elap:               3.8
 (Enter /home/szhao/Apps/g16/l701.exe)
 ... and contract with generalized density number  0.
 Compute integral first derivatives.
 Leave Link  701 at Mon Apr 21 17:29:29 2025, MaxMem=   536870912 cpu:               1.5 elap:               0.2
 (Enter /home/szhao/Apps/g16/l702.exe)
 L702 exits ... SP integral derivatives will be done elsewhere.
 Leave Link  702 at Mon Apr 21 17:29:29 2025, MaxMem=   536870912 cpu:               0.6 elap:               0.1
 (Enter /home/szhao/Apps/g16/l703.exe)
 Integral derivatives from FoFJK, PRISM(SPDF).
 Compute integral first derivatives, UseDBF=F ICtDFT=           0.
 Calling FoFJK, ICntrl=      2127 FMM=F ISym2X=0 I1Cent= 0 IOpClX= 1 NMat=1 NMatS=1 NMatT=0.
 FoFJK:  IHMeth= 1 ICntrl=    2127 DoSepK=F KAlg= 0 I1Cent=           0 FoldK=F
 IRaf=         0 NMat=       1 IRICut=       1 DoRegI=T DoRafI=F ISym2E= 0 IDoP0=0 IntGTp=1.
 FoFCou: FMM=F IPFlag=           0 FMFlag=      100000 FMFlg1=         800
         NFxFlg=           0 DoJE=F BraDBF=F KetDBF=F FulRan=T
         wScrn=  0.000000 ICntrl=      2127 IOpCl=  1 I1Cent=           0 NGrid=           0
         NMat0=    1 NMatS0=      1 NMatT0=    0 NMatD0=    1 NMtDS0=    0 NMtDT0=    0
 Symmetry not used in FoFCou.
 Leave Link  703 at Mon Apr 21 17:29:30 2025, MaxMem=   536870912 cpu:               5.3 elap:               0.7
 (Enter /home/szhao/Apps/g16/l716.exe)
 Dipole        = 2.05670860D-06 2.57456179D-11 2.61761826D-15
 -------------------------------------------------------------------
 Center     Atomic                   Forces (Hartrees/Bohr)
 Number     Number              X              Y              Z
 -------------------------------------------------------------------
      1        5          -0.000000000   -0.000000000   -0.000000000
      2        5          -0.000000000   -0.000000000   -0.000000000
      3        1          -0.001279153   -0.000000247   -0.000000000
      4        1           0.001279160    0.000000247    0.000000000
 -------------------------------------------------------------------
 Cartesian Forces:  Max     0.001279160 RMS     0.000522214
 Leave Link  716 at Mon Apr 21 17:29:30 2025, MaxMem=   536870912 cpu:               0.8 elap:               0.1
 (Enter /home/szhao/Apps/g16/l103.exe)

 GradGradGradGradGradGradGradGradGradGradGradGradGradGradGradGradGradGrad
 Berny optimization.
 Using GEDIIS/GDIIS optimizer.
 FormGI is forming the generalized inverse of G from B-inverse, IUseBI=4.
 Internal  Forces:  Max     0.001279161 RMS     0.000738522
 Search for a local minimum.
 Step number   2 out of a maximum of   22
 All quantities printed in internal units (Hartrees-Bohrs-Radians)
 RMS Force = .73852D-03 SwitMx=.10000D-02 MixMth= 2
 Mixed Optimization -- En-DIIS/RFO-DIIS
 Update second derivatives using D2CorX and points    1    2
 DE= -9.18D-04 DEPred=-8.71D-04 R= 1.05D+00
 TightC=F SS=  1.41D+00  RLast= 8.01D-02 DXNew= 5.0454D-01 2.4040D-01
 Trust test= 1.05D+00 RLast= 8.01D-02 DXMaxT set to 3.00D-01
 The second derivative matrix:
                          X1        Y1        Z1        X2        Y2
           X1           0.62349
           Y1           0.00001   0.50000
           Z1          -0.00000  -0.00000   0.50000
           X2          -0.12349  -0.00001   0.00000   0.62349
           Y2          -0.00001  -0.00000   0.00000   0.00001   0.50000
           Z2           0.00000   0.00000  -0.00000  -0.00000  -0.00000
           R1          -0.12349  -0.00001   0.00000   0.12349   0.00001
           R2          -0.12349  -0.00001   0.00000   0.12349   0.00001
           A1          -0.00000  -0.00000   0.00000   0.00000   0.00000
           A2          -0.00000  -0.00000   0.00000   0.00000   0.00000
           A3           0.00000   0.00000  -0.00000  -0.00000  -0.00000
           A4           0.00000   0.00000  -0.00000  -0.00000  -0.00000
                          Z2        R1        R2        A1        A2
           Z2           0.50000
           R1          -0.00000   0.25741
           R2          -0.00000  -0.01042   0.25741
           A1          -0.00000   0.00000   0.00000   0.00230
           A2          -0.00000   0.00000   0.00000   0.00000   0.00230
           A3           0.00000  -0.00000  -0.00000  -0.00000  -0.00000
           A4           0.00000   0.00000   0.00000  -0.00000  -0.00000
                          A3        A4
           A3           0.00230
           A4           0.00000   0.00230
 ITU=  1  0
 Use linear search instead of GDIIS.
     Eigenvalues ---    0.00230   0.00230   0.00230   0.24699   0.26783
     Eigenvalues --- 1000.000001000.000001000.000001000.000001000.00000
     Eigenvalues --- 1000.000001000.00000
 RFO step:  Lambda= 0.00000000D+00 EMin= 2.30000000D-03
 Quartic linear search produced a step of  0.09969.
 Iteration  1 RMS(Cart)=  0.00230621 RMS(Int)=  0.00000001
 Iteration  2 RMS(Cart)=  0.00000001 RMS(Int)=  0.00000000
 ITry= 1 IFail=0 DXMaxC= 5.65D-03 DCOld= 1.00D+10 DXMaxT= 3.00D-01 DXLimC= 3.00D+00 Rises=F
 Variable       Old X    -DE/DX   Delta X   Delta X   Delta X     New X
                                 (Linear)    (Quad)   (Total)
    X1       -3.73865  -0.00128   0.00000   0.00000   0.00000  -3.73865
    Y1        0.00000  -0.00000   0.00000   0.00000   0.00000   0.00000
    Z1        0.00000  -0.00000   0.00000   0.00000   0.00000   0.00000
    X2        3.73865   0.00128   0.00000   0.00000   0.00000   3.73865
    Y2        0.00000   0.00000   0.00000   0.00000   0.00000   0.00000
    Z2        0.00000   0.00000   0.00000   0.00000   0.00000   0.00000
    R1        2.27245   0.00128   0.00565  -0.00000   0.00565   2.27810
    R2        2.27245   0.00128   0.00565   0.00000   0.00565   2.27810
    A1        3.14152   0.00000   0.00000  -0.00000   0.00000   3.14152
    A2        3.14152   0.00000   0.00000   0.00000   0.00000   3.14152
    A3        3.14159   0.00000   0.00000   0.00000   0.00000   3.14159
    A4        3.14159   0.00000  -0.00000  -0.00000  -0.00000   3.14159
         Item               Value     Threshold  Converged?
 Maximum Force            0.001279     0.000450     NO 
 RMS     Force            0.000739     0.000300     NO 
 Maximum Displacement     0.005649     0.001800     NO 
 RMS     Displacement     0.002306     0.001200     NO 
 Predicted change in Energy=-6.570203D-06
 Lowest energy point so far.  Saving SCF results.
 GradGradGradGradGradGradGradGradGradGradGradGradGradGradGradGradGradGrad

 Leave Link  103 at Mon Apr 21 17:29:31 2025, MaxMem=   536870912 cpu:               0.5 elap:               0.1
 (Enter /home/szhao/Apps/g16/l202.exe)
                          Input orientation:                          
 ---------------------------------------------------------------------
 Center     Atomic      Atomic             Coordinates (Angstroms)
 Number     Number       Type             X           Y           Z
 ---------------------------------------------------------------------
      1          5           0       -1.978410    0.000000    0.000000
      2          5           0        1.978410    0.000000    0.000000
      3          1           0       -3.183927   -0.000082   -0.000000
      4          1           0        3.183927    0.000082   -0.000000
 ---------------------------------------------------------------------
                    Distance matrix (angstroms):
                    1          2          3          4
     1  B    0.000000
     2  B    3.956821   0.000000
     3  H    1.205517   5.162338   0.000000
     4  H    5.162338   1.205517   6.367855   0.000000
 Symmetry turned off by external request.
 Stoichiometry    B2H2(3)
 Framework group  C*V[C*(HBBH)]
 Deg. of freedom     3
 Full point group                 C*V     NOp   4
 Rotational constants (GHZ):           0.0000000           4.7401506           4.7401506
 Leave Link  202 at Mon Apr 21 17:29:31 2025, MaxMem=   536870912 cpu:               0.6 elap:               0.1
 (Enter /home/szhao/Apps/g16/l301.exe)
 Standard basis: 6-311+G(d,p) (5D, 7F)
 Ernie: Thresh=  0.10000D-02 Tol=  0.10000D-05 Strict=F.
    56 basis functions,    88 primitive gaussians,    58 cartesian basis functions
     7 alpha electrons        5 beta electrons
       nuclear repulsion energy         8.8412526928 Hartrees.
 IExCor= 4336 DFT=T Ex+Corr=M062X ExCW=0 ScaHFX=  0.540000
 ScaDFX=  1.000000  1.000000  1.000000  1.000000 ScalE2=  1.000000  1.000000
 IRadAn=      7 IRanWt=     -1 IRanGd=            0 ICorTp=0 IEmpDi=  4
 NAtoms=    4 NActive=    4 NUniq=    4 SFac= 1.00D+00 NAtFMM=   60 NAOKFM=F Big=F
 Integral buffers will be    131072 words long.
 Raffenetti 2 integral format.
 Two-electron integral symmetry is turned off.
 Leave Link  301 at Mon Apr 21 17:29:31 2025, MaxMem=   536870912 cpu:               0.7 elap:               0.1
 (Enter /home/szhao/Apps/g16/l302.exe)
 NPDir=0 NMtPBC=     1 NCelOv=     1 NCel=       1 NClECP=     1 NCelD=      1
         NCelK=      1 NCelE2=     1 NClLst=     1 CellRange=     0.0.
 One-electron integrals computed using PRISM.
 NBasis=    56 RedAO= T EigKep=  8.46D-03  NBF=    56
 NBsUse=    56 1.00D-06 EigRej= -1.00D+00 NBFU=    56
 Precomputing XC quadrature grid using
 IXCGrd= 4 IRadAn=           7 IRanWt=          -1 IRanGd=           0 AccXCQ= 0.00D+00.
 Generated NRdTot=       0 NPtTot=           0 NUsed=           0 NTot=          32
 NSgBfM=    58    58    58    58    58 MxSgAt=     4 MxSgA2=     4.
 Leave Link  302 at Mon Apr 21 17:29:31 2025, MaxMem=   536870912 cpu:               1.8 elap:               0.3
 (Enter /home/szhao/Apps/g16/l303.exe)
 DipDrv:  MaxL=1.
 Leave Link  303 at Mon Apr 21 17:29:31 2025, MaxMem=   536870912 cpu:               0.5 elap:               0.1
 (Enter /home/szhao/Apps/g16/l401.exe)
 Initial guess from the checkpoint file:  "opt.chk"
 B after Tr=     0.000000   -0.000000   -0.000000
         Rot=    1.000000    0.000148    0.000000   -0.000000 Ang=   0.02 deg.
 Guess basis will be translated and rotated to current coordinates.
 JPrj=2 DoOrth=T DoCkMO=T.
 Initial guess <Sx>= 0.0000 <Sy>= 0.0000 <Sz>= 1.0000 <S**2>= 2.0218 S= 1.0072
 Leave Link  401 at Mon Apr 21 17:29:32 2025, MaxMem=   536870912 cpu:               1.2 elap:               0.3
 (Enter /home/szhao/Apps/g16/l502.exe)
 Keep R1 and R2 ints in memory in canonical form, NReq=9624198.
 FoFCou: FMM=F IPFlag=           0 FMFlag=           0 FMFlg1=           0
         NFxFlg=           0 DoJE=F BraDBF=F KetDBF=F FulRan=T
         wScrn=  0.000000 ICntrl=       600 IOpCl=  0 I1Cent=           0 NGrid=           0
         NMat0=    1 NMatS0=   1596 NMatT0=    0 NMatD0=    1 NMtDS0=    0 NMtDT0=    0
 Symmetry not used in FoFCou.
 Two-electron integral symmetry not used.
 UHF open shell SCF:
 Using DIIS extrapolation, IDIIS=  1040.
 NGot=   536870912 LenX=   534314338 LenY=   534310533
 Requested convergence on RMS density matrix=1.00D-08 within 128 cycles.
 Requested convergence on MAX density matrix=1.00D-06.
 Requested convergence on             energy=1.00D-06.
 No special actions if energy rises.

 Cycle   1  Pass 1  IDiag  1:
 E= -50.4777353600912    
 DIIS: error= 2.48D-04 at cycle   1 NSaved=   1.
 NSaved= 1 IEnMin= 1 EnMin= -50.4777353600912     IErMin= 1 ErrMin= 2.48D-04
 ErrMax= 2.48D-04  0.00D+00 EMaxC= 1.00D-01 BMatC= 7.14D-06 BMatP= 7.14D-06
 IDIUse=3 WtCom= 9.98D-01 WtEn= 2.48D-03
 Coeff-Com:  0.100D+01
 Coeff-En:   0.100D+01
 Coeff:      0.100D+01
 Gap=     0.389 Goal=   None    Shift=    0.000
 Gap=     0.388 Goal=   None    Shift=    0.000
 RMSDP=2.26D-05 MaxDP=2.72D-04              OVMax= 8.73D-04

 Cycle   2  Pass 1  IDiag  1:
 E= -50.4777374607690     Delta-E=       -0.000002100678 Rises=F Damp=F
 DIIS: error= 3.31D-05 at cycle   2 NSaved=   2.
 NSaved= 2 IEnMin= 2 EnMin= -50.4777374607690     IErMin= 2 ErrMin= 3.31D-05
 ErrMax= 3.31D-05  0.00D+00 EMaxC= 1.00D-01 BMatC= 1.55D-07 BMatP= 7.14D-06
 IDIUse=1 WtCom= 1.00D+00 WtEn= 0.00D+00
 Coeff-Com:  0.251D-01 0.975D+00
 Coeff:      0.251D-01 0.975D+00
 Gap=     0.076 Goal=   None    Shift=    0.000
 Gap=     0.121 Goal=   None    Shift=    0.000
 RMSDP=7.40D-06 MaxDP=1.63D-04 DE=-2.10D-06 OVMax= 2.11D-04

 Cycle   3  Pass 1  IDiag  1:
 E= -50.4777375567900     Delta-E=       -0.000000096021 Rises=F Damp=F
 DIIS: error= 1.48D-05 at cycle   3 NSaved=   3.
 NSaved= 3 IEnMin= 3 EnMin= -50.4777375567900     IErMin= 3 ErrMin= 1.48D-05
 ErrMax= 1.48D-05  0.00D+00 EMaxC= 1.00D-01 BMatC= 1.35D-08 BMatP= 1.55D-07
 IDIUse=1 WtCom= 1.00D+00 WtEn= 0.00D+00
 Coeff-Com: -0.151D-01-0.393D-01 0.105D+01
 Coeff:     -0.151D-01-0.393D-01 0.105D+01
 Gap=     0.076 Goal=   None    Shift=    0.000
 Gap=     0.121 Goal=   None    Shift=    0.000
 RMSDP=2.31D-06 MaxDP=3.68D-05 DE=-9.60D-08 OVMax= 1.06D-04

 Cycle   4  Pass 1  IDiag  1:
 E= -50.4777375701857     Delta-E=       -0.000000013396 Rises=F Damp=F
 DIIS: error= 5.26D-06 at cycle   4 NSaved=   4.
 NSaved= 4 IEnMin= 4 EnMin= -50.4777375701857     IErMin= 4 ErrMin= 5.26D-06
 ErrMax= 5.26D-06  0.00D+00 EMaxC= 1.00D-01 BMatC= 1.79D-09 BMatP= 1.35D-08
 IDIUse=1 WtCom= 1.00D+00 WtEn= 0.00D+00
 Coeff-Com:  0.168D-02-0.766D-01-0.993D-01 0.117D+01
 Coeff:      0.168D-02-0.766D-01-0.993D-01 0.117D+01
 Gap=     0.076 Goal=   None    Shift=    0.000
 Gap=     0.121 Goal=   None    Shift=    0.000
 RMSDP=1.11D-06 MaxDP=2.53D-05 DE=-1.34D-08 OVMax= 5.54D-05

 Cycle   5  Pass 1  IDiag  1:
 E= -50.4777375723737     Delta-E=       -0.000000002188 Rises=F Damp=F
 DIIS: error= 1.46D-06 at cycle   5 NSaved=   5.
 NSaved= 5 IEnMin= 5 EnMin= -50.4777375723737     IErMin= 5 ErrMin= 1.46D-06
 ErrMax= 1.46D-06  0.00D+00 EMaxC= 1.00D-01 BMatC= 2.34D-10 BMatP= 1.79D-09
 IDIUse=1 WtCom= 1.00D+00 WtEn= 0.00D+00
 Coeff-Com:  0.175D-02-0.968D-02-0.928D-01 0.109D+00 0.992D+00
 Coeff:      0.175D-02-0.968D-02-0.928D-01 0.109D+00 0.992D+00
 Gap=     0.076 Goal=   None    Shift=    0.000
 Gap=     0.121 Goal=   None    Shift=    0.000
 RMSDP=5.73D-07 MaxDP=1.44D-05 DE=-2.19D-09 OVMax= 3.53D-05

 Cycle   6  Pass 1  IDiag  1:
 E= -50.4777375722756     Delta-E=        0.000000000098 Rises=F Damp=F
 DIIS: error= 4.91D-06 at cycle   6 NSaved=   6.
 NSaved= 6 IEnMin= 5 EnMin= -50.4777375723737     IErMin= 5 ErrMin= 1.46D-06
 ErrMax= 4.91D-06  0.00D+00 EMaxC= 1.00D-01 BMatC= 6.09D-10 BMatP= 2.34D-10
 IDIUse=1 WtCom= 1.00D+00 WtEn= 0.00D+00
 Coeff-Com:  0.120D-02 0.120D-02-0.622D-01-0.533D-01 0.801D+00 0.312D+00
 Coeff:      0.120D-02 0.120D-02-0.622D-01-0.533D-01 0.801D+00 0.312D+00
 Gap=     0.076 Goal=   None    Shift=    0.000
 Gap=     0.121 Goal=   None    Shift=    0.000
 RMSDP=3.71D-07 MaxDP=8.10D-06 DE= 9.81D-11 OVMax= 4.00D-05

 Cycle   7  Pass 1  IDiag  1:
 E= -50.4777375727847     Delta-E=       -0.000000000509 Rises=F Damp=F
 DIIS: error= 2.02D-06 at cycle   7 NSaved=   7.
 NSaved= 7 IEnMin= 7 EnMin= -50.4777375727847     IErMin= 5 ErrMin= 1.46D-06
 ErrMax= 2.02D-06  0.00D+00 EMaxC= 1.00D-01 BMatC= 1.04D-10 BMatP= 2.34D-10
 IDIUse=1 WtCom= 1.00D+00 WtEn= 0.00D+00
 Coeff-Com:  0.547D-03 0.209D-02-0.287D-01-0.508D-01 0.418D+00 0.262D+00
 Coeff-Com:  0.397D+00
 Coeff:      0.547D-03 0.209D-02-0.287D-01-0.508D-01 0.418D+00 0.262D+00
 Coeff:      0.397D+00
 Gap=     0.076 Goal=   None    Shift=    0.000
 Gap=     0.121 Goal=   None    Shift=    0.000
 RMSDP=2.25D-07 MaxDP=4.51D-06 DE=-5.09D-10 OVMax= 1.59D-05

 Cycle   8  Pass 1  IDiag  1:
 E= -50.4777375730575     Delta-E=       -0.000000000273 Rises=F Damp=F
 DIIS: error= 2.49D-06 at cycle   8 NSaved=   8.
 NSaved= 8 IEnMin= 8 EnMin= -50.4777375730575     IErMin= 5 ErrMin= 1.46D-06
 ErrMax= 2.49D-06  0.00D+00 EMaxC= 1.00D-01 BMatC= 1.57D-10 BMatP= 1.04D-10
 IDIUse=1 WtCom= 1.00D+00 WtEn= 0.00D+00
 Coeff-Com: -0.712D-03 0.103D-01 0.361D-01-0.153D+00-0.141D+00 0.275D+00
 Coeff-Com:  0.338D+01-0.241D+01
 Coeff:     -0.712D-03 0.103D-01 0.361D-01-0.153D+00-0.141D+00 0.275D+00
 Coeff:      0.338D+01-0.241D+01
 Gap=     0.076 Goal=   None    Shift=    0.000
 Gap=     0.121 Goal=   None    Shift=    0.000
 RMSDP=6.79D-07 MaxDP=1.25D-05 DE=-2.73D-10 OVMax= 5.37D-05

 Cycle   9  Pass 1  IDiag  1:
 E= -50.4777375725614     Delta-E=        0.000000000496 Rises=F Damp=F
 DIIS: error= 1.51D-07 at cycle   9 NSaved=   9.
 NSaved= 9 IEnMin= 8 EnMin= -50.4777375730575     IErMin= 9 ErrMin= 1.51D-07
 ErrMax= 1.51D-07  0.00D+00 EMaxC= 1.00D-01 BMatC= 9.48D-13 BMatP= 1.04D-10
 IDIUse=1 WtCom= 1.00D+00 WtEn= 0.00D+00
 Coeff-Com: -0.364D-04-0.973D-03 0.131D-02 0.198D-01-0.571D-01-0.339D-01
 Coeff-Com: -0.172D+00 0.744D-01 0.117D+01
 Coeff:     -0.364D-04-0.973D-03 0.131D-02 0.198D-01-0.571D-01-0.339D-01
 Coeff:     -0.172D+00 0.744D-01 0.117D+01
 Gap=     0.076 Goal=   None    Shift=    0.000
 Gap=     0.121 Goal=   None    Shift=    0.000
 RMSDP=4.90D-08 MaxDP=8.84D-07 DE= 4.96D-10 OVMax= 3.62D-06

 Cycle  10  Pass 1  IDiag  1:
 E= -50.4777375725596     Delta-E=        0.000000000002 Rises=F Damp=F
 DIIS: error= 8.22D-09 at cycle  10 NSaved=  10.
 NSaved=10 IEnMin= 8 EnMin= -50.4777375730575     IErMin=10 ErrMin= 8.22D-09
 ErrMax= 8.22D-09  0.00D+00 EMaxC= 1.00D-01 BMatC= 7.07D-15 BMatP= 9.48D-13
 IDIUse=1 WtCom= 1.00D+00 WtEn= 0.00D+00
 Coeff-Com:  0.118D-04-0.961D-04-0.295D-03-0.426D-03 0.929D-02-0.981D-04
 Coeff-Com: -0.340D-01 0.318D-01-0.171D+00 0.117D+01
 Coeff:      0.118D-04-0.961D-04-0.295D-03-0.426D-03 0.929D-02-0.981D-04
 Coeff:     -0.340D-01 0.318D-01-0.171D+00 0.117D+01
 Gap=     0.076 Goal=   None    Shift=    0.000
 Gap=     0.121 Goal=   None    Shift=    0.000
 RMSDP=2.26D-09 MaxDP=3.90D-08 DE= 1.75D-12 OVMax= 7.11D-08

 SCF Done:  E(UM062X) =  -50.4777375726     A.U. after   10 cycles
            NFock= 10  Conv=0.23D-08     -V/T= 2.0063
 <Sx>= 0.0000 <Sy>= 0.0000 <Sz>= 1.0000 <S**2>= 2.0217 S= 1.0072
 <L.S>=  0.00000000000    
 KE= 5.016107958475D+01 PE=-1.336254326225D+02 EE= 2.414536277247D+01
 Annihilation of the first spin contaminant:
 S**2 before annihilation     2.0217,   after     2.0000
 Leave Link  502 at Mon Apr 21 17:29:35 2025, MaxMem=   536870912 cpu:              25.9 elap:               3.4
 (Enter /home/szhao/Apps/g16/l701.exe)
 ... and contract with generalized density number  0.
 Compute integral first derivatives.
 Leave Link  701 at Mon Apr 21 17:29:36 2025, MaxMem=   536870912 cpu:               1.1 elap:               0.2
 (Enter /home/szhao/Apps/g16/l702.exe)
 L702 exits ... SP integral derivatives will be done elsewhere.
 Leave Link  702 at Mon Apr 21 17:29:36 2025, MaxMem=   536870912 cpu:               0.4 elap:               0.1
 (Enter /home/szhao/Apps/g16/l703.exe)
 Integral derivatives from FoFJK, PRISM(SPDF).
 Compute integral first derivatives, UseDBF=F ICtDFT=           0.
 Calling FoFJK, ICntrl=      2127 FMM=F ISym2X=0 I1Cent= 0 IOpClX= 1 NMat=1 NMatS=1 NMatT=0.
 FoFJK:  IHMeth= 1 ICntrl=    2127 DoSepK=F KAlg= 0 I1Cent=           0 FoldK=F
 IRaf=         0 NMat=       1 IRICut=       1 DoRegI=T DoRafI=F ISym2E= 0 IDoP0=0 IntGTp=1.
 FoFCou: FMM=F IPFlag=           0 FMFlag=      100000 FMFlg1=         800
         NFxFlg=           0 DoJE=F BraDBF=F KetDBF=F FulRan=T
         wScrn=  0.000000 ICntrl=      2127 IOpCl=  1 I1Cent=           0 NGrid=           0
         NMat0=    1 NMatS0=      1 NMatT0=    0 NMatD0=    1 NMtDS0=    0 NMtDT0=    0
 Symmetry not used in FoFCou.
 Leave Link  703 at Mon Apr 21 17:29:37 2025, MaxMem=   536870912 cpu:               5.2 elap:               0.7
 (Enter /home/szhao/Apps/g16/l716.exe)
 Dipole        =-2.10789333D-08-5.79263636D-10-1.27207736D-08
 -------------------------------------------------------------------
 Center     Atomic                   Forces (Hartrees/Bohr)
 Number     Number              X              Y              Z
 -------------------------------------------------------------------
      1        5          -0.000000000   -0.000000000   -0.000000000
      2        5          -0.000000000   -0.000000000   -0.000000000
      3        1           0.000001054   -0.000000162   -0.000000000
      4        1          -0.000001063    0.000000162   -0.000000000
 -------------------------------------------------------------------
 Cartesian Forces:  Max     0.000001063 RMS     0.000000437
 Leave Link  716 at Mon Apr 21 17:29:37 2025, MaxMem=   536870912 cpu:               0.4 elap:               0.1
 (Enter /home/szhao/Apps/g16/l103.exe)

 GradGradGradGradGradGradGradGradGradGradGradGradGradGradGradGradGradGrad
 Berny optimization.
 Using GEDIIS/GDIIS optimizer.
 FormGI is forming the generalized inverse of G from B-inverse, IUseBI=4.
 Internal  Forces:  Max     0.000001063 RMS     0.000000611
 Search for a local minimum.
 Step number   3 out of a maximum of   22
 All quantities printed in internal units (Hartrees-Bohrs-Radians)
 RMS Force = .61112D-06 SwitMx=.10000D-02 MixMth= 2
 Mixed Optimization -- En-DIIS/RFO-DIIS
 Swapping is turned off.
 Update second derivatives using D2CorX and points    1    2    3
 DE= -7.20D-06 DEPred=-6.57D-06 R= 1.10D+00
 TightC=F SS=  1.41D+00  RLast= 7.99D-03 DXNew= 5.0454D-01 2.3967D-02
 Trust test= 1.10D+00 RLast= 7.99D-03 DXMaxT set to 3.00D-01
 The second derivative matrix:
                          X1        Y1        Z1        X2        Y2
           X1           0.61331
           Y1           0.00001   0.50000
           Z1           0.00000   0.00000   0.50000
           X2          -0.11331  -0.00001  -0.00000   0.61331
           Y2          -0.00001  -0.00000  -0.00000   0.00001   0.50000
           Z2          -0.00000  -0.00000  -0.00000   0.00000   0.00000
           R1          -0.11331  -0.00001  -0.00000   0.11331   0.00001
           R2          -0.11331  -0.00001  -0.00000   0.11331   0.00001
           A1          -0.00000  -0.00000  -0.00000   0.00000   0.00000
           A2          -0.00000  -0.00000  -0.00000   0.00000   0.00000
           A3           0.00000   0.00000   0.00000  -0.00000  -0.00000
           A4          -0.00000  -0.00000  -0.00000   0.00000   0.00000
                          Z2        R1        R2        A1        A2
           Z2           0.50000
           R1           0.00000   0.24723
           R2           0.00000  -0.02060   0.24723
           A1           0.00000   0.00000   0.00000   0.00230
           A2           0.00000   0.00000   0.00000   0.00000   0.00230
           A3          -0.00000  -0.00000  -0.00000  -0.00000  -0.00000
           A4           0.00000   0.00000   0.00000   0.00000   0.00000
                          A3        A4
           A3           0.00230
           A4          -0.00000   0.00230
 ITU=  1  1  0
     Eigenvalues ---    0.00230   0.00230   0.00230   0.22663   0.26783
     Eigenvalues --- 1000.000001000.000001000.000001000.000001000.00000
     Eigenvalues --- 1000.000001000.00000
 En-DIIS/RFO-DIIS/Sim-DIIS IScMMF=       -3 using points:     3    2
 RFO step:  Lambda=-8.17061559D-12.
 NNeg= 0 NGDIIS= 2 SimSw=  2.50D-03 Rises=F DC= -7.20D-06 SmlDif=  1.00D-05
 NRisDI= 0 DoIntr=F SqrtH=F CThrHd= 10.0 CDAdj=  3.0
 RMS Error=  0.1908059095D-05 NUsed= 2 OKEnD=F EnDIS=F
 InvSVX:  RCond= 7.18D-05 Info=           0 Equed=N FErr=  8.89D-16 BErr=  2.29D-17
 DidBck=F Rises=F RFO-DIIS coefs:    0.99917    0.00083
 Iteration  1 RMS(Cart)=  0.00000191 RMS(Int)=  0.00000000
 Iteration  2 RMS(Cart)=  0.00000000 RMS(Int)=  0.00000000
 ITry= 1 IFail=0 DXMaxC= 4.69D-06 DCOld= 1.00D+10 DXMaxT= 3.00D-01 DXLimC= 3.00D+00 Rises=F
 Variable       Old X    -DE/DX   Delta X   Delta X   Delta X     New X
                                 (Linear)    (Quad)   (Total)
    X1       -3.73865   0.00000   0.00000   0.00000   0.00000  -3.73865
    Y1        0.00000   0.00000   0.00000   0.00000   0.00000   0.00000
    Z1        0.00000   0.00000   0.00000   0.00000   0.00000   0.00000
    X2        3.73865  -0.00000   0.00000   0.00000   0.00000   3.73865
    Y2        0.00000  -0.00000   0.00000   0.00000   0.00000   0.00000
    Z2        0.00000  -0.00000   0.00000   0.00000   0.00000   0.00000
    R1        2.27810  -0.00000  -0.00000   0.00000  -0.00000   2.27809
    R2        2.27810  -0.00000  -0.00000  -0.00000  -0.00000   2.27809
    A1        3.14152  -0.00000  -0.00000   0.00000   0.00000   3.14152
    A2        3.14152  -0.00000  -0.00000  -0.00000  -0.00000   3.14152
    A3        3.14159   0.00000   0.00000   0.00000   0.00000   3.14159
    A4        3.14159  -0.00000   0.00000  -0.00000  -0.00000   3.14159
         Item               Value     Threshold  Converged?
 Maximum Force            0.000001     0.000450     YES
 RMS     Force            0.000001     0.000300     YES
 Maximum Displacement     0.000005     0.001800     YES
 RMS     Displacement     0.000002     0.001200     YES
 Predicted change in Energy=-4.943887D-12
 Optimization completed.
    -- Stationary point found.
                           ----------------------------
                           !   Optimized Parameters   !
                           ! (Angstroms and Degrees)  !
 --------------------------                            --------------------------
 ! Name  Definition              Value          Derivative Info.                !
 --------------------------------------------------------------------------------
 ! X1    R(1,-1)                -1.9784         -DE/DX =    0.0                 !
 ! Y1    R(1,-2)                 0.0            -DE/DX =    0.0                 !
 ! Z1    R(1,-3)                 0.0            -DE/DX =    0.0                 !
 ! X2    R(2,-1)                 1.9784         -DE/DX =    0.0                 !
 ! Y2    R(2,-2)                 0.0            -DE/DX =    0.0                 !
 ! Z2    R(2,-3)                 0.0            -DE/DX =    0.0                 !
 ! R1    R(1,3)                  1.2055         -DE/DX =    0.0                 !
 ! R2    R(2,4)                  1.2055         -DE/DX =    0.0                 !
 ! A1    L(2,1,3,-3,-1)        179.9961         -DE/DX =    0.0                 !
 ! A2    L(1,2,4,-3,-1)        179.9961         -DE/DX =    0.0                 !
 ! A3    L(2,1,3,-2,-2)        180.0            -DE/DX =    0.0                 !
 ! A4    L(1,2,4,-2,-2)        180.0            -DE/DX =    0.0                 !
 --------------------------------------------------------------------------------
 Lowest energy point so far.  Saving SCF results.
 Largest change from initial coordinates is atom    4       0.033 Angstoms.
 GradGradGradGradGradGradGradGradGradGradGradGradGradGradGradGradGradGrad

 Leave Link  103 at Mon Apr 21 17:29:37 2025, MaxMem=   536870912 cpu:               0.2 elap:               0.1
 (Enter /home/szhao/Apps/g16/l202.exe)
                          Input orientation:                          
 ---------------------------------------------------------------------
 Center     Atomic      Atomic             Coordinates (Angstroms)
 Number     Number       Type             X           Y           Z
 ---------------------------------------------------------------------
      1          5           0       -1.978410    0.000000    0.000000
      2          5           0        1.978410    0.000000    0.000000
      3          1           0       -3.183927   -0.000082   -0.000000
      4          1           0        3.183927    0.000082   -0.000000
 ---------------------------------------------------------------------
                    Distance matrix (angstroms):
                    1          2          3          4
     1  B    0.000000
     2  B    3.956821   0.000000
     3  H    1.205517   5.162338   0.000000
     4  H    5.162338   1.205517   6.367855   0.000000
 Symmetry turned off by external request.
 Stoichiometry    B2H2(3)
 Framework group  C*V[C*(HBBH)]
 Deg. of freedom     3
 Full point group                 C*V     NOp   4
 Rotational constants (GHZ):           0.0000000           4.7401506           4.7401506
 Leave Link  202 at Mon Apr 21 17:29:37 2025, MaxMem=   536870912 cpu:               0.1 elap:               0.0
 (Enter /home/szhao/Apps/g16/l601.exe)
 Copying SCF densities to generalized density rwf, IOpCl= 1 IROHF=0.

 **********************************************************************

            Population analysis using the SCF density.

 **********************************************************************

 Alpha  occ. eigenvalues --   -7.14439  -7.14439  -0.56912  -0.56740  -0.33442
 Alpha  occ. eigenvalues --   -0.30884  -0.17771
 Alpha virt. eigenvalues --   -0.10193  -0.06418  -0.05497   0.02694   0.02873
 Alpha virt. eigenvalues --    0.05694   0.06982   0.07107   0.07961   0.08109
 Alpha virt. eigenvalues --    0.11459   0.16571   0.22044   0.33186   0.39501
 Alpha virt. eigenvalues --    0.40004   0.40232   0.41917   0.42571   0.42879
 Alpha virt. eigenvalues --    0.55342   0.59251   0.61891   0.79995   0.80081
 Alpha virt. eigenvalues --    0.80355   0.80618   0.83619   0.83705   0.84364
 Alpha virt. eigenvalues --    0.84448   1.10695   1.14393   1.64771   1.64922
 Alpha virt. eigenvalues --    1.65182   1.65358   1.80244   1.81374   1.82664
 Alpha virt. eigenvalues --    1.83184   1.83806   1.93792   2.29551   2.35237
 Alpha virt. eigenvalues --    2.59932   2.60136  14.19137  14.21593
  Beta  occ. eigenvalues --   -7.13535  -7.13534  -0.53611  -0.53475  -0.23729
  Beta virt. eigenvalues --   -0.11646  -0.04538  -0.04024  -0.03198  -0.02659
  Beta virt. eigenvalues --    0.01876   0.02424   0.07039   0.07316   0.07930
  Beta virt. eigenvalues --    0.08047   0.08881   0.09592   0.16918   0.23401
  Beta virt. eigenvalues --    0.33043   0.39473   0.39492   0.40140   0.42022
  Beta virt. eigenvalues --    0.42785   0.44586   0.56238   0.61214   0.63424
  Beta virt. eigenvalues --    0.82431   0.82882   0.82940   0.83391   0.87013
  Beta virt. eigenvalues --    0.87013   0.87030   0.87030   1.11977   1.15125
  Beta virt. eigenvalues --    1.66238   1.66532   1.66618   1.66928   1.83712
  Beta virt. eigenvalues --    1.84785   1.86094   1.87018   1.87060   1.98074
  Beta virt. eigenvalues --    2.37836   2.42674   2.61335   2.61738  14.21094
  Beta virt. eigenvalues --   14.23566
          Condensed to atoms (all electrons):
               1          2          3          4
     1  B    4.722467   0.081947   0.259353  -0.001943
     2  B    0.081947   4.722467  -0.001943   0.259353
     3  H    0.259353  -0.001943   0.680747   0.000018
     4  H   -0.001943   0.259353   0.000018   0.680747
          Atomic-Atomic Spin Densities.
               1          2          3          4
     1  B    1.048211  -0.082437  -0.043008   0.004665
     2  B   -0.082437   1.048211   0.004665  -0.043008
     3  H   -0.043008   0.004665   0.110924  -0.000014
     4  H    0.004665  -0.043008  -0.000014   0.110924
 Mulliken charges and spin densities:
               1          2
     1  B   -0.061825   0.927432
     2  B   -0.061825   0.927432
     3  H    0.061825   0.072568
     4  H    0.061825   0.072568
 Sum of Mulliken charges =  -0.00000   2.00000
 Mulliken charges and spin densities with hydrogens summed into heavy atoms:
               1          2
     1  B    0.000000   1.000000
     2  B   -0.000000   1.000000
 Electronic spatial extent (au):  <R**2>=            241.1666
 Charge=             -0.0000 electrons
 Dipole moment (field-independent basis, Debye):
    X=             -0.0000    Y=             -0.0000    Z=             -0.0000  Tot=              0.0000
 Quadrupole moment (field-independent basis, Debye-Ang):
   XX=             -7.6248   YY=            -13.6811   ZZ=            -17.6849
   XY=              0.0000   XZ=             -0.0000   YZ=             -0.0012
 Traceless Quadrupole moment (field-independent basis, Debye-Ang):
   XX=              5.3722   YY=             -0.6842   ZZ=             -4.6879
   XY=              0.0000   XZ=             -0.0000   YZ=             -0.0012
 Octapole moment (field-independent basis, Debye-Ang**2):
  XXX=             -0.0000  YYY=              0.0000  ZZZ=              0.0000  XYY=             -0.0000
  XXY=              0.0000  XXZ=             -0.0000  XZZ=             -0.0000  YZZ=              0.0000
  YYZ=              0.0000  XYZ=             -0.0000
 Hexadecapole moment (field-independent basis, Debye-Ang**3):
 XXXX=           -392.0413 YYYY=            -22.3146 ZZZZ=            -40.0454 XXXY=             -0.0030
 XXXZ=              0.0000 YYYX=             -0.0012 YYYZ=             -0.0026 ZZZX=              0.0000
 ZZZY=             -0.0026 XXYY=            -65.4503 XXZZ=            -82.9998 YYZZ=            -10.3933
 XXYZ=             -0.0052 YYXZ=              0.0000 ZZXY=             -0.0004
 N-N= 8.841252692759D+00 E-N=-1.336254326671D+02  KE= 5.016107958475D+01
                          Isotropic Fermi Contact Couplings
        Atom                 a.u.       MegaHertz       Gauss      10(-4) cm-1
     1  B(11)              0.49942     358.17668     127.80634     119.47488
     2  B(11)              0.49942     358.17668     127.80635     119.47488
     3  H(1)               0.03686      82.37444      29.39325      27.47716
     4  H(1)               0.03686      82.37445      29.39325      27.47716
 --------------------------------------------------------
       Center         ----  Spin Dipole Couplings  ----
                      3XX-RR        3YY-RR        3ZZ-RR
 --------------------------------------------------------
     1   Atom        0.075717     -0.240524      0.164807
     2   Atom        0.075717     -0.240524      0.164807
     3   Atom        0.045154     -0.035672     -0.009482
     4   Atom        0.045154     -0.035672     -0.009482
 --------------------------------------------------------
                        XY            XZ            YZ
 --------------------------------------------------------
     1   Atom        0.000036     -0.000000      0.000120
     2   Atom        0.000036     -0.000000      0.000120
     3   Atom        0.000006     -0.000000      0.000008
     4   Atom        0.000006     -0.000000      0.000008
 --------------------------------------------------------


 ---------------------------------------------------------------------------------
              Anisotropic Spin Dipole Couplings in Principal Axis System
 ---------------------------------------------------------------------------------

       Atom             a.u.   MegaHertz   Gauss  10(-4) cm-1        Axes

              Baa    -0.2405   -41.181   -14.694   -13.737 -0.0001  1.0000 -0.0003
     1 B(11)  Bbb     0.0757    12.964     4.626     4.324  1.0000  0.0001 -0.0000
              Bcc     0.1648    28.217    10.069     9.412  0.0000  0.0003  1.0000
 
              Baa    -0.2405   -41.181   -14.694   -13.737 -0.0001  1.0000 -0.0003
     2 B(11)  Bbb     0.0757    12.964     4.626     4.324  1.0000  0.0001 -0.0000
              Bcc     0.1648    28.217    10.069     9.412 -0.0000  0.0003  1.0000
 
              Baa    -0.0357   -19.033    -6.791    -6.349 -0.0001  1.0000 -0.0003
     3 H(1)   Bbb    -0.0095    -5.059    -1.805    -1.688 -0.0000  0.0003  1.0000
              Bcc     0.0452    24.092     8.597     8.036  1.0000  0.0001  0.0000
 
              Baa    -0.0357   -19.033    -6.791    -6.349 -0.0001  1.0000 -0.0003
     4 H(1)   Bbb    -0.0095    -5.059    -1.805    -1.688  0.0000  0.0003  1.0000
              Bcc     0.0452    24.092     8.597     8.036  1.0000  0.0001 -0.0000
 

 ---------------------------------------------------------------------------------

 No NMR shielding tensors so no spin-rotation constants.
 Leave Link  601 at Mon Apr 21 17:29:37 2025, MaxMem=   536870912 cpu:               1.9 elap:               0.3
 (Enter /home/szhao/Apps/g16/l9999.exe)
 1\1\GINC-NODE06\FOpt\UM062X\6-311+G(d,p)\B2H2(3)\SZHAO\21-Apr-2025\0\\
 #p opt UM062X/6-311+G** nosymm int=superfine\\Title Card Required\\0,3
 \B,-1.97841047,0.,0.\B,1.97841047,0.,0.\H,-3.1839273292,-0.0000822503,
 -0.0000000013\H,3.1839273511,0.0000822483,-0.00000005\\Version=ES64L-G
 16RevA.03\HF=-50.4777376\S2=2.021717\S2-1=0.\S2A=2.000018\RMSD=2.259e-
 09\RMSF=4.372e-07\Dipole=0.,0.,0.\Quadrupole=3.9940705,-0.5087025,-3.4
 853681,0.0000152,0.,-0.0008835\PG=C*V [C*(H1B1B1H1)]\\@


 NEVER LISTEN TO CRITICISM
 OR YOU'LL BE DOIN' EVERYBODY ELSE'S THING BUT BUT YOUR OWN.

                                               -- ANDY CAPP
 Job cpu time:       0 days  0 hours  2 minutes 12.5 seconds.
 Elapsed time:       0 days  0 hours  0 minutes 18.5 seconds.
 File lengths (MBytes):  RWF=     17 Int=      0 D2E=      0 Chk=      2 Scr=      2
 Normal termination of Gaussian 16 at Mon Apr 21 17:29:38 2025.
