 Entering Gaussian System, Link 0=g16
 Initial command:
 /home/szhao/Apps/g16/l1.exe "/home/szhao/tmp/Gau-15505.inp" -scrdir="/home/szhao/tmp/"
 Default is to use a total of  16 processors:
                               16 via shared-memory
                                1 via Linda
 Entering Link 1 = /home/szhao/Apps/g16/l1.exe PID=     15521.
  
 Copyright (c) 1988,1990,1992,1993,1995,1998,2003,2009,2016,
            Gaussian, Inc.  All Rights Reserved.
  
 This is part of the Gaussian(R) 16 program.  It is based on
 the Gaussian(R) 09 system (copyright 2009, Gaussian, Inc.),
 the Gaussian(R) 03 system (copyright 2003, Gaussian, Inc.),
 the Gaussian(R) 98 system (copyright 1998, Gaussian, Inc.),
 the Gaussian(R) 94 system (copyright 1995, Gaussian, Inc.),
 the Gaussian 92(TM) system (copyright 1992, Gaussian, Inc.),
 the Gaussian 90(TM) system (copyright 1990, Gaussian, Inc.),
 the Gaussian 88(TM) system (copyright 1988, Gaussian, Inc.),
 the Gaussian 86(TM) system (copyright 1986, Carnegie Mellon
 University), and the Gaussian 82(TM) system (copyright 1983,
 Carnegie Mellon University). Gaussian is a federally registered
 trademark of Gaussian, Inc.
  
 This software contains proprietary and confidential information,
 including trade secrets, belonging to Gaussian, Inc.
  
 This software is provided under written license and may be
 used, copied, transmitted, or stored only in accord with that
 written license.
  
 The following legend is applicable only to US Government
 contracts under FAR:
  
                    RESTRICTED RIGHTS LEGEND
  
 Use, reproduction and disclosure by the US Government is
 subject to restrictions as set forth in subparagraphs (a)
 and (c) of the Commercial Computer Software - Restricted
 Rights clause in FAR 52.227-19.
  
 Gaussian, Inc.
 340 Quinnipiac St., Bldg. 40, Wallingford CT 06492
  
  
 ---------------------------------------------------------------
 Warning -- This program may not be used in any manner that
 competes with the business of Gaussian, Inc. or will provide
 assistance to any competitor of Gaussian, Inc.  The licensee
 of this program is prohibited from giving any competitor of
 Gaussian, Inc. access to this program.  By using this program,
 the user acknowledges that Gaussian, Inc. is engaged in the
 business of creating and licensing software in the field of
 computational chemistry and represents and warrants to the
 licensee that it is not a competitor of Gaussian, Inc. and that
 it will not use this program in any manner prohibited above.
 ---------------------------------------------------------------
  

 Cite this work as:
 Gaussian 16, Revision A.03,
 M. J. Frisch, G. W. Trucks, H. B. Schlegel, G. E. Scuseria, 
 M. A. Robb, J. R. Cheeseman, G. Scalmani, V. Barone, 
 G. A. Petersson, H. Nakatsuji, X. Li, M. Caricato, A. V. Marenich, 
 J. Bloino, B. G. Janesko, R. Gomperts, B. Mennucci, H. P. Hratchian, 
 J. V. Ortiz, A. F. Izmaylov, J. L. Sonnenberg, D. Williams-Young, 
 F. Ding, F. Lipparini, F. Egidi, J. Goings, B. Peng, A. Petrone, 
 T. Henderson, D. Ranasinghe, V. G. Zakrzewski, J. Gao, N. Rega, 
 G. Zheng, W. Liang, M. Hada, M. Ehara, K. Toyota, R. Fukuda, 
 J. Hasegawa, M. Ishida, T. Nakajima, Y. Honda, O. Kitao, H. Nakai, 
 T. Vreven, K. Throssell, J. A. Montgomery, Jr., J. E. Peralta, 
 F. Ogliaro, M. J. Bearpark, J. J. Heyd, E. N. Brothers, K. N. Kudin, 
 V. N. Staroverov, T. A. Keith, R. Kobayashi, J. Normand, 
 K. Raghavachari, A. P. Rendell, J. C. Burant, S. S. Iyengar, 
 J. Tomasi, M. Cossi, J. M. Millam, M. Klene, C. Adamo, R. Cammi, 
 J. W. Ochterski, R. L. Martin, K. Morokuma, O. Farkas, 
 J. B. Foresman, and D. J. Fox, Gaussian, Inc., Wallingford CT, 2016.
 
 ******************************************
 Gaussian 16:  ES64L-G16RevA.03 25-Dec-2016
                21-Apr-2025 
 ******************************************
 %chk=opt.chk
 %mem=4GB
 %nprocshared=8
 Will use up to    8 processors via shared memory.
 --------------------------------------------
 #p opt UM062X/6-311+G** nosymm int=superfine
 --------------------------------------------
 1/18=20,19=15,26=5,38=1/1,3;
 2/9=110,12=2,15=1,17=6,18=5,40=1/2;
 3/5=4,6=6,7=111,11=2,25=1,30=1,71=1,74=-55,75=-7,116=2/1,2,3;
 4//1;
 5/5=2,38=5/2;
 6/7=2,8=2,9=2,10=2,28=1/1;
 7/30=1/1,2,3,16;
 1/18=20,19=15,26=5/3(2);
 2/9=110,15=1/2;
 99//99;
 2/9=110,15=1/2;
 3/5=4,6=6,7=111,11=2,25=1,30=1,71=1,74=-55,75=-7,116=2/1,2,3;
 4/5=5,16=3,69=1/1;
 5/5=2,38=5/2;
 7/30=1/1,2,3,16;
 1/18=20,19=15,26=5/3(-5);
 2/9=110,15=1/2;
 6/7=2,8=2,9=2,10=2,19=2,28=1/1;
 99/9=1/99;
 Leave Link    1 at Mon Apr 21 18:35:44 2025, MaxMem=   536870912 cpu:               3.3 elap:               0.5
 (Enter /home/szhao/Apps/g16/l101.exe)
 -------------------
 Title Card Required
 -------------------
 Symbolic Z-matrix:
 Charge =  0 Multiplicity = 1
 C                    -1   -1.3322    0.        0. 
 O                    -1    1.3322    0.        0. 
 H                    0     1.64239  -0.90717   0. 
 H                    0    -1.74314  -0.48457   0.89177 
 H                    0    -1.64812   1.0422   -0.00092 
 H                    0    -1.74253  -0.48604  -0.89118 
 
 Add virtual bond connecting atoms O2         and C1         Dist= 5.03D+00.
 ITRead=  2  2  0  0  0  0
 MicOpt= -2 -2 -1 -1 -1 -1
 NAtoms=      6 NQM=        4 NQMF=       2 NMMI=      0 NMMIF=      0
                NMic=       0 NMicF=      0.
                    Isotopes and Nuclear Properties:
 (Nuclear quadrupole moments (NQMom) in fm**2, nuclear magnetic moments (NMagM)
  in nuclear magnetons)

  Atom         1           2           3           4           5           6
 IAtWgt=          12          16           1           1           1           1
 AtmWgt=  12.0000000  15.9949146   1.0078250   1.0078250   1.0078250   1.0078250
 NucSpn=           0           0           1           1           1           1
 AtZEff=  -0.0000000  -0.0000000  -0.0000000  -0.0000000  -0.0000000  -0.0000000
 NQMom=    0.0000000   0.0000000   0.0000000   0.0000000   0.0000000   0.0000000
 NMagM=    0.0000000   0.0000000   2.7928460   2.7928460   2.7928460   2.7928460
 AtZNuc=   6.0000000   8.0000000   1.0000000   1.0000000   1.0000000   1.0000000
 Leave Link  101 at Mon Apr 21 18:35:45 2025, MaxMem=   536870912 cpu:               3.3 elap:               0.6
 (Enter /home/szhao/Apps/g16/l103.exe)

 GradGradGradGradGradGradGradGradGradGradGradGradGradGradGradGradGradGrad
 Berny optimization.
 Initialization pass.
                           ----------------------------
                           !    Initial Parameters    !
                           ! (Angstroms and Degrees)  !
 --------------------------                            --------------------------
 ! Name  Definition              Value          Derivative Info.                !
 --------------------------------------------------------------------------------
 ! X1    R(1,-1)                -1.3322         Frozen                          !
 ! Y1    R(1,-2)                 0.0            Frozen                          !
 ! Z1    R(1,-3)                 0.0            Frozen                          !
 ! X2    R(2,-1)                 1.3322         Frozen                          !
 ! Y2    R(2,-2)                 0.0            Frozen                          !
 ! Z2    R(2,-3)                 0.0            Frozen                          !
 ! R1    R(1,4)                  1.095          estimate D2E/DX2                !
 ! R2    R(1,5)                  1.089          estimate D2E/DX2                !
 ! R3    R(1,6)                  1.0949         estimate D2E/DX2                !
 ! R4    R(2,3)                  0.9587         estimate D2E/DX2                !
 ! A1    A(2,1,4)              112.043          estimate D2E/DX2                !
 ! A2    A(2,1,5)              106.8632         estimate D2E/DX2                !
 ! A3    A(2,1,6)              112.0097         estimate D2E/DX2                !
 ! A4    A(4,1,5)              108.381          estimate D2E/DX2                !
 ! A5    A(4,1,6)              109.0137         estimate D2E/DX2                !
 ! A6    A(5,1,6)              108.3865         estimate D2E/DX2                !
 ! A7    A(1,2,3)              108.8771         estimate D2E/DX2                !
 ! D1    D(4,1,2,3)             61.4811         estimate D2E/DX2                !
 ! D2    D(5,1,2,3)           -179.9495         estimate D2E/DX2                !
 ! D3    D(6,1,2,3)            -61.3923         estimate D2E/DX2                !
 --------------------------------------------------------------------------------
 Trust Radius=3.00D-01 FncErr=1.00D-07 GrdErr=1.00D-07 EigMax=2.50D+02 EigMin=1.00D-04
 Number of steps in this run=     30 maximum allowed number of steps=    100.
 GradGradGradGradGradGradGradGradGradGradGradGradGradGradGradGradGradGrad

 Leave Link  103 at Mon Apr 21 18:35:45 2025, MaxMem=   536870912 cpu:               0.4 elap:               0.1
 (Enter /home/szhao/Apps/g16/l202.exe)
                          Input orientation:                          
 ---------------------------------------------------------------------
 Center     Atomic      Atomic             Coordinates (Angstroms)
 Number     Number       Type             X           Y           Z
 ---------------------------------------------------------------------
      1          6           0       -1.332203    0.000000    0.000000
      2          8           0        1.332203    0.000000    0.000000
      3          1           0        1.642391   -0.907170    0.000000
      4          1           0       -1.743141   -0.484570    0.891766
      5          1           0       -1.648117    1.042202   -0.000918
      6          1           0       -1.742532   -0.486043   -0.891183
 ---------------------------------------------------------------------
                    Distance matrix (angstroms):
                    1          2          3          4          5
     1  C    0.000000
     2  O    2.664405   0.000000
     3  H    3.109849   0.958736   0.000000
     4  H    1.094954   3.238486   3.526424   0.000000
     5  H    1.089031   3.157292   3.824591   1.771143   0.000000
     6  H    1.094904   3.237968   3.525515   1.782949   1.771164
                    6
     6  H    0.000000
 Symmetry turned off by external request.
 Stoichiometry    CH4O
 Framework group  C1[X(CH4O)]
 Deg. of freedom    12
 Full point group                 C1      NOp   1
 Rotational constants (GHZ):         128.2263513           8.0473630           7.9539529
 Leave Link  202 at Mon Apr 21 18:35:45 2025, MaxMem=   536870912 cpu:               0.6 elap:               0.1
 (Enter /home/szhao/Apps/g16/l301.exe)
 Standard basis: 6-311+G(d,p) (5D, 7F)
 Ernie: Thresh=  0.10000D-02 Tol=  0.10000D-05 Strict=F.
    68 basis functions,   104 primitive gaussians,    70 cartesian basis functions
     9 alpha electrons        9 beta electrons
       nuclear repulsion energy        28.9733007094 Hartrees.
 IExCor= 4336 DFT=T Ex+Corr=M062X ExCW=0 ScaHFX=  0.540000
 ScaDFX=  1.000000  1.000000  1.000000  1.000000 ScalE2=  1.000000  1.000000
 IRadAn=      7 IRanWt=     -1 IRanGd=            0 ICorTp=0 IEmpDi=  4
 NAtoms=    6 NActive=    6 NUniq=    6 SFac= 1.00D+00 NAtFMM=   60 NAOKFM=F Big=F
 Integral buffers will be    131072 words long.
 Raffenetti 2 integral format.
 Two-electron integral symmetry is turned off.
 Leave Link  301 at Mon Apr 21 18:35:46 2025, MaxMem=   536870912 cpu:               0.8 elap:               0.2
 (Enter /home/szhao/Apps/g16/l302.exe)
 NPDir=0 NMtPBC=     1 NCelOv=     1 NCel=       1 NClECP=     1 NCelD=      1
         NCelK=      1 NCelE2=     1 NClLst=     1 CellRange=     0.0.
 One-electron integrals computed using PRISM.
 NBasis=    68 RedAO= T EigKep=  5.60D-03  NBF=    68
 NBsUse=    68 1.00D-06 EigRej= -1.00D+00 NBFU=    68
 Precomputing XC quadrature grid using
 IXCGrd= 4 IRadAn=           7 IRanWt=          -1 IRanGd=           0 AccXCQ= 0.00D+00.
 Generated NRdTot=       0 NPtTot=           0 NUsed=           0 NTot=          32
 NSgBfM=    70    70    70    70    70 MxSgAt=     6 MxSgA2=     6.
 Leave Link  302 at Mon Apr 21 18:35:46 2025, MaxMem=   536870912 cpu:               2.5 elap:               0.4
 (Enter /home/szhao/Apps/g16/l303.exe)
 DipDrv:  MaxL=1.
 Leave Link  303 at Mon Apr 21 18:35:47 2025, MaxMem=   536870912 cpu:               1.0 elap:               0.3
 (Enter /home/szhao/Apps/g16/l401.exe)
 ExpMin= 4.38D-02 ExpMax= 8.59D+03 ExpMxC= 1.30D+03 IAcc=3 IRadAn=         7 AccDes= 0.00D+00
 Harris functional with IExCor= 1009 and IRadAn=       7 diagonalized for initial guess.
 HarFok:  IExCor= 1009 AccDes= 0.00D+00 IRadAn=         7 IDoV= 1 UseB2=F ITyADJ=14
 ICtDFT=  3500011 ScaDFX=  1.000000  1.000000  1.000000  1.000000
 FoFCou: FMM=F IPFlag=           0 FMFlag=      100000 FMFlg1=           0
         NFxFlg=           0 DoJE=T BraDBF=F KetDBF=T FulRan=T
         wScrn=  0.000000 ICntrl=       500 IOpCl=  0 I1Cent=   200000004 NGrid=           0
         NMat0=    1 NMatS0=      1 NMatT0=    0 NMatD0=    1 NMtDS0=    0 NMtDT0=    0
 Symmetry not used in FoFCou.
 Harris En= -115.531210876495    
 JPrj=0 DoOrth=F DoCkMO=F.
 Initial guess <Sx>= 0.0000 <Sy>= 0.0000 <Sz>= 0.0000 <S**2>= 0.0000 S= 0.0000
 Leave Link  401 at Mon Apr 21 18:35:48 2025, MaxMem=   536870912 cpu:               5.7 elap:               1.0
 (Enter /home/szhao/Apps/g16/l502.exe)
 Keep R1 and R2 ints in memory in canonical form, NReq=12681626.
 FoFCou: FMM=F IPFlag=           0 FMFlag=           0 FMFlg1=           0
         NFxFlg=           0 DoJE=F BraDBF=F KetDBF=F FulRan=T
         wScrn=  0.000000 ICntrl=       600 IOpCl=  0 I1Cent=           0 NGrid=           0
         NMat0=    1 NMatS0=   2346 NMatT0=    0 NMatD0=    1 NMtDS0=    0 NMtDT0=    0
 Symmetry not used in FoFCou.
 Two-electron integral symmetry not used.
 UHF open shell SCF:
 Using DIIS extrapolation, IDIIS=  1040.
 NGot=   536870912 LenX=   531353782 LenY=   531348441
 Requested convergence on RMS density matrix=1.00D-08 within 128 cycles.
 Requested convergence on MAX density matrix=1.00D-06.
 Requested convergence on             energy=1.00D-06.
 No special actions if energy rises.

 Cycle   1  Pass 1  IDiag  1:
 E= -115.333764529552    
 DIIS: error= 6.72D-02 at cycle   1 NSaved=   1.
 NSaved= 1 IEnMin= 1 EnMin= -115.333764529552     IErMin= 1 ErrMin= 6.72D-02
 ErrMax= 6.72D-02  0.00D+00 EMaxC= 1.00D-01 BMatC= 8.14D-01 BMatP= 8.14D-01
 IDIUse=3 WtCom= 3.28D-01 WtEn= 6.72D-01
 Coeff-Com:  0.100D+01
 Coeff-En:   0.100D+01
 Coeff:      0.100D+01
 Gap=    -0.136 Goal=   None    Shift=    0.000
 Gap=    -0.136 Goal=   None    Shift=    0.000
 GapD=   -0.136 DampG=0.250 DampE=0.500 DampFc=0.2500 IDamp=-1.
 Damping current iteration by 2.50D-01
 RMSDP=1.23D-02 MaxDP=1.61D-01              OVMax= 7.09D-01

 Cycle   2  Pass 1  IDiag  1:
 E= -115.386921863481     Delta-E=       -0.053157333928 Rises=F Damp=T
 DIIS: error= 1.87D-02 at cycle   2 NSaved=   2.
 NSaved= 2 IEnMin= 2 EnMin= -115.386921863481     IErMin= 2 ErrMin= 1.87D-02
 ErrMax= 1.87D-02  0.00D+00 EMaxC= 1.00D-01 BMatC= 9.90D-02 BMatP= 8.14D-01
 IDIUse=3 WtCom= 8.13D-01 WtEn= 1.87D-01
 Coeff-Com: -0.157D+00 0.116D+01
 Coeff-En:   0.233D+00 0.767D+00
 Coeff:     -0.844D-01 0.108D+01
 Gap=     0.259 Goal=   None    Shift=    0.000
 Gap=     0.259 Goal=   None    Shift=    0.000
 RMSDP=2.48D-03 MaxDP=5.15D-02 DE=-5.32D-02 OVMax= 6.77D-01

 Cycle   3  Pass 1  IDiag  1:
 E= -115.492852554168     Delta-E=       -0.105930690688 Rises=F Damp=F
 DIIS: error= 1.90D-02 at cycle   3 NSaved=   3.
 NSaved= 3 IEnMin= 3 EnMin= -115.492852554168     IErMin= 2 ErrMin= 1.87D-02
 ErrMax= 1.90D-02  0.00D+00 EMaxC= 1.00D-01 BMatC= 5.27D-02 BMatP= 9.90D-02
 IDIUse=3 WtCom= 8.10D-01 WtEn= 1.90D-01
 Coeff-Com: -0.140D+00 0.540D+00 0.600D+00
 Coeff-En:   0.000D+00 0.000D+00 0.100D+01
 Coeff:     -0.113D+00 0.437D+00 0.676D+00
 Gap=     0.161 Goal=   None    Shift=    0.000
 Gap=     0.161 Goal=   None    Shift=    0.000
 RMSDP=1.99D-03 MaxDP=3.67D-02 DE=-1.06D-01 OVMax= 1.71D-01

 Cycle   4  Pass 1  IDiag  1:
 E= -115.502524539863     Delta-E=       -0.009671985695 Rises=F Damp=F
 DIIS: error= 1.55D-02 at cycle   4 NSaved=   4.
 NSaved= 4 IEnMin= 4 EnMin= -115.502524539863     IErMin= 4 ErrMin= 1.55D-02
 ErrMax= 1.55D-02  0.00D+00 EMaxC= 1.00D-01 BMatC= 4.28D-02 BMatP= 5.27D-02
 IDIUse=3 WtCom= 8.45D-01 WtEn= 1.55D-01
 Coeff-Com:  0.116D+00-0.142D+00 0.346D+00 0.679D+00
 Coeff-En:   0.000D+00 0.000D+00 0.366D+00 0.634D+00
 Coeff:      0.984D-01-0.120D+00 0.349D+00 0.672D+00
 Gap=     0.206 Goal=   None    Shift=    0.000
 Gap=     0.206 Goal=   None    Shift=    0.000
 RMSDP=6.87D-04 MaxDP=1.31D-02 DE=-9.67D-03 OVMax= 4.90D-02

 Cycle   5  Pass 1  IDiag  1:
 E= -115.512766359779     Delta-E=       -0.010241819915 Rises=F Damp=F
 DIIS: error= 2.48D-03 at cycle   5 NSaved=   5.
 NSaved= 5 IEnMin= 5 EnMin= -115.512766359779     IErMin= 5 ErrMin= 2.48D-03
 ErrMax= 2.48D-03  0.00D+00 EMaxC= 1.00D-01 BMatC= 1.18D-03 BMatP= 4.28D-02
 IDIUse=3 WtCom= 9.75D-01 WtEn= 2.48D-02
 Coeff-Com:  0.323D-01-0.566D-01 0.466D-01-0.137D-01 0.991D+00
 Coeff-En:   0.000D+00 0.000D+00 0.000D+00 0.000D+00 0.100D+01
 Coeff:      0.315D-01-0.552D-01 0.454D-01-0.133D-01 0.992D+00
 Gap=     0.199 Goal=   None    Shift=    0.000
 Gap=     0.199 Goal=   None    Shift=    0.000
 RMSDP=1.43D-04 MaxDP=1.55D-03 DE=-1.02D-02 OVMax= 4.75D-03

 Cycle   6  Pass 1  IDiag  1:
 E= -115.513023891217     Delta-E=       -0.000257531438 Rises=F Damp=F
 DIIS: error= 1.05D-03 at cycle   6 NSaved=   6.
 NSaved= 6 IEnMin= 6 EnMin= -115.513023891217     IErMin= 6 ErrMin= 1.05D-03
 ErrMax= 1.05D-03  0.00D+00 EMaxC= 1.00D-01 BMatC= 2.15D-04 BMatP= 1.18D-03
 IDIUse=3 WtCom= 9.90D-01 WtEn= 1.05D-02
 Coeff-Com:  0.517D-02-0.577D-02 0.467D-02-0.508D-01-0.280D-01 0.107D+01
 Coeff-En:   0.000D+00 0.000D+00 0.000D+00 0.000D+00 0.000D+00 0.100D+01
 Coeff:      0.511D-02-0.571D-02 0.462D-02-0.502D-01-0.277D-01 0.107D+01
 Gap=     0.199 Goal=   None    Shift=    0.000
 Gap=     0.199 Goal=   None    Shift=    0.000
 RMSDP=6.08D-05 MaxDP=7.17D-04 DE=-2.58D-04 OVMax= 3.47D-03

 Cycle   7  Pass 1  IDiag  1:
 E= -115.513077976677     Delta-E=       -0.000054085460 Rises=F Damp=F
 DIIS: error= 7.50D-05 at cycle   7 NSaved=   7.
 NSaved= 7 IEnMin= 7 EnMin= -115.513077976677     IErMin= 7 ErrMin= 7.50D-05
 ErrMax= 7.50D-05  0.00D+00 EMaxC= 1.00D-01 BMatC= 9.77D-07 BMatP= 2.15D-04
 IDIUse=1 WtCom= 1.00D+00 WtEn= 0.00D+00
 Coeff-Com:  0.362D-03-0.654D-03 0.272D-02 0.491D-02-0.346D-01 0.457D-04
 Coeff-Com:  0.103D+01
 Coeff:      0.362D-03-0.654D-03 0.272D-02 0.491D-02-0.346D-01 0.457D-04
 Coeff:      0.103D+01
 Gap=     0.199 Goal=   None    Shift=    0.000
 Gap=     0.199 Goal=   None    Shift=    0.000
 RMSDP=5.17D-06 MaxDP=5.77D-05 DE=-5.41D-05 OVMax= 1.45D-04

 Cycle   8  Pass 1  IDiag  1:
 E= -115.513078226016     Delta-E=       -0.000000249338 Rises=F Damp=F
 DIIS: error= 3.50D-05 at cycle   8 NSaved=   8.
 NSaved= 8 IEnMin= 8 EnMin= -115.513078226016     IErMin= 8 ErrMin= 3.50D-05
 ErrMax= 3.50D-05  0.00D+00 EMaxC= 1.00D-01 BMatC= 2.48D-07 BMatP= 9.77D-07
 IDIUse=1 WtCom= 1.00D+00 WtEn= 0.00D+00
 Coeff-Com:  0.221D-03-0.261D-03 0.133D-03 0.578D-03 0.646D-03-0.324D-01
 Coeff-Com: -0.136D-01 0.104D+01
 Coeff:      0.221D-03-0.261D-03 0.133D-03 0.578D-03 0.646D-03-0.324D-01
 Coeff:     -0.136D-01 0.104D+01
 Gap=     0.199 Goal=   None    Shift=    0.000
 Gap=     0.199 Goal=   None    Shift=    0.000
 RMSDP=1.71D-06 MaxDP=2.28D-05 DE=-2.49D-07 OVMax= 8.44D-05

 Cycle   9  Pass 1  IDiag  1:
 E= -115.513078282993     Delta-E=       -0.000000056977 Rises=F Damp=F
 DIIS: error= 7.48D-06 at cycle   9 NSaved=   9.
 NSaved= 9 IEnMin= 9 EnMin= -115.513078282993     IErMin= 9 ErrMin= 7.48D-06
 ErrMax= 7.48D-06  0.00D+00 EMaxC= 1.00D-01 BMatC= 9.69D-09 BMatP= 2.48D-07
 IDIUse=1 WtCom= 1.00D+00 WtEn= 0.00D+00
 Coeff-Com:  0.672D-04-0.792D-04 0.664D-04 0.587D-04 0.395D-03-0.566D-02
 Coeff-Com: -0.897D-02 0.553D-01 0.959D+00
 Coeff:      0.672D-04-0.792D-04 0.664D-04 0.587D-04 0.395D-03-0.566D-02
 Coeff:     -0.897D-02 0.553D-01 0.959D+00
 Gap=     0.199 Goal=   None    Shift=    0.000
 Gap=     0.199 Goal=   None    Shift=    0.000
 RMSDP=3.01D-07 MaxDP=4.79D-06 DE=-5.70D-08 OVMax= 2.09D-05

 Cycle  10  Pass 1  IDiag  1:
 E= -115.513078285305     Delta-E=       -0.000000002312 Rises=F Damp=F
 DIIS: error= 1.74D-06 at cycle  10 NSaved=  10.
 NSaved=10 IEnMin=10 EnMin= -115.513078285305     IErMin=10 ErrMin= 1.74D-06
 ErrMax= 1.74D-06  0.00D+00 EMaxC= 1.00D-01 BMatC= 4.48D-10 BMatP= 9.69D-09
 IDIUse=1 WtCom= 1.00D+00 WtEn= 0.00D+00
 Coeff-Com:  0.313D-05-0.832D-05 0.494D-04 0.620D-04-0.324D-03 0.131D-02
 Coeff-Com:  0.104D-01-0.760D-01-0.458D-01 0.111D+01
 Coeff:      0.313D-05-0.832D-05 0.494D-04 0.620D-04-0.324D-03 0.131D-02
 Coeff:      0.104D-01-0.760D-01-0.458D-01 0.111D+01
 Gap=     0.199 Goal=   None    Shift=    0.000
 Gap=     0.199 Goal=   None    Shift=    0.000
 RMSDP=7.78D-08 MaxDP=1.39D-06 DE=-2.31D-09 OVMax= 5.46D-06

 Cycle  11  Pass 1  IDiag  1:
 E= -115.513078285422     Delta-E=       -0.000000000117 Rises=F Damp=F
 DIIS: error= 3.82D-07 at cycle  11 NSaved=  11.
 NSaved=11 IEnMin=11 EnMin= -115.513078285422     IErMin=11 ErrMin= 3.82D-07
 ErrMax= 3.82D-07  0.00D+00 EMaxC= 1.00D-01 BMatC= 1.77D-11 BMatP= 4.48D-10
 IDIUse=1 WtCom= 1.00D+00 WtEn= 0.00D+00
 Coeff-Com:  0.814D-06-0.879D-06-0.452D-05-0.328D-05-0.182D-04-0.838D-04
 Coeff-Com: -0.449D-03 0.758D-02-0.141D-01-0.234D+00 0.124D+01
 Coeff:      0.814D-06-0.879D-06-0.452D-05-0.328D-05-0.182D-04-0.838D-04
 Coeff:     -0.449D-03 0.758D-02-0.141D-01-0.234D+00 0.124D+01
 Gap=     0.199 Goal=   None    Shift=    0.000
 Gap=     0.199 Goal=   None    Shift=    0.000
 RMSDP=2.09D-08 MaxDP=2.41D-07 DE=-1.17D-10 OVMax= 1.42D-06

 Cycle  12  Pass 1  IDiag  1:
 E= -115.513078285427     Delta-E=       -0.000000000005 Rises=F Damp=F
 DIIS: error= 5.94D-08 at cycle  12 NSaved=  12.
 NSaved=12 IEnMin=12 EnMin= -115.513078285427     IErMin=12 ErrMin= 5.94D-08
 ErrMax= 5.94D-08  0.00D+00 EMaxC= 1.00D-01 BMatC= 3.02D-13 BMatP= 1.77D-11
 IDIUse=1 WtCom= 1.00D+00 WtEn= 0.00D+00
 Coeff-Com: -0.361D-08 0.131D-06-0.850D-06-0.198D-05 0.137D-04-0.678D-05
 Coeff-Com: -0.213D-03 0.699D-03 0.425D-02-0.379D-01-0.100D+00 0.113D+01
 Coeff:     -0.361D-08 0.131D-06-0.850D-06-0.198D-05 0.137D-04-0.678D-05
 Coeff:     -0.213D-03 0.699D-03 0.425D-02-0.379D-01-0.100D+00 0.113D+01
 Gap=     0.199 Goal=   None    Shift=    0.000
 Gap=     0.199 Goal=   None    Shift=    0.000
 RMSDP=5.09D-09 MaxDP=5.72D-08 DE=-5.17D-12 OVMax= 4.19D-07

 SCF Done:  E(UM062X) =  -115.513078285     A.U. after   12 cycles
            NFock= 12  Conv=0.51D-08     -V/T= 2.0059
 <Sx>= 0.0000 <Sy>= 0.0000 <Sz>= 0.0000 <S**2>=-0.0000 S=-0.0000
 <L.S>=  0.00000000000    
 KE= 1.148370132258D+02 PE=-3.291007973537D+02 EE= 6.977740513312D+01
 Annihilation of the first spin contaminant:
 S**2 before annihilation    -0.0000,   after     0.0000
 Leave Link  502 at Mon Apr 21 18:36:02 2025, MaxMem=   536870912 cpu:              97.6 elap:              13.5
 (Enter /home/szhao/Apps/g16/l601.exe)
 Copying SCF densities to generalized density rwf, IOpCl= 1 IROHF=0.

 **********************************************************************

            Population analysis using the SCF density.

 **********************************************************************

 Alpha  occ. eigenvalues --  -19.61800 -10.64880  -1.03925  -0.82416  -0.52026
 Alpha  occ. eigenvalues --   -0.51959  -0.48216  -0.35045  -0.33296
 Alpha virt. eigenvalues --   -0.13441   0.00872   0.04874   0.05443   0.06781
 Alpha virt. eigenvalues --    0.14310   0.15838   0.16113   0.20779   0.22843
 Alpha virt. eigenvalues --    0.23430   0.23968   0.31345   0.41258   0.41498
 Alpha virt. eigenvalues --    0.50118   0.57714   0.60734   0.61119   0.63393
 Alpha virt. eigenvalues --    0.80854   1.02271   1.03675   1.07762   1.10981
 Alpha virt. eigenvalues --    1.12417   1.32944   1.43264   1.45662   1.47002
 Alpha virt. eigenvalues --    1.50995   1.52900   1.54467   1.66711   1.66923
 Alpha virt. eigenvalues --    1.97362   2.11956   2.14509   2.14882   2.34648
 Alpha virt. eigenvalues --    2.44032   2.44971   2.49344   2.49943   2.52091
 Alpha virt. eigenvalues --    2.69362   2.87512   2.94520   3.01256   3.23278
 Alpha virt. eigenvalues --    3.24559   3.70265   3.70367   3.90832   5.10448
 Alpha virt. eigenvalues --    5.10619   5.60137  23.88207  49.94393
  Beta  occ. eigenvalues --  -19.61800 -10.64880  -1.03925  -0.82416  -0.52026
  Beta  occ. eigenvalues --   -0.51959  -0.48216  -0.35045  -0.33296
  Beta virt. eigenvalues --   -0.13441   0.00872   0.04874   0.05443   0.06781
  Beta virt. eigenvalues --    0.14310   0.15838   0.16113   0.20779   0.22843
  Beta virt. eigenvalues --    0.23430   0.23968   0.31345   0.41258   0.41498
  Beta virt. eigenvalues --    0.50118   0.57714   0.60734   0.61119   0.63393
  Beta virt. eigenvalues --    0.80854   1.02271   1.03675   1.07762   1.10981
  Beta virt. eigenvalues --    1.12417   1.32944   1.43264   1.45662   1.47002
  Beta virt. eigenvalues --    1.50995   1.52900   1.54467   1.66711   1.66923
  Beta virt. eigenvalues --    1.97362   2.11956   2.14509   2.14882   2.34648
  Beta virt. eigenvalues --    2.44032   2.44971   2.49344   2.49943   2.52091
  Beta virt. eigenvalues --    2.69362   2.87512   2.94520   3.01256   3.23278
  Beta virt. eigenvalues --    3.24559   3.70265   3.70367   3.90832   5.10448
  Beta virt. eigenvalues --    5.10619   5.60137  23.88207  49.94393
          Condensed to atoms (all electrons):
               1          2          3          4          5          6
     1  C    5.002062   0.137461   0.001233   0.376011   0.388078   0.376021
     2  O    0.137461   8.144110   0.248327  -0.006797  -0.004027  -0.006810
     3  H    0.001233   0.248327   0.516806   0.000108  -0.000094   0.000109
     4  H    0.376011  -0.006797   0.000108   0.504436  -0.028888  -0.029120
     5  H    0.388078  -0.004027  -0.000094  -0.028888   0.482717  -0.028881
     6  H    0.376021  -0.006810   0.000109  -0.029120  -0.028881   0.504414
          Atomic-Atomic Spin Densities.
               1          2          3          4          5          6
     1  C    0.000000   0.000000  -0.000000  -0.000000   0.000000   0.000000
     2  O    0.000000  -0.000000   0.000000   0.000000   0.000000   0.000000
     3  H   -0.000000   0.000000  -0.000000  -0.000000  -0.000000  -0.000000
     4  H   -0.000000   0.000000  -0.000000   0.000000   0.000000   0.000000
     5  H    0.000000   0.000000  -0.000000   0.000000  -0.000000   0.000000
     6  H    0.000000   0.000000  -0.000000   0.000000   0.000000   0.000000
 Mulliken charges and spin densities:
               1          2
     1  C   -0.280865   0.000000
     2  O   -0.512262  -0.000000
     3  H    0.233512  -0.000000
     4  H    0.184252   0.000000
     5  H    0.191096   0.000000
     6  H    0.184267   0.000000
 Sum of Mulliken charges =   0.00000   0.00000
 Mulliken charges and spin densities with hydrogens summed into heavy atoms:
               1          2
     1  C    0.278750   0.000000
     2  O   -0.278750  -0.000000
 Electronic spatial extent (au):  <R**2>=            170.8545
 Charge=              0.0000 electrons
 Dipole moment (field-independent basis, Debye):
    X=             -3.8447    Y=             -1.4438    Z=             -0.0003  Tot=              4.1068
 Quadrupole moment (field-independent basis, Debye-Ang):
   XX=             -9.8128   YY=            -12.1050   ZZ=            -14.2939
   XY=             -2.9269   XZ=             -0.0001   YZ=              0.0001
 Traceless Quadrupole moment (field-independent basis, Debye-Ang):
   XX=              2.2578   YY=             -0.0344   ZZ=             -2.2234
   XY=             -2.9269   XZ=             -0.0001   YZ=              0.0001
 Octapole moment (field-independent basis, Debye-Ang**2):
  XXX=             -1.6753  YYY=              1.0302  ZZZ=              0.0017  XYY=              2.3906
  XXY=             -4.3399  XXZ=              0.0009  XZZ=             -1.1852  YZZ=             -0.3836
  YYZ=             -0.0022  XYZ=              0.0000
 Hexadecapole moment (field-independent basis, Debye-Ang**3):
 XXXX=           -159.9623 YYYY=            -20.0586 ZZZZ=            -20.8799 XXXY=             -6.0489
 XXXZ=             -0.0038 YYYX=             -2.3259 YYYZ=             -0.0003 ZZZX=             -0.0030
 ZZZY=              0.0006 XXYY=            -26.5544 XXZZ=            -31.3677 YYZZ=             -7.1622
 XXYZ=             -0.0006 YYXZ=              0.0043 ZZXY=              2.1273
 N-N= 2.897330070943D+01 E-N=-3.291007984386D+02  KE= 1.148370132258D+02
                          Isotropic Fermi Contact Couplings
        Atom                 a.u.       MegaHertz       Gauss      10(-4) cm-1
     1  C(13)             -0.00000      -0.00000      -0.00000      -0.00000
     2  O(17)             -0.00000       0.00000       0.00000       0.00000
     3  H(1)              -0.00000      -0.00000      -0.00000      -0.00000
     4  H(1)               0.00000       0.00000       0.00000       0.00000
     5  H(1)               0.00000       0.00000       0.00000       0.00000
     6  H(1)              -0.00000      -0.00000      -0.00000      -0.00000
 --------------------------------------------------------
       Center         ----  Spin Dipole Couplings  ----
                      3XX-RR        3YY-RR        3ZZ-RR
 --------------------------------------------------------
     1   Atom        0.000000      0.000000      0.000000
     2   Atom        0.000000      0.000000      0.000000
     3   Atom        0.000000      0.000000      0.000000
     4   Atom        0.000000      0.000000      0.000000
     5   Atom        0.000000      0.000000      0.000000
     6   Atom        0.000000      0.000000      0.000000
 --------------------------------------------------------
                        XY            XZ            YZ
 --------------------------------------------------------
     1   Atom        0.000000      0.000000      0.000000
     2   Atom        0.000000      0.000000      0.000000
     3   Atom        0.000000      0.000000      0.000000
     4   Atom        0.000000      0.000000      0.000000
     5   Atom        0.000000      0.000000      0.000000
     6   Atom        0.000000      0.000000      0.000000
 --------------------------------------------------------


 ---------------------------------------------------------------------------------
              Anisotropic Spin Dipole Couplings in Principal Axis System
 ---------------------------------------------------------------------------------

       Atom             a.u.   MegaHertz   Gauss  10(-4) cm-1        Axes

              Baa     0.0000     0.000     0.000     0.000  1.0000  0.0000  0.0000
     1 C(13)  Bbb     0.0000     0.000     0.000     0.000 -0.0000  1.0000  0.0000
              Bcc     0.0000     0.000     0.000     0.000  0.0000  0.0000  1.0000
 
              Baa     0.0000    -0.000    -0.000    -0.000  1.0000  0.0000  0.0000
     2 O(17)  Bbb     0.0000    -0.000    -0.000    -0.000 -0.0000  1.0000  0.0000
              Bcc     0.0000    -0.000    -0.000    -0.000  0.0000  0.0000  1.0000
 
              Baa     0.0000     0.000     0.000     0.000  1.0000  0.0000  0.0000
     3 H(1)   Bbb     0.0000     0.000     0.000     0.000 -0.0000  1.0000  0.0000
              Bcc     0.0000     0.000     0.000     0.000  0.0000  0.0000  1.0000
 
              Baa     0.0000     0.000     0.000     0.000  1.0000  0.0000  0.0000
     4 H(1)   Bbb     0.0000     0.000     0.000     0.000 -0.0000  1.0000  0.0000
              Bcc     0.0000     0.000     0.000     0.000  0.0000  0.0000  1.0000
 
              Baa     0.0000     0.000     0.000     0.000  1.0000  0.0000  0.0000
     5 H(1)   Bbb     0.0000     0.000     0.000     0.000 -0.0000  1.0000  0.0000
              Bcc     0.0000     0.000     0.000     0.000  0.0000  0.0000  1.0000
 
              Baa     0.0000     0.000     0.000     0.000  1.0000  0.0000  0.0000
     6 H(1)   Bbb     0.0000     0.000     0.000     0.000 -0.0000  1.0000  0.0000
              Bcc     0.0000     0.000     0.000     0.000  0.0000  0.0000  1.0000
 

 ---------------------------------------------------------------------------------

 No NMR shielding tensors so no spin-rotation constants.
 Leave Link  601 at Mon Apr 21 18:36:02 2025, MaxMem=   536870912 cpu:               2.1 elap:               0.5
 (Enter /home/szhao/Apps/g16/l701.exe)
 ... and contract with generalized density number  0.
 Compute integral first derivatives.
 Leave Link  701 at Mon Apr 21 18:36:03 2025, MaxMem=   536870912 cpu:               2.2 elap:               0.4
 (Enter /home/szhao/Apps/g16/l702.exe)
 L702 exits ... SP integral derivatives will be done elsewhere.
 Leave Link  702 at Mon Apr 21 18:36:03 2025, MaxMem=   536870912 cpu:               0.9 elap:               0.2
 (Enter /home/szhao/Apps/g16/l703.exe)
 Integral derivatives from FoFJK, PRISM(SPDF).
 Compute integral first derivatives, UseDBF=F ICtDFT=           0.
 Calling FoFJK, ICntrl=      2127 FMM=F ISym2X=0 I1Cent= 0 IOpClX= 1 NMat=1 NMatS=1 NMatT=0.
 FoFJK:  IHMeth= 1 ICntrl=    2127 DoSepK=F KAlg= 0 I1Cent=           0 FoldK=F
 IRaf=         0 NMat=       1 IRICut=       1 DoRegI=T DoRafI=F ISym2E= 0 IDoP0=0 IntGTp=1.
 FoFCou: FMM=F IPFlag=           0 FMFlag=      100000 FMFlg1=         800
         NFxFlg=           0 DoJE=F BraDBF=F KetDBF=F FulRan=T
         wScrn=  0.000000 ICntrl=      2127 IOpCl=  1 I1Cent=           0 NGrid=           0
         NMat0=    1 NMatS0=      1 NMatT0=    0 NMatD0=    1 NMtDS0=    0 NMtDT0=    0
 Symmetry not used in FoFCou.
 Leave Link  703 at Mon Apr 21 18:36:05 2025, MaxMem=   536870912 cpu:              14.5 elap:               2.0
 (Enter /home/szhao/Apps/g16/l716.exe)
 Dipole        =-1.51260333D+00-5.68052597D-01-1.20880198D-04
 -------------------------------------------------------------------
 Center     Atomic                   Forces (Hartrees/Bohr)
 Number     Number              X              Y              Z
 -------------------------------------------------------------------
      1        6          -0.000000000   -0.000000000   -0.000000000
      2        8          -0.000000000   -0.000000000   -0.000000000
      3        1          -0.006839782   -0.011236804    0.000001351
      4        1           0.023946210   -0.003860286    0.003249142
      5        1           0.024701651    0.006266629   -0.000003031
      6        1           0.023924660   -0.003869953   -0.003249812
 -------------------------------------------------------------------
 Cartesian Forces:  Max     0.024701651 RMS     0.010591657
 Leave Link  716 at Mon Apr 21 18:36:06 2025, MaxMem=   536870912 cpu:               0.7 elap:               0.2
 (Enter /home/szhao/Apps/g16/l103.exe)

 GradGradGradGradGradGradGradGradGradGradGradGradGradGradGradGradGradGrad
 Berny optimization.
 FormGI is forming the generalized inverse of G from B-inverse, IUseBI=4.
 Internal  Forces:  Max     0.072572520 RMS     0.022059146
 Search for a local minimum.
 Step number   1 out of a maximum of   30
 All quantities printed in internal units (Hartrees-Bohrs-Radians)
 RMS Force = .17269D-01 SwitMx=.10000D-02 MixMth= 1
 Mixed Optimization -- RFO/linear search
 Second derivative matrix not updated -- first step.
 The second derivative matrix:
                          X1        Y1        Z1        X2        Y2
           X1           0.50000
           Y1           0.00000   0.50000
           Z1           0.00000   0.00000   0.50000
           X2           0.00000   0.00000   0.00000   0.50000
           Y2           0.00000   0.00000   0.00000   0.00000   0.50000
           Z2           0.00000   0.00000   0.00000   0.00000   0.00000
           R1           0.00000   0.00000   0.00000   0.00000   0.00000
           R2           0.00000   0.00000   0.00000   0.00000   0.00000
           R3           0.00000   0.00000   0.00000   0.00000   0.00000
           R4           0.00000   0.00000   0.00000   0.00000   0.00000
           A1           0.00000   0.00000   0.00000   0.00000   0.00000
           A2           0.00000   0.00000   0.00000   0.00000   0.00000
           A3           0.00000   0.00000   0.00000   0.00000   0.00000
           A4           0.00000   0.00000   0.00000   0.00000   0.00000
           A5           0.00000   0.00000   0.00000   0.00000   0.00000
           A6           0.00000   0.00000   0.00000   0.00000   0.00000
           A7           0.00000   0.00000   0.00000   0.00000   0.00000
           D1           0.00000   0.00000   0.00000   0.00000   0.00000
           D2           0.00000   0.00000   0.00000   0.00000   0.00000
           D3           0.00000   0.00000   0.00000   0.00000   0.00000
                          Z2        R1        R2        R3        R4
           Z2           0.50000
           R1           0.00000   0.34246
           R2           0.00000   0.00000   0.34925
           R3           0.00000   0.00000   0.00000   0.34252
           R4           0.00000   0.00000   0.00000   0.00000   0.55746
           A1           0.00000   0.00000   0.00000   0.00000   0.00000
           A2           0.00000   0.00000   0.00000   0.00000   0.00000
           A3           0.00000   0.00000   0.00000   0.00000   0.00000
           A4           0.00000   0.00000   0.00000   0.00000   0.00000
           A5           0.00000   0.00000   0.00000   0.00000   0.00000
           A6           0.00000   0.00000   0.00000   0.00000   0.00000
           A7           0.00000   0.00000   0.00000   0.00000   0.00000
           D1           0.00000   0.00000   0.00000   0.00000   0.00000
           D2           0.00000   0.00000   0.00000   0.00000   0.00000
           D3           0.00000   0.00000   0.00000   0.00000   0.00000
                          A1        A2        A3        A4        A5
           A1           0.16000
           A2           0.00000   0.16000
           A3           0.00000   0.00000   0.16000
           A4           0.00000   0.00000   0.00000   0.16000
           A5           0.00000   0.00000   0.00000   0.00000   0.16000
           A6           0.00000   0.00000   0.00000   0.00000   0.00000
           A7           0.00000   0.00000   0.00000   0.00000   0.00000
           D1           0.00000   0.00000   0.00000   0.00000   0.00000
           D2           0.00000   0.00000   0.00000   0.00000   0.00000
           D3           0.00000   0.00000   0.00000   0.00000   0.00000
                          A6        A7        D1        D2        D3
           A6           0.16000
           A7           0.00000   0.16000
           D1           0.00000   0.00000   0.00230
           D2           0.00000   0.00000   0.00000   0.00230
           D3           0.00000   0.00000   0.00000   0.00000   0.00230
 ITU=  0
     Eigenvalues ---    0.00230   0.09412   0.10080   0.16000   0.16000
     Eigenvalues ---    0.16000   0.16000   0.34246   0.34252   0.34925
     Eigenvalues ---    0.557461000.000001000.000001000.000001000.00000
     Eigenvalues --- 1000.000001000.000001000.000001000.000001000.00000
 RFO step:  Lambda=-2.25183626D-02 EMin= 2.30000000D-03
 Linear search not attempted -- first point.
 Maximum step size (   0.300) exceeded in Quadratic search.
    -- Step size scaled by   0.857
 Iteration  1 RMS(Cart)=  0.09871416 RMS(Int)=  0.00801948
 Iteration  2 RMS(Cart)=  0.00804133 RMS(Int)=  0.00462092
 Iteration  3 RMS(Cart)=  0.00010907 RMS(Int)=  0.00462043
 Iteration  4 RMS(Cart)=  0.00000179 RMS(Int)=  0.00462043
 Iteration  5 RMS(Cart)=  0.00000003 RMS(Int)=  0.00462043
 ITry= 1 IFail=0 DXMaxC= 2.55D-01 DCOld= 1.00D+10 DXMaxT= 3.00D-01 DXLimC= 3.00D+00 Rises=F
 Variable       Old X    -DE/DX   Delta X   Delta X   Delta X     New X
                                 (Linear)    (Quad)   (Total)
    X1       -2.51750   0.07257   0.00000   0.00000   0.00000  -2.51750
    Y1        0.00000   0.00267   0.00000   0.00000   0.00000   0.00000
    Z1        0.00000   0.00000   0.00000   0.00000   0.00000   0.00000
    X2        2.51750  -0.00684   0.00000   0.00000   0.00000   2.51750
    Y2        0.00000  -0.01537   0.00000   0.00000   0.00000   0.00000
    Z2        0.00000  -0.00000   0.00000   0.00000   0.00000   0.00000
    R1        2.06916  -0.00463   0.00000  -0.01088  -0.01088   2.05829
    R2        2.05797  -0.00117   0.00000  -0.00269  -0.00269   2.05528
    R3        2.06907  -0.00460   0.00000  -0.01081  -0.01081   2.05826
    R4        1.81175   0.00842   0.00000   0.01244   0.01244   1.82419
    A1        1.95552  -0.02369   0.00000  -0.11250  -0.11963   1.83589
    A2        1.86511  -0.02613   0.00000  -0.12021  -0.12726   1.73786
    A3        1.95494  -0.02366   0.00000  -0.11237  -0.11950   1.83544
    A4        1.89161   0.02557   0.00000   0.12244   0.11293   2.00453
    A5        1.90265   0.02471   0.00000   0.11180   0.10208   2.00473
    A6        1.89170   0.02556   0.00000   0.12241   0.11290   2.00460
    A7        1.90026  -0.01831   0.00000  -0.08598  -0.08598   1.81428
    D1        1.07305  -0.00140   0.00000  -0.01033  -0.01056   1.06249
    D2       -3.14071  -0.00001   0.00000  -0.00008  -0.00007  -3.14078
    D3       -1.07150   0.00141   0.00000   0.01033   0.01055  -1.06095
         Item               Value     Threshold  Converged?
 Maximum Force            0.026126     0.000450     NO 
 RMS     Force            0.017269     0.000300     NO 
 Maximum Displacement     0.255232     0.001800     NO 
 RMS     Displacement     0.103848     0.001200     NO 
 Predicted change in Energy=-1.196060D-02
 Lowest energy point so far.  Saving SCF results.
 GradGradGradGradGradGradGradGradGradGradGradGradGradGradGradGradGradGrad

 Leave Link  103 at Mon Apr 21 18:36:06 2025, MaxMem=   536870912 cpu:               0.9 elap:               0.2
 (Enter /home/szhao/Apps/g16/l202.exe)
                          Input orientation:                          
 ---------------------------------------------------------------------
 Center     Atomic      Atomic             Coordinates (Angstroms)
 Number     Number       Type             X           Y           Z
 ---------------------------------------------------------------------
      1          6           0       -1.332203    0.000000    0.000000
      2          8           0        1.332203    0.000000    0.000000
      3          1           0        1.564930   -0.936845    0.000015
      4          1           0       -1.617568   -0.511577    0.918264
      5          1           0       -1.513054    1.072464   -0.000884
      6          1           0       -1.617097   -0.513077   -0.917558
 ---------------------------------------------------------------------
                    Distance matrix (angstroms):
                    1          2          3          4          5
     1  C    0.000000
     2  O    2.664405   0.000000
     3  H    3.044841   0.965319   0.000000
     4  H    1.089198   3.131464   3.339509   0.000000
     5  H    1.087606   3.040669   3.675773   1.834378   0.000000
     6  H    1.089186   3.131059   3.338685   1.835823   1.834408
                    6
     6  H    0.000000
 Symmetry turned off by external request.
 Stoichiometry    CH4O
 Framework group  C1[X(CH4O)]
 Deg. of freedom    12
 Full point group                 C1      NOp   1
 Rotational constants (GHZ):         119.9714771           8.2410605           8.1328592
 Leave Link  202 at Mon Apr 21 18:36:06 2025, MaxMem=   536870912 cpu:               0.3 elap:               0.1
 (Enter /home/szhao/Apps/g16/l301.exe)
 Standard basis: 6-311+G(d,p) (5D, 7F)
 Ernie: Thresh=  0.10000D-02 Tol=  0.10000D-05 Strict=F.
    68 basis functions,   104 primitive gaussians,    70 cartesian basis functions
     9 alpha electrons        9 beta electrons
       nuclear repulsion energy        29.1333515227 Hartrees.
 IExCor= 4336 DFT=T Ex+Corr=M062X ExCW=0 ScaHFX=  0.540000
 ScaDFX=  1.000000  1.000000  1.000000  1.000000 ScalE2=  1.000000  1.000000
 IRadAn=      7 IRanWt=     -1 IRanGd=            0 ICorTp=0 IEmpDi=  4
 NAtoms=    6 NActive=    6 NUniq=    6 SFac= 1.00D+00 NAtFMM=   60 NAOKFM=F Big=F
 Integral buffers will be    131072 words long.
 Raffenetti 2 integral format.
 Two-electron integral symmetry is turned off.
 Leave Link  301 at Mon Apr 21 18:36:07 2025, MaxMem=   536870912 cpu:               1.1 elap:               0.2
 (Enter /home/szhao/Apps/g16/l302.exe)
 NPDir=0 NMtPBC=     1 NCelOv=     1 NCel=       1 NClECP=     1 NCelD=      1
         NCelK=      1 NCelE2=     1 NClLst=     1 CellRange=     0.0.
 One-electron integrals computed using PRISM.
 NBasis=    68 RedAO= T EigKep=  5.67D-03  NBF=    68
 NBsUse=    68 1.00D-06 EigRej= -1.00D+00 NBFU=    68
 Precomputing XC quadrature grid using
 IXCGrd= 4 IRadAn=           7 IRanWt=          -1 IRanGd=           0 AccXCQ= 0.00D+00.
 Generated NRdTot=       0 NPtTot=           0 NUsed=           0 NTot=          32
 NSgBfM=    70    70    70    70    70 MxSgAt=     6 MxSgA2=     6.
 Leave Link  302 at Mon Apr 21 18:36:07 2025, MaxMem=   536870912 cpu:               2.1 elap:               0.3
 (Enter /home/szhao/Apps/g16/l303.exe)
 DipDrv:  MaxL=1.
 Leave Link  303 at Mon Apr 21 18:36:08 2025, MaxMem=   536870912 cpu:               1.6 elap:               0.3
 (Enter /home/szhao/Apps/g16/l401.exe)
 Initial guess from the checkpoint file:  "opt.chk"
 B after Tr=     0.032654   -0.005865    0.000018
         Rot=    0.999999   -0.000002   -0.000004    0.001455 Ang=  -0.17 deg.
 Guess basis will be translated and rotated to current coordinates.
 JPrj=2 DoOrth=T DoCkMO=T.
 Initial guess <Sx>= 0.0000 <Sy>= 0.0000 <Sz>= 0.0000 <S**2>=-0.0000 S=-0.0000
 Generating alternative initial guess.
 ExpMin= 4.38D-02 ExpMax= 8.59D+03 ExpMxC= 1.30D+03 IAcc=3 IRadAn=         5 AccDes= 0.00D+00
 Harris functional with IExCor= 1009 and IRadAn=       5 diagonalized for initial guess.
 HarFok:  IExCor= 1009 AccDes= 0.00D+00 IRadAn=         5 IDoV= 1 UseB2=F ITyADJ=14
 ICtDFT=  3500011 ScaDFX=  1.000000  1.000000  1.000000  1.000000
 FoFCou: FMM=F IPFlag=           0 FMFlag=      100000 FMFlg1=           0
         NFxFlg=           0 DoJE=T BraDBF=F KetDBF=T FulRan=T
         wScrn=  0.000000 ICntrl=       500 IOpCl=  0 I1Cent=   200000004 NGrid=           0
         NMat0=    1 NMatS0=      1 NMatT0=    0 NMatD0=    1 NMtDS0=    0 NMtDT0=    0
 Symmetry not used in FoFCou.
 Harris En= -115.549460636152    
 Leave Link  401 at Mon Apr 21 18:36:08 2025, MaxMem=   536870912 cpu:               3.1 elap:               0.4
 (Enter /home/szhao/Apps/g16/l502.exe)
 Keep R1 and R2 ints in memory in canonical form, NReq=12681626.
 FoFCou: FMM=F IPFlag=           0 FMFlag=           0 FMFlg1=           0
         NFxFlg=           0 DoJE=F BraDBF=F KetDBF=F FulRan=T
         wScrn=  0.000000 ICntrl=       600 IOpCl=  0 I1Cent=           0 NGrid=           0
         NMat0=    1 NMatS0=   2346 NMatT0=    0 NMatD0=    1 NMtDS0=    0 NMtDT0=    0
 Symmetry not used in FoFCou.
 Two-electron integral symmetry not used.
 UHF open shell SCF:
 Using DIIS extrapolation, IDIIS=  1040.
 NGot=   536870912 LenX=   531353782 LenY=   531348441
 Requested convergence on RMS density matrix=1.00D-08 within 128 cycles.
 Requested convergence on MAX density matrix=1.00D-06.
 Requested convergence on             energy=1.00D-06.
 No special actions if energy rises.

 Cycle   1  Pass 1  IDiag  1:
 E= -115.525438094577    
 DIIS: error= 5.83D-03 at cycle   1 NSaved=   1.
 NSaved= 1 IEnMin= 1 EnMin= -115.525438094577     IErMin= 1 ErrMin= 5.83D-03
 ErrMax= 5.83D-03  0.00D+00 EMaxC= 1.00D-01 BMatC= 8.60D-03 BMatP= 8.60D-03
 IDIUse=3 WtCom= 9.42D-01 WtEn= 5.83D-02
 Coeff-Com:  0.100D+01
 Coeff-En:   0.100D+01
 Coeff:      0.100D+01
 Gap=     0.530 Goal=   None    Shift=    0.000
 Gap=     0.530 Goal=   None    Shift=    0.000
 GapD=    0.530 DampG=2.000 DampE=1.000 DampFc=2.0000 IDamp=-1.
 RMSDP=6.03D-04 MaxDP=6.08D-03              OVMax= 2.17D-02

 Cycle   2  Pass 1  IDiag  1:
 E= -115.528396526792     Delta-E=       -0.002958432215 Rises=F Damp=F
 DIIS: error= 1.47D-03 at cycle   2 NSaved=   2.
 NSaved= 2 IEnMin= 2 EnMin= -115.528396526792     IErMin= 2 ErrMin= 1.47D-03
 ErrMax= 1.47D-03  0.00D+00 EMaxC= 1.00D-01 BMatC= 5.04D-04 BMatP= 8.60D-03
 IDIUse=3 WtCom= 9.85D-01 WtEn= 1.47D-02
 Coeff-Com:  0.791D-02 0.992D+00
 Coeff-En:   0.000D+00 0.100D+01
 Coeff:      0.780D-02 0.992D+00
 Gap=     0.202 Goal=   None    Shift=    0.000
 Gap=     0.202 Goal=   None    Shift=    0.000
 RMSDP=2.90D-04 MaxDP=3.71D-03 DE=-2.96D-03 OVMax= 2.14D-02

 Cycle   3  Pass 1  IDiag  1:
 E= -115.528176996499     Delta-E=        0.000219530293 Rises=F Damp=F
 DIIS: error= 3.37D-03 at cycle   3 NSaved=   3.
 NSaved= 3 IEnMin= 2 EnMin= -115.528396526792     IErMin= 2 ErrMin= 1.47D-03
 ErrMax= 3.37D-03  0.00D+00 EMaxC= 1.00D-01 BMatC= 1.82D-03 BMatP= 5.04D-04
 IDIUse=3 WtCom= 1.47D-01 WtEn= 8.53D-01
 Coeff-Com: -0.557D-01 0.720D+00 0.335D+00
 Coeff-En:   0.000D+00 0.699D+00 0.301D+00
 Coeff:     -0.818D-02 0.702D+00 0.306D+00
 Gap=     0.199 Goal=   None    Shift=    0.000
 Gap=     0.199 Goal=   None    Shift=    0.000
 RMSDP=1.79D-04 MaxDP=3.22D-03 DE= 2.20D-04 OVMax= 1.53D-02

 Cycle   4  Pass 1  IDiag  1:
 E= -115.528589684941     Delta-E=       -0.000412688442 Rises=F Damp=F
 DIIS: error= 5.64D-04 at cycle   4 NSaved=   4.
 NSaved= 4 IEnMin= 4 EnMin= -115.528589684941     IErMin= 4 ErrMin= 5.64D-04
 ErrMax= 5.64D-04  0.00D+00 EMaxC= 1.00D-01 BMatC= 7.14D-05 BMatP= 5.04D-04
 IDIUse=3 WtCom= 9.94D-01 WtEn= 5.64D-03
 Coeff-Com: -0.262D-01 0.788D-01 0.170D+00 0.778D+00
 Coeff-En:   0.000D+00 0.000D+00 0.231D-01 0.977D+00
 Coeff:     -0.260D-01 0.784D-01 0.169D+00 0.779D+00
 Gap=     0.199 Goal=   None    Shift=    0.000
 Gap=     0.199 Goal=   None    Shift=    0.000
 RMSDP=4.89D-05 MaxDP=5.76D-04 DE=-4.13D-04 OVMax= 3.32D-03

 Cycle   5  Pass 1  IDiag  1:
 E= -115.528613103012     Delta-E=       -0.000023418070 Rises=F Damp=F
 DIIS: error= 1.27D-04 at cycle   5 NSaved=   5.
 NSaved= 5 IEnMin= 5 EnMin= -115.528613103012     IErMin= 5 ErrMin= 1.27D-04
 ErrMax= 1.27D-04  0.00D+00 EMaxC= 1.00D-01 BMatC= 3.65D-06 BMatP= 7.14D-05
 IDIUse=3 WtCom= 9.99D-01 WtEn= 1.27D-03
 Coeff-Com: -0.138D-02-0.390D-01 0.292D-02 0.181D+00 0.857D+00
 Coeff-En:   0.000D+00 0.000D+00 0.000D+00 0.000D+00 0.100D+01
 Coeff:     -0.138D-02-0.390D-01 0.292D-02 0.181D+00 0.857D+00
 Gap=     0.200 Goal=   None    Shift=    0.000
 Gap=     0.200 Goal=   None    Shift=    0.000
 RMSDP=1.78D-05 MaxDP=2.01D-04 DE=-2.34D-05 OVMax= 1.05D-03

 Cycle   6  Pass 1  IDiag  1:
 E= -115.528614714429     Delta-E=       -0.000001611418 Rises=F Damp=F
 DIIS: error= 1.15D-04 at cycle   6 NSaved=   6.
 NSaved= 6 IEnMin= 6 EnMin= -115.528614714429     IErMin= 6 ErrMin= 1.15D-04
 ErrMax= 1.15D-04  0.00D+00 EMaxC= 1.00D-01 BMatC= 1.54D-06 BMatP= 3.65D-06
 IDIUse=3 WtCom= 9.99D-01 WtEn= 1.15D-03
 Coeff-Com:  0.421D-02-0.288D-01-0.477D-01-0.659D-01 0.220D+00 0.919D+00
 Coeff-En:   0.000D+00 0.000D+00 0.000D+00 0.000D+00 0.000D+00 0.100D+01
 Coeff:      0.420D-02-0.287D-01-0.477D-01-0.658D-01 0.219D+00 0.919D+00
 Gap=     0.200 Goal=   None    Shift=    0.000
 Gap=     0.200 Goal=   None    Shift=    0.000
 RMSDP=9.10D-06 MaxDP=1.16D-04 DE=-1.61D-06 OVMax= 6.69D-04

 Cycle   7  Pass 1  IDiag  1:
 E= -115.528615368266     Delta-E=       -0.000000653836 Rises=F Damp=F
 DIIS: error= 1.32D-05 at cycle   7 NSaved=   7.
 NSaved= 7 IEnMin= 7 EnMin= -115.528615368266     IErMin= 7 ErrMin= 1.32D-05
 ErrMax= 1.32D-05  0.00D+00 EMaxC= 1.00D-01 BMatC= 2.32D-08 BMatP= 1.54D-06
 IDIUse=1 WtCom= 1.00D+00 WtEn= 0.00D+00
 Coeff-Com: -0.912D-03 0.109D-01 0.900D-02-0.232D-02-0.128D+00-0.198D+00
 Coeff-Com:  0.131D+01
 Coeff:     -0.912D-03 0.109D-01 0.900D-02-0.232D-02-0.128D+00-0.198D+00
 Coeff:      0.131D+01
 Gap=     0.200 Goal=   None    Shift=    0.000
 Gap=     0.200 Goal=   None    Shift=    0.000
 RMSDP=2.99D-06 MaxDP=3.09D-05 DE=-6.54D-07 OVMax= 2.23D-04

 Cycle   8  Pass 1  IDiag  1:
 E= -115.528615394168     Delta-E=       -0.000000025902 Rises=F Damp=F
 DIIS: error= 3.34D-06 at cycle   8 NSaved=   8.
 NSaved= 8 IEnMin= 8 EnMin= -115.528615394168     IErMin= 8 ErrMin= 3.34D-06
 ErrMax= 3.34D-06  0.00D+00 EMaxC= 1.00D-01 BMatC= 2.85D-09 BMatP= 2.32D-08
 IDIUse=1 WtCom= 1.00D+00 WtEn= 0.00D+00
 Coeff-Com: -0.249D-03 0.244D-02 0.332D-02 0.120D-02-0.203D-01-0.454D-01
 Coeff-Com:  0.179D+00 0.880D+00
 Coeff:     -0.249D-03 0.244D-02 0.332D-02 0.120D-02-0.203D-01-0.454D-01
 Coeff:      0.179D+00 0.880D+00
 Gap=     0.200 Goal=   None    Shift=    0.000
 Gap=     0.200 Goal=   None    Shift=    0.000
 RMSDP=3.94D-07 MaxDP=5.36D-06 DE=-2.59D-08 OVMax= 1.29D-05

 Cycle   9  Pass 1  IDiag  1:
 E= -115.528615394889     Delta-E=       -0.000000000722 Rises=F Damp=F
 DIIS: error= 7.39D-07 at cycle   9 NSaved=   9.
 NSaved= 9 IEnMin= 9 EnMin= -115.528615394889     IErMin= 9 ErrMin= 7.39D-07
 ErrMax= 7.39D-07  0.00D+00 EMaxC= 1.00D-01 BMatC= 1.29D-10 BMatP= 2.85D-09
 IDIUse=1 WtCom= 1.00D+00 WtEn= 0.00D+00
 Coeff-Com:  0.322D-04-0.424D-03-0.159D-03-0.173D-03 0.415D-02 0.758D-02
 Coeff-Com: -0.653D-01-0.540D-01 0.111D+01
 Coeff:      0.322D-04-0.424D-03-0.159D-03-0.173D-03 0.415D-02 0.758D-02
 Coeff:     -0.653D-01-0.540D-01 0.111D+01
 Gap=     0.200 Goal=   None    Shift=    0.000
 Gap=     0.200 Goal=   None    Shift=    0.000
 RMSDP=1.44D-07 MaxDP=1.90D-06 DE=-7.22D-10 OVMax= 5.28D-06

 Cycle  10  Pass 1  IDiag  1:
 E= -115.528615394943     Delta-E=       -0.000000000054 Rises=F Damp=F
 DIIS: error= 7.74D-08 at cycle  10 NSaved=  10.
 NSaved=10 IEnMin=10 EnMin= -115.528615394943     IErMin=10 ErrMin= 7.74D-08
 ErrMax= 7.74D-08  0.00D+00 EMaxC= 1.00D-01 BMatC= 1.58D-12 BMatP= 1.29D-10
 IDIUse=1 WtCom= 1.00D+00 WtEn= 0.00D+00
 Coeff-Com:  0.210D-05-0.157D-04-0.601D-04 0.237D-04-0.181D-03 0.828D-03
 Coeff-Com:  0.362D-02-0.301D-01-0.973D-01 0.112D+01
 Coeff:      0.210D-05-0.157D-04-0.601D-04 0.237D-04-0.181D-03 0.828D-03
 Coeff:      0.362D-02-0.301D-01-0.973D-01 0.112D+01
 Gap=     0.200 Goal=   None    Shift=    0.000
 Gap=     0.200 Goal=   None    Shift=    0.000
 RMSDP=1.77D-08 MaxDP=2.36D-07 DE=-5.36D-11 OVMax= 6.03D-07

 Cycle  11  Pass 1  IDiag  1:
 E= -115.528615394944     Delta-E=       -0.000000000001 Rises=F Damp=F
 DIIS: error= 1.73D-08 at cycle  11 NSaved=  11.
 NSaved=11 IEnMin=11 EnMin= -115.528615394944     IErMin=11 ErrMin= 1.73D-08
 ErrMax= 1.73D-08  0.00D+00 EMaxC= 1.00D-01 BMatC= 2.96D-14 BMatP= 1.58D-12
 IDIUse=1 WtCom= 1.00D+00 WtEn= 0.00D+00
 Coeff-Com: -0.773D-06 0.916D-05 0.756D-05 0.304D-05-0.111D-03-0.225D-03
 Coeff-Com:  0.158D-02-0.208D-03-0.195D-01 0.149D-01 0.100D+01
 Coeff:     -0.773D-06 0.916D-05 0.756D-05 0.304D-05-0.111D-03-0.225D-03
 Coeff:      0.158D-02-0.208D-03-0.195D-01 0.149D-01 0.100D+01
 Gap=     0.200 Goal=   None    Shift=    0.000
 Gap=     0.200 Goal=   None    Shift=    0.000
 RMSDP=2.05D-09 MaxDP=2.28D-08 DE=-6.82D-13 OVMax= 1.19D-07

 SCF Done:  E(UM062X) =  -115.528615395     A.U. after   11 cycles
            NFock= 11  Conv=0.20D-08     -V/T= 2.0060
 <Sx>= 0.0000 <Sy>= 0.0000 <Sz>= 0.0000 <S**2>=-0.0000 S=-0.0000
 <L.S>=  0.00000000000    
 KE= 1.148446449263D+02 PE=-3.294841572061D+02 EE= 6.997754536210D+01
 Annihilation of the first spin contaminant:
 S**2 before annihilation    -0.0000,   after    -0.0000
 Leave Link  502 at Mon Apr 21 18:36:20 2025, MaxMem=   536870912 cpu:              89.8 elap:              12.2
 (Enter /home/szhao/Apps/g16/l701.exe)
 ... and contract with generalized density number  0.
 Compute integral first derivatives.
 Leave Link  701 at Mon Apr 21 18:36:21 2025, MaxMem=   536870912 cpu:               1.9 elap:               0.4
 (Enter /home/szhao/Apps/g16/l702.exe)
 L702 exits ... SP integral derivatives will be done elsewhere.
 Leave Link  702 at Mon Apr 21 18:36:21 2025, MaxMem=   536870912 cpu:               0.7 elap:               0.2
 (Enter /home/szhao/Apps/g16/l703.exe)
 Integral derivatives from FoFJK, PRISM(SPDF).
 Compute integral first derivatives, UseDBF=F ICtDFT=           0.
 Calling FoFJK, ICntrl=      2127 FMM=F ISym2X=0 I1Cent= 0 IOpClX= 1 NMat=1 NMatS=1 NMatT=0.
 FoFJK:  IHMeth= 1 ICntrl=    2127 DoSepK=F KAlg= 0 I1Cent=           0 FoldK=F
 IRaf=         0 NMat=       1 IRICut=       1 DoRegI=T DoRafI=F ISym2E= 0 IDoP0=0 IntGTp=1.
 FoFCou: FMM=F IPFlag=           0 FMFlag=      100000 FMFlg1=         800
         NFxFlg=           0 DoJE=F BraDBF=F KetDBF=F FulRan=T
         wScrn=  0.000000 ICntrl=      2127 IOpCl=  1 I1Cent=           0 NGrid=           0
         NMat0=    1 NMatS0=      1 NMatT0=    0 NMatD0=    1 NMtDS0=    0 NMtDT0=    0
 Symmetry not used in FoFCou.
 Leave Link  703 at Mon Apr 21 18:36:24 2025, MaxMem=   536870912 cpu:              17.7 elap:               2.4
 (Enter /home/szhao/Apps/g16/l716.exe)
 Dipole        =-1.67846569D+00-5.85932443D-01-6.85369899D-05
 -------------------------------------------------------------------
 Center     Atomic                   Forces (Hartrees/Bohr)
 Number     Number              X              Y              Z
 -------------------------------------------------------------------
      1        6          -0.000000000   -0.000000000   -0.000000000
      2        8          -0.000000000   -0.000000000   -0.000000000
      3        1          -0.006194163   -0.002304701    0.000001023
      4        1           0.013313137   -0.000224689   -0.000520933
      5        1           0.013792697   -0.001045438   -0.000000274
      6        1           0.013300157   -0.000220842    0.000522551
 -------------------------------------------------------------------
 Cartesian Forces:  Max     0.013792697 RMS     0.005724160
 Leave Link  716 at Mon Apr 21 18:36:24 2025, MaxMem=   536870912 cpu:               0.9 elap:               0.2
 (Enter /home/szhao/Apps/g16/l103.exe)

 GradGradGradGradGradGradGradGradGradGradGradGradGradGradGradGradGradGrad
 Berny optimization.
 Using GEDIIS/GDIIS optimizer.
 FormGI is forming the generalized inverse of G from B-inverse, IUseBI=4.
 Internal  Forces:  Max     0.040405990 RMS     0.012774340
 Search for a local minimum.
 Step number   2 out of a maximum of   30
 All quantities printed in internal units (Hartrees-Bohrs-Radians)
 RMS Force = .10577D-01 SwitMx=.10000D-02 MixMth= 1
 Mixed Optimization -- RFO/linear search
 Update second derivatives using D2CorX and points    1    2
 DE= -1.55D-02 DEPred=-1.20D-02 R= 1.30D+00
 TightC=F SS=  1.41D+00  RLast= 2.98D-01 DXNew= 5.0454D-01 8.9356D-01
 Trust test= 1.30D+00 RLast= 2.98D-01 DXMaxT set to 5.05D-01
 The second derivative matrix:
                          X1        Y1        Z1        X2        Y2
           X1           0.63900
           Y1           0.00633   0.50029
           Z1          -0.00002  -0.00000   0.50000
           X2          -0.00279  -0.00013   0.00000   0.50006
           Y2          -0.04480  -0.00204   0.00001   0.00090   0.51444
           Z2          -0.00000  -0.00000   0.00000   0.00000   0.00000
           R1          -0.00350  -0.00016   0.00000   0.00007   0.00113
           R2           0.00932   0.00042  -0.00000  -0.00019  -0.00300
           R3          -0.00340  -0.00015   0.00000   0.00007   0.00110
           R4           0.03317   0.00151  -0.00000  -0.00067  -0.01069
           A1          -0.03002  -0.00137   0.00000   0.00060   0.00968
           A2          -0.03418  -0.00156   0.00000   0.00069   0.01102
           A3          -0.03000  -0.00137   0.00000   0.00060   0.00967
           A4           0.05581   0.00254  -0.00001  -0.00112  -0.01799
           A5           0.05053   0.00230  -0.00001  -0.00101  -0.01629
           A6           0.05579   0.00254  -0.00001  -0.00112  -0.01798
           A7          -0.02736  -0.00125   0.00000   0.00055   0.00882
           D1          -0.00313  -0.00014   0.00000   0.00006   0.00101
           D2          -0.00002  -0.00000   0.00000   0.00000   0.00001
           D3           0.00315   0.00014  -0.00000  -0.00006  -0.00101
                          Z2        R1        R2        R3        R4
           Z2           0.50000
           R1           0.00000   0.34158
           R2          -0.00000  -0.00048   0.34981
           R3           0.00000  -0.00088  -0.00047   0.34164
           R4          -0.00000   0.00097   0.00268   0.00099   0.56201
           A1           0.00000  -0.00424  -0.00327  -0.00423   0.00214
           A2           0.00000  -0.00446  -0.00363  -0.00445   0.00174
           A3           0.00000  -0.00424  -0.00327  -0.00423   0.00214
           A4          -0.00000   0.00331   0.00493   0.00332   0.00453
           A5          -0.00000   0.00299   0.00446   0.00300   0.00412
           A6          -0.00000   0.00331   0.00493   0.00332   0.00453
           A7           0.00000  -0.00290  -0.00274  -0.00290   0.00016
           D1           0.00000   0.00007  -0.00021   0.00007  -0.00074
           D2           0.00000   0.00000  -0.00000   0.00000  -0.00000
           D3          -0.00000  -0.00007   0.00021  -0.00007   0.00074
                          A1        A2        A3        A4        A5
           A1           0.14080
           A2          -0.01994   0.13934
           A3          -0.01917  -0.01991   0.14085
           A4           0.01219   0.01207   0.01217   0.15952
           A5           0.01100   0.01089   0.01098  -0.00040   0.15967
           A6           0.01219   0.01207   0.01217  -0.00048  -0.00040
           A7          -0.01255  -0.01291  -0.01253   0.00644   0.00580
           D1           0.00064   0.00074   0.00064  -0.00123  -0.00111
           D2           0.00000   0.00000   0.00000  -0.00001  -0.00001
           D3          -0.00065  -0.00074  -0.00065   0.00123   0.00112
                          A6        A7        D1        D2        D3
           A6           0.15952
           A7           0.00644   0.15212
           D1          -0.00123   0.00059   0.00237
           D2          -0.00001   0.00000   0.00000   0.00230
           D3           0.00123  -0.00060  -0.00007  -0.00000   0.00237
 ITU=  1  0
 Use linear search instead of GDIIS.
     Eigenvalues ---    0.00230   0.07877   0.10774   0.11204   0.16000
     Eigenvalues ---    0.16000   0.16014   0.34144   0.34249   0.35015
     Eigenvalues ---    0.562061000.000001000.000001000.000001000.00000
     Eigenvalues --- 1000.000001000.000001000.000001000.000001000.00000
 RFO step:  Lambda=-3.55867707D-04 EMin= 2.30000001D-03
 Quartic linear search produced a step of  1.19035.
 Iteration  1 RMS(Cart)=  0.13957915 RMS(Int)=  0.02415501
 Iteration  2 RMS(Cart)=  0.01129082 RMS(Int)=  0.02139756
 Iteration  3 RMS(Cart)=  0.00028090 RMS(Int)=  0.02139717
 Iteration  4 RMS(Cart)=  0.00004868 RMS(Int)=  0.02139716
 Iteration  5 RMS(Cart)=  0.00000844 RMS(Int)=  0.02139716
 Iteration  6 RMS(Cart)=  0.00000146 RMS(Int)=  0.02139716
 Iteration  7 RMS(Cart)=  0.00000025 RMS(Int)=  0.02139716
 ITry= 1 IFail=0 DXMaxC= 3.56D-01 DCOld= 1.00D+10 DXMaxT= 5.05D-01 DXLimC= 3.00D+00 Rises=F
 Variable       Old X    -DE/DX   Delta X   Delta X   Delta X     New X
                                 (Linear)    (Quad)   (Total)
    X1       -2.51750   0.04041   0.00000   0.00000   0.00000  -2.51750
    Y1        0.00000   0.00120   0.00000   0.00000   0.00000   0.00000
    Z1        0.00000   0.00000   0.00000   0.00000   0.00000   0.00000
    X2        2.51750  -0.00619   0.00000   0.00000   0.00000   2.51750
    Y2        0.00000  -0.00500   0.00000   0.00000   0.00000   0.00000
    Z2        0.00000  -0.00000   0.00000   0.00000   0.00000   0.00000
    R1        2.05829  -0.00382  -0.01295  -0.00795  -0.02089   2.03739
    R2        2.05528  -0.00332  -0.00321  -0.01705  -0.02026   2.03502
    R3        2.05826  -0.00382  -0.01286  -0.00801  -0.02087   2.03739
    R4        1.82419   0.00074   0.01481  -0.01553  -0.00072   1.82346
    A1        1.83589  -0.01674  -0.14241  -0.00718  -0.16186   1.67403
    A2        1.73786  -0.01822  -0.15148  -0.01028  -0.17411   1.56374
    A3        1.83544  -0.01672  -0.14224  -0.00711  -0.16162   1.67382
    A4        2.00453   0.01266   0.13442  -0.00029   0.08009   2.08462
    A5        2.00473   0.01302   0.12151   0.01821   0.08624   2.09097
    A6        2.00460   0.01265   0.13439  -0.00033   0.08003   2.08463
    A7        1.81428  -0.01198  -0.10235  -0.01477  -0.11711   1.69717
    D1        1.06249  -0.00068  -0.01256   0.00715  -0.00676   1.05573
    D2       -3.14078  -0.00000  -0.00009   0.00021   0.00014  -3.14064
    D3       -1.06095   0.00068   0.01255  -0.00675   0.00713  -1.05382
         Item               Value     Threshold  Converged?
 Maximum Force            0.018216     0.000450     NO 
 RMS     Force            0.010577     0.000300     NO 
 Maximum Displacement     0.356111     0.001800     NO 
 RMS     Displacement     0.140113     0.001200     NO 
 Predicted change in Energy=-8.872704D-03
 Lowest energy point so far.  Saving SCF results.
 GradGradGradGradGradGradGradGradGradGradGradGradGradGradGradGradGradGrad

 Leave Link  103 at Mon Apr 21 18:36:25 2025, MaxMem=   536870912 cpu:               2.6 elap:               0.5
 (Enter /home/szhao/Apps/g16/l202.exe)
                          Input orientation:                          
 ---------------------------------------------------------------------
 Center     Atomic      Atomic             Coordinates (Angstroms)
 Number     Number       Type             X           Y           Z
 ---------------------------------------------------------------------
      1          6           0       -1.332203    0.000000    0.000000
      2          8           0        1.332203    0.000000    0.000000
      3          1           0        1.453821   -0.957241   -0.000111
      4          1           0       -1.443305   -0.528366    0.933207
      5          1           0       -1.324609    1.076857   -0.000901
      6          1           0       -1.443084   -0.529942   -0.932337
 ---------------------------------------------------------------------
                    Distance matrix (angstroms):
                    1          2          3          4          5
     1  C    0.000000
     2  O    2.664405   0.000000
     3  H    2.945885   0.964936   0.000000
     4  H    1.078142   2.975482   3.073818   0.000000
     5  H    1.076884   2.866752   3.443432   1.861018   0.000000
     6  H    1.078140   2.975283   3.073058   1.865544   1.861025
                    6
     6  H    0.000000
 Symmetry turned off by external request.
 Stoichiometry    CH4O
 Framework group  C1[X(CH4O)]
 Deg. of freedom    12
 Full point group                 C1      NOp   1
 Rotational constants (GHZ):         116.0446337           8.5137776           8.3939281
 Leave Link  202 at Mon Apr 21 18:36:25 2025, MaxMem=   536870912 cpu:               0.2 elap:               0.1
 (Enter /home/szhao/Apps/g16/l301.exe)
 Standard basis: 6-311+G(d,p) (5D, 7F)
 Ernie: Thresh=  0.10000D-02 Tol=  0.10000D-05 Strict=F.
    68 basis functions,   104 primitive gaussians,    70 cartesian basis functions
     9 alpha electrons        9 beta electrons
       nuclear repulsion energy        29.5093339652 Hartrees.
 IExCor= 4336 DFT=T Ex+Corr=M062X ExCW=0 ScaHFX=  0.540000
 ScaDFX=  1.000000  1.000000  1.000000  1.000000 ScalE2=  1.000000  1.000000
 IRadAn=      7 IRanWt=     -1 IRanGd=            0 ICorTp=0 IEmpDi=  4
 NAtoms=    6 NActive=    6 NUniq=    6 SFac= 1.00D+00 NAtFMM=   60 NAOKFM=F Big=F
 Integral buffers will be    131072 words long.
 Raffenetti 2 integral format.
 Two-electron integral symmetry is turned off.
 Leave Link  301 at Mon Apr 21 18:36:26 2025, MaxMem=   536870912 cpu:               0.7 elap:               0.1
 (Enter /home/szhao/Apps/g16/l302.exe)
 NPDir=0 NMtPBC=     1 NCelOv=     1 NCel=       1 NClECP=     1 NCelD=      1
         NCelK=      1 NCelE2=     1 NClLst=     1 CellRange=     0.0.
 One-electron integrals computed using PRISM.
 NBasis=    68 RedAO= T EigKep=  5.51D-03  NBF=    68
 NBsUse=    68 1.00D-06 EigRej= -1.00D+00 NBFU=    68
 Precomputing XC quadrature grid using
 IXCGrd= 4 IRadAn=           7 IRanWt=          -1 IRanGd=           0 AccXCQ= 0.00D+00.
 Generated NRdTot=       0 NPtTot=           0 NUsed=           0 NTot=          32
 NSgBfM=    70    70    70    70    70 MxSgAt=     6 MxSgA2=     6.
 Leave Link  302 at Mon Apr 21 18:36:26 2025, MaxMem=   536870912 cpu:               1.8 elap:               0.4
 (Enter /home/szhao/Apps/g16/l303.exe)
 DipDrv:  MaxL=1.
 Leave Link  303 at Mon Apr 21 18:36:27 2025, MaxMem=   536870912 cpu:               0.8 elap:               0.2
 (Enter /home/szhao/Apps/g16/l401.exe)
 Initial guess from the checkpoint file:  "opt.chk"
 B after Tr=     0.045028   -0.005415    0.000000
         Rot=    0.999998    0.000004   -0.000009    0.001849 Ang=   0.21 deg.
 Guess basis will be translated and rotated to current coordinates.
 JPrj=2 DoOrth=T DoCkMO=T.
 Initial guess <Sx>= 0.0000 <Sy>= 0.0000 <Sz>= 0.0000 <S**2>=-0.0000 S=-0.0000
 Generating alternative initial guess.
 ExpMin= 4.38D-02 ExpMax= 8.59D+03 ExpMxC= 1.30D+03 IAcc=3 IRadAn=         5 AccDes= 0.00D+00
 Harris functional with IExCor= 1009 and IRadAn=       5 diagonalized for initial guess.
 HarFok:  IExCor= 1009 AccDes= 0.00D+00 IRadAn=         5 IDoV= 1 UseB2=F ITyADJ=14
 ICtDFT=  3500011 ScaDFX=  1.000000  1.000000  1.000000  1.000000
 FoFCou: FMM=F IPFlag=           0 FMFlag=      100000 FMFlg1=           0
         NFxFlg=           0 DoJE=T BraDBF=F KetDBF=T FulRan=T
         wScrn=  0.000000 ICntrl=       500 IOpCl=  0 I1Cent=   200000004 NGrid=           0
         NMat0=    1 NMatS0=      1 NMatT0=    0 NMatD0=    1 NMtDS0=    0 NMtDT0=    0
 Symmetry not used in FoFCou.
 Harris En= -115.560659061009    
 Leave Link  401 at Mon Apr 21 18:36:27 2025, MaxMem=   536870912 cpu:               4.0 elap:               0.6
 (Enter /home/szhao/Apps/g16/l502.exe)
 Keep R1 and R2 ints in memory in canonical form, NReq=12681626.
 FoFCou: FMM=F IPFlag=           0 FMFlag=           0 FMFlg1=           0
         NFxFlg=           0 DoJE=F BraDBF=F KetDBF=F FulRan=T
         wScrn=  0.000000 ICntrl=       600 IOpCl=  0 I1Cent=           0 NGrid=           0
         NMat0=    1 NMatS0=   2346 NMatT0=    0 NMatD0=    1 NMtDS0=    0 NMtDT0=    0
 Symmetry not used in FoFCou.
 Two-electron integral symmetry not used.
 UHF open shell SCF:
 Using DIIS extrapolation, IDIIS=  1040.
 NGot=   536870912 LenX=   531353782 LenY=   531348441
 Requested convergence on RMS density matrix=1.00D-08 within 128 cycles.
 Requested convergence on MAX density matrix=1.00D-06.
 Requested convergence on             energy=1.00D-06.
 No special actions if energy rises.

 Cycle   1  Pass 1  IDiag  1:
 E= -115.529953257866    
 DIIS: error= 7.66D-03 at cycle   1 NSaved=   1.
 NSaved= 1 IEnMin= 1 EnMin= -115.529953257866     IErMin= 1 ErrMin= 7.66D-03
 ErrMax= 7.66D-03  0.00D+00 EMaxC= 1.00D-01 BMatC= 1.65D-02 BMatP= 1.65D-02
 IDIUse=3 WtCom= 9.23D-01 WtEn= 7.66D-02
 Coeff-Com:  0.100D+01
 Coeff-En:   0.100D+01
 Coeff:      0.100D+01
 Gap=     0.520 Goal=   None    Shift=    0.000
 Gap=     0.520 Goal=   None    Shift=    0.000
 GapD=    0.520 DampG=2.000 DampE=1.000 DampFc=2.0000 IDamp=-1.
 RMSDP=8.89D-04 MaxDP=9.10D-03              OVMax= 3.23D-02

 Cycle   2  Pass 1  IDiag  1:
 E= -115.535481091788     Delta-E=       -0.005527833922 Rises=F Damp=F
 DIIS: error= 2.48D-03 at cycle   2 NSaved=   2.
 NSaved= 2 IEnMin= 2 EnMin= -115.535481091788     IErMin= 2 ErrMin= 2.48D-03
 ErrMax= 2.48D-03  0.00D+00 EMaxC= 1.00D-01 BMatC= 1.66D-03 BMatP= 1.65D-02
 IDIUse=3 WtCom= 9.75D-01 WtEn= 2.48D-02
 Coeff-Com:  0.613D-01 0.939D+00
 Coeff-En:   0.000D+00 0.100D+01
 Coeff:      0.598D-01 0.940D+00
 Gap=     0.201 Goal=   None    Shift=    0.000
 Gap=     0.201 Goal=   None    Shift=    0.000
 RMSDP=5.17D-04 MaxDP=8.21D-03 DE=-5.53D-03 OVMax= 4.12D-02

 Cycle   3  Pass 1  IDiag  1:
 E= -115.534175682170     Delta-E=        0.001305409618 Rises=F Damp=F
 DIIS: error= 6.82D-03 at cycle   3 NSaved=   3.
 NSaved= 3 IEnMin= 2 EnMin= -115.535481091788     IErMin= 2 ErrMin= 2.48D-03
 ErrMax= 6.82D-03  0.00D+00 EMaxC= 1.00D-01 BMatC= 8.03D-03 BMatP= 1.66D-03
 IDIUse=3 WtCom= 1.08D-01 WtEn= 8.92D-01
 Coeff-Com: -0.559D-01 0.739D+00 0.317D+00
 Coeff-En:   0.000D+00 0.755D+00 0.245D+00
 Coeff:     -0.604D-02 0.753D+00 0.253D+00
 Gap=     0.197 Goal=   None    Shift=    0.000
 Gap=     0.197 Goal=   None    Shift=    0.000
 RMSDP=2.87D-04 MaxDP=5.25D-03 DE= 1.31D-03 OVMax= 2.46D-02

 Cycle   4  Pass 1  IDiag  1:
 E= -115.536005924715     Delta-E=       -0.001830242545 Rises=F Damp=F
 DIIS: error= 7.43D-04 at cycle   4 NSaved=   4.
 NSaved= 4 IEnMin= 4 EnMin= -115.536005924715     IErMin= 4 ErrMin= 7.43D-04
 ErrMax= 7.43D-04  0.00D+00 EMaxC= 1.00D-01 BMatC= 1.13D-04 BMatP= 1.66D-03
 IDIUse=3 WtCom= 9.93D-01 WtEn= 7.43D-03
 Coeff-Com: -0.255D-01 0.720D-01-0.741D-01 0.103D+01
 Coeff-En:   0.000D+00 0.000D+00 0.000D+00 0.100D+01
 Coeff:     -0.253D-01 0.715D-01-0.735D-01 0.103D+01
 Gap=     0.196 Goal=   None    Shift=    0.000
 Gap=     0.196 Goal=   None    Shift=    0.000
 RMSDP=6.61D-05 MaxDP=8.75D-04 DE=-1.83D-03 OVMax= 2.99D-03

 Cycle   5  Pass 1  IDiag  1:
 E= -115.536042622467     Delta-E=       -0.000036697752 Rises=F Damp=F
 DIIS: error= 1.13D-04 at cycle   5 NSaved=   5.
 NSaved= 5 IEnMin= 5 EnMin= -115.536042622467     IErMin= 5 ErrMin= 1.13D-04
 ErrMax= 1.13D-04  0.00D+00 EMaxC= 1.00D-01 BMatC= 3.06D-06 BMatP= 1.13D-04
 IDIUse=3 WtCom= 9.99D-01 WtEn= 1.13D-03
 Coeff-Com:  0.312D-03-0.356D-01-0.295D-01 0.116D+00 0.949D+00
 Coeff-En:   0.000D+00 0.000D+00 0.000D+00 0.000D+00 0.100D+01
 Coeff:      0.311D-03-0.355D-01-0.294D-01 0.116D+00 0.949D+00
 Gap=     0.196 Goal=   None    Shift=    0.000
 Gap=     0.196 Goal=   None    Shift=    0.000
 RMSDP=2.34D-05 MaxDP=2.55D-04 DE=-3.67D-05 OVMax= 1.27D-03

 Cycle   6  Pass 1  IDiag  1:
 E= -115.536044567739     Delta-E=       -0.000001945272 Rises=F Damp=F
 DIIS: error= 1.12D-04 at cycle   6 NSaved=   6.
 NSaved= 6 IEnMin= 6 EnMin= -115.536044567739     IErMin= 6 ErrMin= 1.12D-04
 ErrMax= 1.12D-04  0.00D+00 EMaxC= 1.00D-01 BMatC= 1.73D-06 BMatP= 3.06D-06
 IDIUse=3 WtCom= 9.99D-01 WtEn= 1.12D-03
 Coeff-Com:  0.375D-02-0.253D-01-0.102D-01-0.952D-01 0.334D+00 0.793D+00
 Coeff-En:   0.000D+00 0.000D+00 0.000D+00 0.000D+00 0.000D+00 0.100D+01
 Coeff:      0.375D-02-0.253D-01-0.102D-01-0.951D-01 0.334D+00 0.793D+00
 Gap=     0.196 Goal=   None    Shift=    0.000
 Gap=     0.196 Goal=   None    Shift=    0.000
 RMSDP=9.11D-06 MaxDP=1.35D-04 DE=-1.95D-06 OVMax= 5.93D-04

 Cycle   7  Pass 1  IDiag  1:
 E= -115.536045251389     Delta-E=       -0.000000683650 Rises=F Damp=F
 DIIS: error= 1.51D-05 at cycle   7 NSaved=   7.
 NSaved= 7 IEnMin= 7 EnMin= -115.536045251389     IErMin= 7 ErrMin= 1.51D-05
 ErrMax= 1.51D-05  0.00D+00 EMaxC= 1.00D-01 BMatC= 3.56D-08 BMatP= 1.73D-06
 IDIUse=1 WtCom= 1.00D+00 WtEn= 0.00D+00
 Coeff-Com: -0.729D-03 0.886D-02 0.494D-02-0.451D-04-0.159D+00-0.159D+00
 Coeff-Com:  0.130D+01
 Coeff:     -0.729D-03 0.886D-02 0.494D-02-0.451D-04-0.159D+00-0.159D+00
 Coeff:      0.130D+01
 Gap=     0.196 Goal=   None    Shift=    0.000
 Gap=     0.196 Goal=   None    Shift=    0.000
 RMSDP=3.48D-06 MaxDP=3.98D-05 DE=-6.84D-07 OVMax= 2.69D-04

 Cycle   8  Pass 1  IDiag  1:
 E= -115.536045290497     Delta-E=       -0.000000039108 Rises=F Damp=F
 DIIS: error= 3.03D-06 at cycle   8 NSaved=   8.
 NSaved= 8 IEnMin= 8 EnMin= -115.536045290497     IErMin= 8 ErrMin= 3.03D-06
 ErrMax= 3.03D-06  0.00D+00 EMaxC= 1.00D-01 BMatC= 1.60D-09 BMatP= 3.56D-08
 IDIUse=1 WtCom= 1.00D+00 WtEn= 0.00D+00
 Coeff-Com: -0.274D-03 0.259D-02 0.126D-02 0.474D-02-0.348D-01-0.511D-01
 Coeff-Com:  0.228D+00 0.850D+00
 Coeff:     -0.274D-03 0.259D-02 0.126D-02 0.474D-02-0.348D-01-0.511D-01
 Coeff:      0.228D+00 0.850D+00
 Gap=     0.196 Goal=   None    Shift=    0.000
 Gap=     0.196 Goal=   None    Shift=    0.000
 RMSDP=5.91D-07 MaxDP=7.95D-06 DE=-3.91D-08 OVMax= 1.68D-05

 Cycle   9  Pass 1  IDiag  1:
 E= -115.536045291070     Delta-E=       -0.000000000573 Rises=F Damp=F
 DIIS: error= 8.20D-07 at cycle   9 NSaved=   9.
 NSaved= 9 IEnMin= 9 EnMin= -115.536045291070     IErMin= 9 ErrMin= 8.20D-07
 ErrMax= 8.20D-07  0.00D+00 EMaxC= 1.00D-01 BMatC= 1.71D-10 BMatP= 1.60D-09
 IDIUse=1 WtCom= 1.00D+00 WtEn= 0.00D+00
 Coeff-Com:  0.423D-04-0.500D-03-0.116D-03-0.355D-03 0.682D-02 0.942D-02
 Coeff-Com: -0.746D-01-0.118D+00 0.118D+01
 Coeff:      0.423D-04-0.500D-03-0.116D-03-0.355D-03 0.682D-02 0.942D-02
 Coeff:     -0.746D-01-0.118D+00 0.118D+01
 Gap=     0.196 Goal=   None    Shift=    0.000
 Gap=     0.196 Goal=   None    Shift=    0.000
 RMSDP=2.35D-07 MaxDP=3.16D-06 DE=-5.73D-10 OVMax= 7.39D-06

 Cycle  10  Pass 1  IDiag  1:
 E= -115.536045291155     Delta-E=       -0.000000000086 Rises=F Damp=F
 DIIS: error= 1.67D-07 at cycle  10 NSaved=  10.
 NSaved=10 IEnMin=10 EnMin= -115.536045291155     IErMin=10 ErrMin= 1.67D-07
 ErrMax= 1.67D-07  0.00D+00 EMaxC= 1.00D-01 BMatC= 7.78D-12 BMatP= 1.71D-10
 IDIUse=1 WtCom= 1.00D+00 WtEn= 0.00D+00
 Coeff-Com: -0.208D-05 0.301D-04 0.151D-04-0.239D-04-0.796D-03 0.249D-03
 Coeff-Com:  0.904D-02-0.749D-02-0.194D+00 0.119D+01
 Coeff:     -0.208D-05 0.301D-04 0.151D-04-0.239D-04-0.796D-03 0.249D-03
 Coeff:      0.904D-02-0.749D-02-0.194D+00 0.119D+01
 Gap=     0.196 Goal=   None    Shift=    0.000
 Gap=     0.196 Goal=   None    Shift=    0.000
 RMSDP=3.05D-08 MaxDP=4.40D-07 DE=-8.59D-11 OVMax= 1.10D-06

 Cycle  11  Pass 1  IDiag  1:
 E= -115.536045291158     Delta-E=       -0.000000000003 Rises=F Damp=F
 DIIS: error= 2.55D-08 at cycle  11 NSaved=  11.
 NSaved=11 IEnMin=11 EnMin= -115.536045291158     IErMin=11 ErrMin= 2.55D-08
 ErrMax= 2.55D-08  0.00D+00 EMaxC= 1.00D-01 BMatC= 7.74D-14 BMatP= 7.78D-12
 IDIUse=1 WtCom= 1.00D+00 WtEn= 0.00D+00
 Coeff-Com: -0.436D-06 0.504D-05-0.137D-05 0.116D-04-0.807D-04-0.182D-03
 Coeff-Com:  0.713D-03 0.883D-03-0.647D-02-0.520D-01 0.106D+01
 Coeff:     -0.436D-06 0.504D-05-0.137D-05 0.116D-04-0.807D-04-0.182D-03
 Coeff:      0.713D-03 0.883D-03-0.647D-02-0.520D-01 0.106D+01
 Gap=     0.196 Goal=   None    Shift=    0.000
 Gap=     0.196 Goal=   None    Shift=    0.000
 RMSDP=4.79D-09 MaxDP=6.63D-08 DE=-2.87D-12 OVMax= 3.81D-07

 SCF Done:  E(UM062X) =  -115.536045291     A.U. after   11 cycles
            NFock= 11  Conv=0.48D-08     -V/T= 2.0055
 <Sx>= 0.0000 <Sy>= 0.0000 <Sz>= 0.0000 <S**2>=-0.0000 S=-0.0000
 <L.S>=  0.00000000000    
 KE= 1.149043076243D+02 PE=-3.303088886307D+02 EE= 7.035920174997D+01
 Annihilation of the first spin contaminant:
 S**2 before annihilation    -0.0000,   after    -0.0000
 Leave Link  502 at Mon Apr 21 18:36:41 2025, MaxMem=   536870912 cpu:              97.7 elap:              13.5
 (Enter /home/szhao/Apps/g16/l701.exe)
 ... and contract with generalized density number  0.
 Compute integral first derivatives.
 Leave Link  701 at Mon Apr 21 18:36:42 2025, MaxMem=   536870912 cpu:               1.8 elap:               0.4
 (Enter /home/szhao/Apps/g16/l702.exe)
 L702 exits ... SP integral derivatives will be done elsewhere.
 Leave Link  702 at Mon Apr 21 18:36:42 2025, MaxMem=   536870912 cpu:               0.4 elap:               0.1
 (Enter /home/szhao/Apps/g16/l703.exe)
 Integral derivatives from FoFJK, PRISM(SPDF).
 Compute integral first derivatives, UseDBF=F ICtDFT=           0.
 Calling FoFJK, ICntrl=      2127 FMM=F ISym2X=0 I1Cent= 0 IOpClX= 1 NMat=1 NMatS=1 NMatT=0.
 FoFJK:  IHMeth= 1 ICntrl=    2127 DoSepK=F KAlg= 0 I1Cent=           0 FoldK=F
 IRaf=         0 NMat=       1 IRICut=       1 DoRegI=T DoRafI=F ISym2E= 0 IDoP0=0 IntGTp=1.
 FoFCou: FMM=F IPFlag=           0 FMFlag=      100000 FMFlg1=         800
[...]
           A1           0.00000  -0.00772  -0.00781  -0.00772   0.00013
           A2          -0.00001  -0.00666  -0.00757  -0.00665  -0.00039
           A3           0.00000  -0.00765  -0.00771  -0.00765   0.00014
           A4          -0.00000  -0.00270  -0.00221  -0.00269   0.00438
           A5           0.00001  -0.00217  -0.00145  -0.00216   0.00421
           A6          -0.00000  -0.00274  -0.00227  -0.00273   0.00436
           A7           0.00002  -0.00939  -0.01312  -0.00940  -0.00162
           D1           0.00000   0.01092   0.01496   0.01093   0.00274
           D2           0.00000   0.00011   0.00015   0.00011   0.00003
           D3          -0.00000  -0.01102  -0.01509  -0.01103  -0.00277
                          A1        A2        A3        A4        A5
           A1           0.12559
           A2           0.02569   0.05992
           A3          -0.03433   0.02549   0.12575
           A4           0.00589   0.00244   0.00588   0.16732
           A5           0.00328   0.00991   0.00328   0.00807   0.16582
           A6           0.00589   0.00239   0.00588   0.00731   0.00808
           A7          -0.00271   0.00698  -0.00237  -0.00038   0.00182
           D1           0.00204  -0.00209   0.00207  -0.00341   0.00069
           D2           0.00001  -0.00003   0.00001  -0.00002   0.00001
           D3          -0.00201   0.00206  -0.00204   0.00343  -0.00069
                          A6        A7        D1        D2        D3
           A6           0.16730
           A7          -0.00032   0.05329
           D1          -0.00346  -0.00312   0.00380
           D2          -0.00002  -0.00003   0.00001   0.00230
           D3           0.00348   0.00310  -0.00151  -0.00001   0.00382
 ITU=  0  0  1  1  1  1  1  1  0
     Eigenvalues ---    0.00230   0.03317   0.05593   0.11115   0.12008
     Eigenvalues ---    0.12345   0.16000   0.34249   0.34632   0.52952
     Eigenvalues ---    0.588541000.000001000.000001000.000001000.00000
     Eigenvalues --- 1000.000001000.000001000.000001000.000001000.00000
 En-DIIS/RFO-DIIS/Sim-DIIS IScMMF=       -3 using points:     9    8    7    6    5    4
 RFO step:  Lambda=-6.83253570D-08.
 NNeg= 0 NGDIIS= 6 SimSw=  2.50D-01 Rises=F DC= -1.83D-07 SmlDif=  1.00D-05
 NRisDI= 0 DoIntr=F SqrtH=F CThrHd= 10.0 CDAdj=  3.0
 RMS Error=  0.1825624472D-03 NUsed= 6 OKEnD=F EnDIS=F
 InvSVX:  RCond= 2.14D-10 Info=           0 Equed=N FErr=  2.09D-11 BErr=  6.72D-17
 DIIS inversion failure, remove point   6.
 InvSVX:  RCond= 2.07D-09 Info=           0 Equed=N FErr=  1.68D-12 BErr=  5.32D-17
 DIIS inversion failure, remove point   5.
 InvSVX:  RCond= 3.63D-09 Info=           0 Equed=N FErr=  1.14D-12 BErr=  5.79D-17
 DIIS inversion failure, remove point   4.
 InvSVX:  RCond= 3.48D-08 Info=           0 Equed=N FErr=  5.75D-14 BErr=  3.38D-17
 DIIS inversion failure, remove point   3.
 InvSVX:  RCond= 1.39D-06 Info=           0 Equed=N FErr=  1.67D-15 BErr=  2.44D-17
 RFO-DIIS uses    2 points instead of    6
 DidBck=F Rises=F RFO-DIIS coefs:    1.30994   -0.30994    0.00000    0.00000    0.00000
                  RFO-DIIS coefs:    0.00000
 Iteration  1 RMS(Cart)=  0.00035027 RMS(Int)=  0.00000015
 Iteration  2 RMS(Cart)=  0.00000010 RMS(Int)=  0.00000011
 ITry= 1 IFail=0 DXMaxC= 9.96D-04 DCOld= 1.00D+10 DXMaxT= 8.49D-01 DXLimC= 3.00D+00 Rises=F
 Variable       Old X    -DE/DX   Delta X   Delta X   Delta X     New X
                                 (Linear)    (Quad)   (Total)
    X1       -2.51750   0.00001   0.00000   0.00000   0.00000  -2.51750
    Y1        0.00000   0.00005   0.00000   0.00000   0.00000   0.00000
    Z1        0.00000  -0.00000   0.00000   0.00000   0.00000   0.00000
    X2        2.51750   0.00001   0.00000   0.00000   0.00000   2.51750
    Y2        0.00000  -0.00001   0.00000   0.00000   0.00000   0.00000
    Z2        0.00000  -0.00000   0.00000   0.00000   0.00000   0.00000
    R1        2.04249   0.00007   0.00001   0.00012   0.00012   2.04261
    R2        2.04167   0.00010   0.00001   0.00017   0.00018   2.04186
    R3        2.04249   0.00007   0.00001   0.00012   0.00012   2.04261
    R4        1.82459   0.00002   0.00000   0.00003   0.00003   1.82461
    A1        1.67252  -0.00003  -0.00031  -0.00009  -0.00040   1.67213
    A2        1.56974   0.00001   0.00057  -0.00008   0.00049   1.57023
    A3        1.67257  -0.00003  -0.00031  -0.00009  -0.00040   1.67218
    A4        2.08303  -0.00001   0.00002  -0.00005  -0.00003   2.08299
    A5        2.09340   0.00002  -0.00003   0.00017   0.00014   2.09354
    A6        2.08303  -0.00001   0.00002  -0.00006  -0.00004   2.08299
    A7        1.62312   0.00001   0.00006   0.00010   0.00016   1.62328
    D1        1.05620   0.00001  -0.00006   0.00008   0.00002   1.05622
    D2       -3.14115   0.00000   0.00001   0.00001   0.00002  -3.14113
    D3       -1.05532  -0.00001   0.00008  -0.00006   0.00002  -1.05530
         Item               Value     Threshold  Converged?
 Maximum Force            0.000101     0.000450     YES
 RMS     Force            0.000041     0.000300     YES
 Maximum Displacement     0.000996     0.001800     YES
 RMS     Displacement     0.000350     0.001200     YES
 Predicted change in Energy=-3.416211D-08
 Optimization completed.
    -- Stationary point found.
                           ----------------------------
                           !   Optimized Parameters   !
                           ! (Angstroms and Degrees)  !
 --------------------------                            --------------------------
 ! Name  Definition              Value          Derivative Info.                !
 --------------------------------------------------------------------------------
 ! X1    R(1,-1)                -1.3322         -DE/DX =    0.0                 !
 ! Y1    R(1,-2)                 0.0            -DE/DX =    0.0001              !
 ! Z1    R(1,-3)                 0.0            -DE/DX =    0.0                 !
 ! X2    R(2,-1)                 1.3322         -DE/DX =    0.0                 !
 ! Y2    R(2,-2)                 0.0            -DE/DX =    0.0                 !
 ! Z2    R(2,-3)                 0.0            -DE/DX =    0.0                 !
 ! R1    R(1,4)                  1.0808         -DE/DX =    0.0001              !
 ! R2    R(1,5)                  1.0804         -DE/DX =    0.0001              !
 ! R3    R(1,6)                  1.0808         -DE/DX =    0.0001              !
 ! R4    R(2,3)                  0.9655         -DE/DX =    0.0                 !
 ! A1    A(2,1,4)               95.8285         -DE/DX =    0.0                 !
 ! A2    A(2,1,5)               89.9394         -DE/DX =    0.0                 !
 ! A3    A(2,1,6)               95.8313         -DE/DX =    0.0                 !
 ! A4    A(4,1,5)              119.3485         -DE/DX =    0.0                 !
 ! A5    A(4,1,6)              119.9427         -DE/DX =    0.0                 !
 ! A6    A(5,1,6)              119.3488         -DE/DX =    0.0                 !
 ! A7    A(1,2,3)               92.9977         -DE/DX =    0.0                 !
 ! D1    D(4,1,2,3)             60.5161         -DE/DX =    0.0                 !
 ! D2    D(5,1,2,3)           -179.9749         -DE/DX =    0.0                 !
 ! D3    D(6,1,2,3)            -60.4655         -DE/DX =    0.0                 !
 --------------------------------------------------------------------------------
 Lowest energy point so far.  Saving SCF results.
 Largest change from initial coordinates is atom    5       0.307 Angstoms.
 GradGradGradGradGradGradGradGradGradGradGradGradGradGradGradGradGradGrad

 Leave Link  103 at Mon Apr 21 18:38:22 2025, MaxMem=   536870912 cpu:               0.5 elap:               0.1
 (Enter /home/szhao/Apps/g16/l202.exe)
                          Input orientation:                          
 ---------------------------------------------------------------------
 Center     Atomic      Atomic             Coordinates (Angstroms)
 Number     Number       Type             X           Y           Z
 ---------------------------------------------------------------------
      1          6           0       -1.332203    0.000000    0.000000
      2          8           0        1.332203    0.000000    0.000000
      3          1           0        1.382696   -0.964208    0.000266
      4          1           0       -1.441962   -0.528957    0.936144
      5          1           0       -1.331060    1.080407   -0.000771
      6          1           0       -1.442015   -0.530297   -0.935379
 ---------------------------------------------------------------------
                    Distance matrix (angstroms):
                    1          2          3          4          5
     1  C    0.000000
     2  O    2.664405   0.000000
     3  H    2.881037   0.965529   0.000000
     4  H    1.080837   2.975256   3.007325   0.000000
     5  H    1.080408   2.874065   3.397782   1.865519   0.000000
     6  H    1.080837   2.975304   3.007109   1.871524   1.865521
                    6
     6  H    0.000000
 Symmetry turned off by external request.
 Stoichiometry    CH4O
 Framework group  C1[X(CH4O)]
 Deg. of freedom    12
 Full point group                 C1      NOp   1
 Rotational constants (GHZ):         115.1166792           8.5384966           8.4161906
 Leave Link  202 at Mon Apr 21 18:38:22 2025, MaxMem=   536870912 cpu:               0.1 elap:               0.1
 (Enter /home/szhao/Apps/g16/l601.exe)
 Copying SCF densities to generalized density rwf, IOpCl= 1 IROHF=0.

 **********************************************************************

            Population analysis using the SCF density.

 **********************************************************************

 Alpha  occ. eigenvalues --  -19.59816 -10.65602  -1.02074  -0.83121  -0.55191
 Alpha  occ. eigenvalues --   -0.54931  -0.46477  -0.33432  -0.31804
 Alpha virt. eigenvalues --   -0.12087   0.00796   0.04232   0.04696   0.06495
 Alpha virt. eigenvalues --    0.14268   0.15997   0.16240   0.20174   0.22894
 Alpha virt. eigenvalues --    0.23070   0.24550   0.31969   0.40063   0.40587
 Alpha virt. eigenvalues --    0.46809   0.58539   0.60379   0.61122   0.62268
 Alpha virt. eigenvalues --    0.80630   1.05601   1.06367   1.08717   1.13365
 Alpha virt. eigenvalues --    1.15615   1.38033   1.39692   1.42399   1.43070
 Alpha virt. eigenvalues --    1.45686   1.48096   1.54239   1.76462   1.86388
 Alpha virt. eigenvalues --    1.86389   1.98282   1.98356   2.12881   2.40628
 Alpha virt. eigenvalues --    2.43235   2.43291   2.54017   2.61441   2.61845
 Alpha virt. eigenvalues --    2.73049   2.78869   2.96357   3.05286   3.24280
 Alpha virt. eigenvalues --    3.25430   3.70307   3.70845   3.91792   5.12210
 Alpha virt. eigenvalues --    5.14698   5.59933  23.89804  49.96148
  Beta  occ. eigenvalues --  -19.59816 -10.65602  -1.02074  -0.83121  -0.55191
  Beta  occ. eigenvalues --   -0.54931  -0.46477  -0.33432  -0.31804
  Beta virt. eigenvalues --   -0.12087   0.00796   0.04232   0.04696   0.06495
  Beta virt. eigenvalues --    0.14268   0.15997   0.16240   0.20174   0.22894
  Beta virt. eigenvalues --    0.23070   0.24550   0.31969   0.40063   0.40587
  Beta virt. eigenvalues --    0.46809   0.58539   0.60379   0.61122   0.62268
  Beta virt. eigenvalues --    0.80630   1.05601   1.06367   1.08717   1.13365
  Beta virt. eigenvalues --    1.15615   1.38033   1.39692   1.42399   1.43070
  Beta virt. eigenvalues --    1.45686   1.48096   1.54239   1.76462   1.86388
  Beta virt. eigenvalues --    1.86389   1.98282   1.98356   2.12881   2.40628
  Beta virt. eigenvalues --    2.43235   2.43291   2.54017   2.61441   2.61845
  Beta virt. eigenvalues --    2.73049   2.78869   2.96357   3.05286   3.24280
  Beta virt. eigenvalues --    3.25430   3.70307   3.70845   3.91792   5.12210
  Beta virt. eigenvalues --    5.14698   5.59933  23.89804  49.96148
          Condensed to atoms (all electrons):
               1          2          3          4          5          6
     1  C    5.004192   0.126336   0.003855   0.383350   0.390398   0.383348
     2  O    0.126336   8.209161   0.238832  -0.006014  -0.007477  -0.006012
     3  H    0.003855   0.238832   0.540942  -0.000440   0.000298  -0.000440
     4  H    0.383350  -0.006014  -0.000440   0.460768  -0.019140  -0.022597
     5  H    0.390398  -0.007477   0.000298  -0.019140   0.433844  -0.019142
     6  H    0.383348  -0.006012  -0.000440  -0.022597  -0.019142   0.460783
          Atomic-Atomic Spin Densities.
               1          2          3          4          5          6
     1  C    0.000021   0.000001   0.000000  -0.000000  -0.000000  -0.000000
     2  O    0.000001  -0.000021  -0.000000   0.000000   0.000000   0.000000
     3  H    0.000000  -0.000000   0.000000  -0.000000  -0.000000  -0.000000
     4  H   -0.000000   0.000000  -0.000000  -0.000000   0.000000   0.000000
     5  H   -0.000000   0.000000  -0.000000   0.000000  -0.000000   0.000000
     6  H   -0.000000   0.000000  -0.000000   0.000000   0.000000  -0.000000
 Mulliken charges and spin densities:
               1          2
     1  C   -0.291480   0.000021
     2  O   -0.554825  -0.000020
     3  H    0.216953   0.000000
     4  H    0.204074  -0.000001
     5  H    0.221218  -0.000001
     6  H    0.204060  -0.000001
 Sum of Mulliken charges =  -0.00000   0.00000
 Mulliken charges and spin densities with hydrogens summed into heavy atoms:
               1          2
     1  C    0.337872   0.000020
     2  O   -0.337872  -0.000020
 Electronic spatial extent (au):  <R**2>=            161.1089
 Charge=             -0.0000 electrons
 Dipole moment (field-independent basis, Debye):
    X=             -4.6055    Y=             -1.5459    Z=              0.0004  Tot=              4.8580
 Quadrupole moment (field-independent basis, Debye-Ang):
   XX=            -13.2609   YY=            -11.4111   ZZ=            -13.8346
   XY=             -2.3651   XZ=              0.0006   YZ=             -0.0007
 Traceless Quadrupole moment (field-independent basis, Debye-Ang):
   XX=             -0.4254   YY=              1.4244   ZZ=             -0.9990
   XY=             -2.3651   XZ=              0.0006   YZ=             -0.0007
 Octapole moment (field-independent basis, Debye-Ang**2):
  XXX=             -4.5415  YYY=              1.2557  ZZZ=              0.0023  XYY=              1.3088
  XXY=             -3.2165  XXZ=              0.0009  XZZ=             -2.2548  YZZ=             -0.7466
  YYZ=             -0.0024  XYZ=             -0.0011
 Hexadecapole moment (field-independent basis, Debye-Ang**3):
 XXXX=           -166.1839 YYYY=            -19.2327 ZZZZ=            -20.1707 XXXY=             -2.7681
 XXXZ=              0.0008 YYYX=             -2.2927 YYYZ=             -0.0005 ZZZX=             -0.0042
 ZZZY=              0.0002 XXYY=            -26.3420 XXZZ=            -30.2631 YYZZ=             -6.9203
 XXYZ=             -0.0008 YYXZ=              0.0041 ZZXY=              2.2175
 N-N= 2.951030231522D+01 E-N=-3.302913781890D+02  KE= 1.148915460044D+02
                          Isotropic Fermi Contact Couplings
        Atom                 a.u.       MegaHertz       Gauss      10(-4) cm-1
     1  C(13)              0.00000       0.00073       0.00026       0.00024
     2  O(17)             -0.00000       0.00012       0.00004       0.00004
     3  H(1)               0.00000       0.00036       0.00013       0.00012
     4  H(1)              -0.00000      -0.00032      -0.00011      -0.00011
     5  H(1)              -0.00000      -0.00034      -0.00012      -0.00011
     6  H(1)              -0.00000      -0.00032      -0.00011      -0.00011
 --------------------------------------------------------
       Center         ----  Spin Dipole Couplings  ----
                      3XX-RR        3YY-RR        3ZZ-RR
 --------------------------------------------------------
     1   Atom        0.000020     -0.000010     -0.000010
     2   Atom       -0.000072      0.000036      0.000036
     3   Atom        0.000001     -0.000003      0.000002
     4   Atom       -0.000000     -0.000001      0.000001
     5   Atom       -0.000000      0.000001     -0.000001
     6   Atom       -0.000000     -0.000001      0.000001
 --------------------------------------------------------
                        XY            XZ            YZ
 --------------------------------------------------------
     1   Atom       -0.000002      0.000000     -0.000000
     2   Atom       -0.000004      0.000000     -0.000000
     3   Atom        0.000000     -0.000000      0.000000
     4   Atom       -0.000000     -0.000000     -0.000001
     5   Atom        0.000000     -0.000000     -0.000000
     6   Atom       -0.000000      0.000000      0.000001
 --------------------------------------------------------


 ---------------------------------------------------------------------------------
              Anisotropic Spin Dipole Couplings in Principal Axis System
 ---------------------------------------------------------------------------------

       Atom             a.u.   MegaHertz   Gauss  10(-4) cm-1        Axes

              Baa    -0.0000    -0.001    -0.000    -0.000  0.0616  0.9981 -0.0008
     1 C(13)  Bbb    -0.0000    -0.001    -0.000    -0.000  0.0000  0.0008  1.0000
              Bcc     0.0000     0.003     0.001     0.001  0.9981 -0.0616  0.0000
 
              Baa    -0.0001     0.005     0.002     0.002  0.9993  0.0382 -0.0000
     2 O(17)  Bbb     0.0000    -0.003    -0.001    -0.001  0.0000  0.0003  1.0000
              Bcc     0.0000    -0.003    -0.001    -0.001 -0.0382  0.9993 -0.0003
 
              Baa    -0.0000    -0.002    -0.001    -0.001 -0.0143  0.9999 -0.0003
     3 H(1)   Bbb     0.0000     0.000     0.000     0.000  0.9999  0.0143 -0.0000
              Bcc     0.0000     0.001     0.000     0.000  0.0000  0.0003  1.0000
 
              Baa    -0.0000    -0.001    -0.000    -0.000  0.0750  0.8671  0.4925
     4 H(1)   Bbb    -0.0000    -0.000    -0.000    -0.000  0.9972 -0.0683 -0.0316
              Bcc     0.0000     0.001     0.000     0.000 -0.0062 -0.4935  0.8697
 
              Baa    -0.0000    -0.001    -0.000    -0.000  0.0000  0.0007  1.0000
     5 H(1)   Bbb    -0.0000    -0.000    -0.000    -0.000  0.9982 -0.0596  0.0000
              Bcc     0.0000     0.001     0.000     0.000  0.0596  0.9982 -0.0007
 
              Baa    -0.0000    -0.001    -0.000    -0.000  0.0749  0.8663 -0.4938
     6 H(1)   Bbb    -0.0000    -0.000    -0.000    -0.000  0.9972 -0.0682  0.0317
              Bcc     0.0000     0.001     0.000     0.000  0.0062  0.4948  0.8690
 

 ---------------------------------------------------------------------------------

 No NMR shielding tensors so no spin-rotation constants.
 Leave Link  601 at Mon Apr 21 18:38:23 2025, MaxMem=   536870912 cpu:               2.8 elap:               0.4
 (Enter /home/szhao/Apps/g16/l9999.exe)
 1\1\GINC-NODE03\FOpt\UM062X\6-311+G(d,p)\C1H4O1\SZHAO\21-Apr-2025\0\\#
 p opt UM062X/6-311+G** nosymm int=superfine\\Title Card Required\\0,1\
 C,-1.33220268,0.,0.\O,1.33220268,0.,0.\H,1.3826962229,-0.9642077929,0.
 0002663707\H,-1.4419621222,-0.5289568655,0.9361438583\H,-1.3310604214,
 1.0804067035,-0.0007714527\H,-1.4420149719,-0.5302972234,-0.935379177\
 \Version=ES64L-G16RevA.03\HF=-115.5362052\S2=0.\S2-1=0.\S2A=0.\RMSD=7.
 160e-09\RMSF=3.496e-05\Dipole=-1.8119541,-0.6081867,0.0001684\Quadrupo
 le=-0.3162561,1.0590099,-0.7427538,-1.7584266,0.0004799,-0.0005005\PG=
 C01 [X(C1H4O1)]\\@


 YOU WILL NEVER "FIND" TIME FOR ANYTHING.
 IF YOU WANT TIME, YOU MUST MAKE IT.

                        -- CHARLES BIXTON
 Job cpu time:       0 days  0 hours 16 minutes 34.4 seconds.
 Elapsed time:       0 days  0 hours  2 minutes 22.6 seconds.
 File lengths (MBytes):  RWF=     22 Int=      0 D2E=      0 Chk=      2 Scr=      2
 Normal termination of Gaussian 16 at Mon Apr 21 18:38:24 2025.
