Title Card Required                                                     
FOpt      UM062X                                                      6-311+G(d,p)        
Number of atoms                            I                4
Info1-9                                    I   N=           9
          13          13           0           0           0         110
           2          18        -502
Full Title                                 C   N=           2
Title Card Required     
Route                                      C   N=           5
#p opt UM062X/6-311+G** nosymm int=superfine SCF=NoVarAcc   
Charge                                     I                0
Multiplicity                               I                1
Number of electrons                        I               14
Number of alpha electrons                  I                7
Number of beta electrons                   I                7
Number of basis functions                  I               56
Number of independent functions            I               56
Number of point charges in /Mol/           I                0
Number of translation vectors              I                0
Atomic numbers                             I   N=           4
           6           6           1           1
Nuclear charges                            R   N=           4
  6.00000000E+00  6.00000000E+00  1.00000000E+00  1.00000000E+00
Current cartesian coordinates              R   N=          12
 -1.31007626E+01  0.00000000E+00  0.00000000E+00  1.31007626E+01  0.00000000E+00
  0.00000000E+00 -1.52176579E+01 -1.26359826E-05  1.26359604E-05  1.52176579E+01
  8.51546209E-06 -8.51543655E-06
Number of symbols in /Mol/                 I                0
Force Field                                I                0
Atom Types                                 C   N=           4
                                                
Int Atom Types                             I   N=           4
           0           0           0           0
MM charges                                 R   N=           4
  0.00000000E+00  0.00000000E+00  0.00000000E+00  0.00000000E+00
Integer atomic weights                     I   N=           4
          12          12           1           1
Real atomic weights                        R   N=           4
  1.20000000E+01  1.20000000E+01  1.00782504E+00  1.00782504E+00
Atom fragment info                         I   N=           4
           0           0           0           0
Atom residue num                           I   N=           4
           0           0           0           0
Nuclear spins                              I   N=           4
           0           0           1           1
Nuclear ZEff                               R   N=           4
 -3.60000000E+00 -3.60000000E+00 -1.00000000E+00 -1.00000000E+00
Nuclear ZNuc                               R   N=           4
  6.00000000E+00  6.00000000E+00  1.00000000E+00  1.00000000E+00
Nuclear QMom                               R   N=           4
  0.00000000E+00  0.00000000E+00  0.00000000E+00  0.00000000E+00
Nuclear GFac                               R   N=           4
  0.00000000E+00  0.00000000E+00  2.79284600E+00  2.79284600E+00
MicOpt                                     I   N=           4
          -2          -2          -1          -1
Number of residues                         I                0
Number of secondary structures             I                0
Redundant internal dimensions              I   N=           4
          12           8           4           0
Redundant internal coordinate indices      I   N=          48
           1          -1           0           0           1          -2
           0           0           1          -3           0           0
           2          -1           0           0           2          -2
           0           0           2          -3           0           0
           1           3           0           0           2           4
           0           0           2           1           3          -4
           1           2           4          -4           2           1
           3          -8           1           2           4          -8
Redundant internal coordinates             R   N=          12
 -1.31007626E+01  0.00000000E+00  0.00000000E+00  1.31007626E+01  0.00000000E+00
  0.00000000E+00  2.11689536E+00  2.11689529E+00  3.14158668E+00  3.14158863E+00
  3.14158668E+00  3.14158863E+00
ZRed-IntVec                                I   N=          12
          -1          -1          -1          -1          -1          -1
           0           0           0           0           0           0
ZRed-FPVec                                 R   N=          12
  0.00000000E+00  0.00000000E+00  0.00000000E+00  0.00000000E+00  0.00000000E+00
  0.00000000E+00  0.00000000E+00  0.00000000E+00  0.00000000E+00  0.00000000E+00
  0.00000000E+00  0.00000000E+00
ZRed-Constraint1                           R   N=          12
 -1.31007626E+01  0.00000000E+00  0.00000000E+00  1.31007626E+01  0.00000000E+00
  0.00000000E+00  2.12190166E+00  2.12189977E+00  3.14158731E+00  3.14158909E+00
  3.14158731E+00  3.14158909E+00
ZRed-Constraint2                           R   N=          12
 -1.31007626E+01  0.00000000E+00  0.00000000E+00  1.31007626E+01  0.00000000E+00
  0.00000000E+00  0.00000000E+00  0.00000000E+00  0.00000000E+00  0.00000000E+00
  0.00000000E+00  0.00000000E+00
Number of contracted shells                I               20
Number of primitive shells                 I               38
Pure/Cartesian d shells                    I                0
Pure/Cartesian f shells                    I                0
Highest angular momentum                   I                2
Largest degree of contraction              I                6
Shell types                                I   N=          20
           0          -1          -1          -1          -1          -2
           0          -1          -1          -1          -1          -2
           0           0           0           1           0           0
           0           1
Number of primitives per shell             I   N=          20
           6           3           1           1           1           1
           6           3           1           1           1           1
           3           1           1           1           3           1
           1           1
Shell to atom map                          I   N=          20
           1           1           1           1           1           1
           2           2           2           2           2           2
           3           3           3           3           4           4
           4           4
Primitive exponents                        R   N=          38
  4.56324000E+03  6.82024000E+02  1.54973000E+02  4.44553000E+01  1.30290000E+01
  1.82773000E+00  2.09642000E+01  4.80331000E+00  1.45933000E+00  4.83456000E-01
  1.45585000E-01  4.38000000E-02  6.26000000E-01  4.56324000E+03  6.82024000E+02
  1.54973000E+02  4.44553000E+01  1.30290000E+01  1.82773000E+00  2.09642000E+01
  4.80331000E+00  1.45933000E+00  4.83456000E-01  1.45585000E-01  4.38000000E-02
  6.26000000E-01  3.38650000E+01  5.09479000E+00  1.15879000E+00  3.25840000E-01
  1.02741000E-01  7.50000000E-01  3.38650000E+01  5.09479000E+00  1.15879000E+00
  3.25840000E-01  1.02741000E-01  7.50000000E-01
Contraction coefficients                   R   N=          38
  1.96665025E-03  1.52306019E-02  7.61269097E-02  2.60801033E-01  6.16462078E-01
  2.21006028E-01  1.14660081E-01  9.19999648E-01 -3.03068213E-03  1.00000000E+00
  1.00000000E+00  1.00000000E+00  1.00000000E+00  1.96665025E-03  1.52306019E-02
  7.61269097E-02  2.60801033E-01  6.16462078E-01  2.21006028E-01  1.14660081E-01
  9.19999648E-01 -3.03068213E-03  1.00000000E+00  1.00000000E+00  1.00000000E+00
  1.00000000E+00  2.54938145E-02  1.90373109E-01  8.52161486E-01  1.00000000E+00
  1.00000000E+00  1.00000000E+00  2.54938145E-02  1.90373109E-01  8.52161486E-01
  1.00000000E+00  1.00000000E+00  1.00000000E+00
P(S=P) Contraction coefficients            R   N=          38
  0.00000000E+00  0.00000000E+00  0.00000000E+00  0.00000000E+00  0.00000000E+00
  0.00000000E+00  4.02486927E-02  2.37593957E-01  8.15853851E-01  1.00000000E+00
  1.00000000E+00  1.00000000E+00  0.00000000E+00  0.00000000E+00  0.00000000E+00
  0.00000000E+00  0.00000000E+00  0.00000000E+00  0.00000000E+00  4.02486927E-02
  2.37593957E-01  8.15853851E-01  1.00000000E+00  1.00000000E+00  1.00000000E+00
  0.00000000E+00  0.00000000E+00  0.00000000E+00  0.00000000E+00  0.00000000E+00
  0.00000000E+00  0.00000000E+00  0.00000000E+00  0.00000000E+00  0.00000000E+00
  0.00000000E+00  0.00000000E+00  0.00000000E+00
Coordinates of each shell                  R   N=          60
 -1.31007626E+01  0.00000000E+00  0.00000000E+00 -1.31007626E+01  0.00000000E+00
  0.00000000E+00 -1.31007626E+01  0.00000000E+00  0.00000000E+00 -1.31007626E+01
  0.00000000E+00  0.00000000E+00 -1.31007626E+01  0.00000000E+00  0.00000000E+00
 -1.31007626E+01  0.00000000E+00  0.00000000E+00  1.31007626E+01  0.00000000E+00
  0.00000000E+00  1.31007626E+01  0.00000000E+00  0.00000000E+00  1.31007626E+01
  0.00000000E+00  0.00000000E+00  1.31007626E+01  0.00000000E+00  0.00000000E+00
  1.31007626E+01  0.00000000E+00  0.00000000E+00  1.31007626E+01  0.00000000E+00
  0.00000000E+00 -1.52176579E+01 -1.26359826E-05  1.26359604E-05 -1.52176579E+01
 -1.26359826E-05  1.26359604E-05 -1.52176579E+01 -1.26359826E-05  1.26359604E-05
 -1.52176579E+01 -1.26359826E-05  1.26359604E-05  1.52176579E+01  8.51546209E-06
 -8.51543655E-06  1.52176579E+01  8.51546209E-06 -8.51543655E-06  1.52176579E+01
  8.51546209E-06 -8.51543655E-06  1.52176579E+01  8.51546209E-06 -8.51543655E-06
Num ILSW                                   I              100
ILSW                                       I   N=         100
           1           0           0           1           2           0
           0           0           0           0        4336          -1
           7           0           0           0           2           0
           0           0           0           0           1           0
           1           1           0           0           0           0
           0           0      100000           0          -1           0
           0           0           0           0           0           0
           0           0           0           1           0           0
           0 -2000000000           1           0           0           0
           0           0           4          52           0           0
           0           0          55           0           0           0
           0           0           0           4           0           1
           0           0           0           0           0           0
           0           0           0           0           0           0
           0           0           0           0           0           0
           0           0           0           0           0           0
           0           0           0           0
Num RLSW                                   I               52
RLSW                                       R   N=          52
  1.00000000E+00  1.00000000E+00  1.00000000E+00  1.00000000E+00  5.40000000E-01
  0.00000000E+00  0.00000000E+00  1.00000000E+00  0.00000000E+00  0.00000000E+00
  0.00000000E+00  0.00000000E+00  1.00000000E+00  0.00000000E+00  0.00000000E+00
  0.00000000E+00  0.00000000E+00  1.00000000E+00  0.00000000E+00  0.00000000E+00
  0.00000000E+00  0.00000000E+00  1.00000000E+00  0.00000000E+00  0.00000000E+00
  0.00000000E+00  0.00000000E+00  1.00000000E+00  0.00000000E+00  0.00000000E+00
  0.00000000E+00  0.00000000E+00  1.00000000E+00  0.00000000E+00  0.00000000E+00
  0.00000000E+00  0.00000000E+00  0.00000000E+00  1.00000000E+00  1.00000000E+00
  0.00000000E+00  1.00000000E+00  0.00000000E+00  0.00000000E+00  0.00000000E+00
  0.00000000E+00  0.00000000E+00  0.00000000E+00  0.00000000E+00  0.00000000E+00
  0.00000000E+00  0.00000000E+00
MxBond                                     I                2
NBond                                      I   N=           4
           2           2           1           1
IBond                                      I   N=           8
           2           3           1           4           1           0
           2           0
RBond                                      R   N=           8
  1.00000000E-01  1.00000000E+00  1.00000000E-01  1.00000000E+00  1.00000000E+00
  0.00000000E+00  1.00000000E+00  0.00000000E+00
Virial Ratio                               R      2.003100767577863E+00
SCF Energy                                 R     -7.681402655770410E+01
Total Energy                               R     -7.681402655770410E+01
S**2                                       R     -2.575717417130363E-14
S**2 after annihilation                    R      1.794120407794226E-13
RMS Force                                  R      3.140294255213839E-05
RMS Density                                R      2.430969220713741E-09
Job Status                                 I                1
Nuclear derivative order                   I                1
External E-field                           R   N=          35
  0.00000000E+00  0.00000000E+00  0.00000000E+00  0.00000000E+00  0.00000000E+00
  0.00000000E+00  0.00000000E+00  0.00000000E+00  0.00000000E+00  0.00000000E+00
  0.00000000E+00  0.00000000E+00  0.00000000E+00  0.00000000E+00  0.00000000E+00
  0.00000000E+00  0.00000000E+00  0.00000000E+00  0.00000000E+00  0.00000000E+00
  0.00000000E+00  0.00000000E+00  0.00000000E+00  0.00000000E+00  0.00000000E+00
  0.00000000E+00  0.00000000E+00  0.00000000E+00  0.00000000E+00  0.00000000E+00
  0.00000000E+00  0.00000000E+00  0.00000000E+00  0.00000000E+00  0.00000000E+00
IOpCl                                      I                1
IROHF                                      I                0
Alpha Orbital Energies                     R   N=          56
 -1.06675302E+01 -1.06675300E+01 -7.25349466E-01 -7.25331249E-01 -3.87185751E-01
 -3.87177022E-01 -1.92037469E-01 -1.71565819E-01 -9.73953400E-02 -9.73951642E-02
  3.28616859E-02  3.28774473E-02  8.08691529E-02  8.08698781E-02  8.19601502E-02
  8.19842631E-02  8.91216254E-02  8.91227198E-02  1.73296335E-01  1.73301788E-01
  4.53874974E-01  4.53886084E-01  5.71692452E-01  5.71692760E-01  5.77167229E-01
  5.77167569E-01  6.12178587E-01  6.12179064E-01  6.84278367E-01  6.84286881E-01
  1.12569773E+00  1.12569773E+00  1.13596643E+00  1.13599077E+00  1.33317565E+00
  1.33318751E+00  1.34557138E+00  1.34558317E+00  1.58006241E+00  1.58006556E+00
  1.84796286E+00  1.84796289E+00  1.85888344E+00  1.85888550E+00  2.38369291E+00
  2.38369394E+00  2.48747218E+00  2.48747479E+00  2.70381538E+00  2.70381552E+00
  2.70783752E+00  2.70783766E+00  3.16965280E+00  3.16965468E+00  2.35093011E+01
  2.35093021E+01
Beta Orbital Energies                      R   N=          56
 -1.06675302E+01 -1.06675300E+01 -7.25349466E-01 -7.25331249E-01 -3.87185751E-01
 -3.87177022E-01 -1.92037469E-01 -1.71565819E-01 -9.73953400E-02 -9.73951642E-02
  3.28616859E-02  3.28774473E-02  8.08691529E-02  8.08698781E-02  8.19601502E-02
  8.19842631E-02  8.91216254E-02  8.91227198E-02  1.73296335E-01  1.73301788E-01
  4.53874974E-01  4.53886084E-01  5.71692452E-01  5.71692760E-01  5.77167229E-01
  5.77167569E-01  6.12178587E-01  6.12179064E-01  6.84278367E-01  6.84286881E-01
  1.12569773E+00  1.12569773E+00  1.13596643E+00  1.13599077E+00  1.33317565E+00
  1.33318751E+00  1.34557138E+00  1.34558317E+00  1.58006241E+00  1.58006556E+00
  1.84796286E+00  1.84796289E+00  1.85888344E+00  1.85888550E+00  2.38369291E+00
  2.38369394E+00  2.48747218E+00  2.48747479E+00  2.70381538E+00  2.70381552E+00
  2.70783752E+00  2.70783766E+00  3.16965280E+00  3.16965468E+00  2.35093011E+01
  2.35093021E+01
Alpha MO coefficients                      R   N=        3136
  4.02412919E-01  3.31524220E-01 -1.28684357E-03 -7.65193166E-09  7.65191600E-09
  6.74574986E-03 -9.80634246E-04 -5.87086940E-09  5.87085941E-09 -2.82470329E-03
 -4.36769460E-05 -2.53296446E-10  2.53297073E-10  2.98952264E-04  4.68409127E-04
  2.79334262E-09 -2.79333814E-09 -3.84529068E-04 -7.70048822E-09 -4.27833777E-05
  6.66036396E-04  7.70057740E-09  3.95189979E-01  3.25573667E-01  1.26374593E-03
  5.06426319E-09 -5.06424726E-09  6.62466968E-03  9.63033098E-04  3.88517363E-09
 -3.88516167E-09 -2.77399904E-03  4.28943118E-05  1.67761091E-10 -1.67762798E-10
  2.93590030E-04 -4.60001044E-04 -1.84870937E-09  1.84870464E-09 -3.77626957E-04
 -5.09631247E-09 -4.20140128E-05  6.54081369E-04  5.09637797E-09  2.36314199E-04
 -1.97845746E-03  1.60801367E-03 -1.38122805E-03 -8.24102238E-09  8.24100762E-09
  2.32072569E-04 -1.94294698E-03  1.57914815E-03  1.35643667E-03  5.45392343E-09
 -5.45390660E-09 -3.95189987E-01 -3.25573679E-01  1.26374558E-03  7.51457402E-09
 -7.51455859E-09 -6.62469793E-03  9.63033832E-04  5.76553816E-09 -5.76552676E-09
  2.77418988E-03  4.28191180E-05  2.48187931E-10 -2.48187289E-10 -2.93376236E-04
 -4.60035812E-04 -2.74344782E-09  2.74344316E-09  3.77641170E-04  7.56208481E-09
  4.20950160E-05 -6.54106005E-04 -7.56217264E-09  4.02412926E-01  3.31524232E-01
  1.28684323E-03  5.15681440E-09 -5.15679808E-09  6.74577819E-03  9.80635664E-04
  3.95621626E-09 -3.95620207E-09 -2.82489061E-03  4.36030794E-05  1.70440493E-10
 -1.70440134E-10  2.98742062E-04 -4.68443365E-04 -1.88266373E-09  1.88265883E-09
 -3.84543194E-04 -5.18933007E-09 -4.28629229E-05  6.66060892E-04  5.18939736E-09
 -2.32069915E-04  1.94291692E-03 -1.57934091E-03  1.35642948E-03  8.09308034E-09
 -8.09306629E-09  2.36311479E-04 -1.97842889E-03  1.60820352E-03  1.38122151E-03
  5.55358928E-09 -5.55357287E-09 -7.66051879E-02 -1.23981734E-01 -5.44669485E-02
 -3.24868845E-07  3.24868302E-07  3.52777711E-01 -8.20512478E-02 -4.89149749E-07
  4.89148923E-07  2.45677445E-01 -3.29243222E-02 -1.95943021E-07  1.95942787E-07
 -6.56321255E-04 -8.72534523E-04 -5.19329404E-09  5.19330881E-09 -5.16891908E-03
 -8.78228758E-08 -3.19809941E-03  8.95376617E-03  8.78286948E-08 -7.66534389E-02
 -1.24059826E-01  5.45012630E-02  2.19041767E-07 -2.19041177E-07  3.52999915E-01
  8.21029387E-02  3.29804248E-07 -3.29803355E-07  2.45832172E-01  3.29450566E-02
  1.32043634E-07 -1.32043394E-07 -6.56756288E-04  8.73083274E-04  3.49326053E-09
 -3.49329137E-09 -5.17217578E-03 -5.92198657E-08 -3.20011682E-03  8.95940801E-03
  5.92238943E-08  1.02455273E-01  1.30446441E-01  1.56488139E-02  1.58254048E-02
  9.44686624E-08 -9.44684893E-08  1.02519815E-01  1.30528618E-01  1.56586854E-02
 -1.58353741E-02 -6.37077274E-08  6.37075278E-08 -7.66528757E-02 -1.24059110E-01
 -5.45059790E-02 -3.25100000E-07  3.25099328E-07  3.53002784E-01 -8.21103441E-02
 -4.89499015E-07  4.89497991E-07  2.45815521E-01 -3.29380450E-02 -1.96021203E-07
  1.96020750E-07 -6.90652894E-04 -8.71746236E-04 -5.16570639E-09  5.16566020E-09
 -5.17334542E-03 -8.78722055E-08 -3.20515532E-03  8.96143487E-03  8.78780386E-08
  7.66046229E-02  1.23981015E-01 -5.44716752E-02 -2.18921812E-07  2.18921033E-07
 -3.52780571E-01 -8.20586655E-02 -3.29624462E-07  3.29623279E-07 -2.45660764E-01
 -3.29173070E-02 -1.31930158E-07  1.31929596E-07  6.90239757E-04 -8.71196646E-04
 -3.47046969E-09  3.47040877E-09  5.17008979E-03  5.91785522E-08  3.20314071E-03
 -8.95579583E-03 -5.91825903E-08  1.02523961E-01  1.30540771E-01  1.56828173E-02
  1.58365369E-02  9.45346141E-08 -9.45344484E-08 -1.02459431E-01 -1.30458609E-01
 -1.56729599E-02  1.58265693E-02  6.36719673E-08 -6.36717804E-08 -4.28777641E-02
 -7.08251577E-02  1.53567810E-01  9.15801929E-07 -9.15800250E-07  2.08467698E-01
  2.21272380E-01  1.31961036E-06 -1.31960794E-06  2.97770500E-01  1.45868273E-01
  8.69741643E-07 -8.69739943E-07  4.24294529E-02  9.45707739E-03  5.65535788E-08
 -5.65534074E-08  1.23686030E-02  2.72377734E-07 -2.86227644E-03 -2.14222114E-02
 -2.72373172E-07 -4.28916099E-02 -7.08480280E-02 -1.53617392E-01 -6.17355803E-07
  6.17353807E-07  2.08535016E-01 -2.21343819E-01 -8.89569584E-07  8.89566697E-07
  2.97866652E-01 -1.45915369E-01 -5.86361736E-07  5.86359695E-07  4.24431402E-02
 -9.46013078E-03 -3.81795625E-08  3.81793709E-08  1.23725964E-02  1.83591014E-07
 -2.86320200E-03 -2.14291274E-02 -1.83588145E-07 -9.48943572E-02 -1.75730246E-01
 -1.15838764E-01 -7.22323248E-03 -4.31816439E-08  4.31815741E-08 -9.49249920E-02
 -1.75786976E-01 -1.15876155E-01  7.22556395E-03  2.91208905E-08 -2.91208147E-08
 -4.28956174E-02 -7.08547366E-02  1.53616413E-01  9.16096119E-07 -9.16094656E-07
  2.08558652E-01  2.21341266E-01  1.32002915E-06 -1.32002705E-06  2.97874431E-01
  1.45927662E-01  8.70101393E-07 -8.70100060E-07  4.24018448E-02  9.46208465E-03
  5.66179460E-08 -5.66178799E-08  1.23717841E-02  2.72475374E-07 -2.86759137E-03
 -2.14277196E-02 -2.72470791E-07  4.28817748E-02  7.08318715E-02  1.53566834E-01
  6.17155568E-07 -6.17153896E-07 -2.08491350E-01  2.21269826E-01  8.89277635E-07
 -8.89275241E-07 -2.97778305E-01  1.45880565E-01  5.86225682E-07 -5.86224188E-07
 -4.23881478E-02  9.45903078E-03  3.81990466E-08 -3.81990130E-08 -1.23677911E-02
 -1.83538306E-07  2.86666728E-03  2.14208033E-02  1.83535414E-07 -9.49204505E-02
 -1.75776982E-01 -1.15852735E-01 -7.22421073E-03 -4.31875520E-08  4.31874654E-08
  9.48898115E-02  1.75720242E-01  1.15815334E-01 -7.22187845E-03 -2.91060874E-08
  2.91059861E-08 -8.60381239E-14 -1.36980545E-13 -1.16692261E-10  1.32232825E-01
  1.32213483E-01  4.38649063E-13 -1.78753994E-10  2.02542281E-01  2.02512654E-01
  4.96776338E-13 -1.97623396E-10  2.24110864E-01  2.24078082E-01 -9.93366199E-13
 -5.95230867E-11  6.76121022E-02  6.76022126E-02  1.19756549E-07 -1.15341308E-02
  9.98925129E-12  6.91618659E-08 -1.15358182E-02  5.48916651E-14  8.65535188E-14
 -7.93405573E-11  1.32232838E-01  1.32213486E-01 -2.68681503E-13 -1.21541903E-10
  2.02542301E-01  2.02512659E-01 -3.60399360E-13 -1.34353973E-10  2.24110886E-01
  2.24078088E-01  6.00603848E-13 -4.05766760E-11  6.76121084E-02  6.76022138E-02
 -8.06724554E-08  1.15341316E-02 -6.67412529E-12 -4.65901244E-08  1.15358198E-02
 -3.52027347E-14 -3.08951667E-14  3.99325934E-13 -1.09295173E-11  1.24000756E-02
  1.23982618E-02  2.64173235E-14 -5.85574596E-15 -1.57891102E-13 -7.43214852E-12
  1.24000772E-02  1.23982625E-02  7.98730353E-14  1.41771482E-13 -1.16866415E-10
  1.32219334E-01  1.32199993E-01 -5.23804142E-13 -1.78930213E-10  2.02520213E-01
  2.02490590E-01 -2.60876706E-13 -1.98343869E-10  2.24066770E-01  2.24033996E-01
  1.35012250E-12 -5.98260765E-11  6.76812639E-02  6.76713641E-02  1.19605273E-07
 -1.16818685E-02  9.98442321E-12  6.90747564E-08 -1.16835774E-02  5.68848745E-14
  1.01187268E-13  7.94575709E-11 -1.32219330E-01 -1.32199980E-01 -3.78472137E-13
  1.21659645E-10 -2.02520208E-01 -2.02490570E-01 -1.57673592E-13  1.34833640E-10
 -2.24066765E-01 -2.24033974E-01  9.79905239E-13  4.07822170E-11 -6.76812618E-02
 -6.76713571E-02  8.05723559E-08 -1.16818678E-02  6.67026306E-12  4.65324874E-08
 -1.16835776E-02 -3.39880194E-14 -6.59016890E-14 -7.05125472E-13 -1.10316882E-11
  1.24831370E-02  1.24813111E-02 -2.58768801E-14 -1.52204284E-14 -5.80545821E-13
  7.50032513E-12 -1.24831371E-02 -1.24813103E-02 -1.81504652E-10 -3.11640902E-10
  1.45619884E-06 -1.22012425E-01  1.22030275E-01  1.21823167E-09  2.30089132E-06
 -1.92824782E-01  1.92852991E-01  7.79489450E-10  2.55975679E-06 -2.14315904E-01
  2.14347257E-01 -8.65760757E-09  1.25915259E-06 -1.05479484E-01  1.05494915E-01
  1.08063207E-07 -1.04701755E-02 -1.24611922E-07 -1.87153053E-07  1.04686440E-02
  1.93808552E-10  3.29151333E-10  9.89436612E-07 -1.23014798E-01  1.23032803E-01
 -1.20966563E-09  1.56329214E-06 -1.94408902E-01  1.94437357E-01 -1.09380017E-09
  1.73956379E-06 -2.16076583E-01  2.16108210E-01  7.76502127E-09  8.55641892E-07
 -1.06346026E-01  1.06361592E-01 -7.34128140E-08  1.05561927E-02  8.46332422E-08
  1.27142660E-07 -1.05546478E-02  6.83223257E-10  9.50798501E-10  5.05842360E-09
  1.43326222E-07 -1.20082313E-02  1.20099881E-02 -4.95617440E-10 -6.42433235E-10
 -4.28555691E-09  9.73880090E-08 -1.21068834E-02  1.21086555E-02 -1.74570526E-10
 -3.00421102E-10  1.46815212E-06 -1.23014907E-01  1.23032903E-01  1.18639167E-09
  2.31978750E-06 -1.94409008E-01  1.94437449E-01  6.97932800E-10  2.58073497E-06
 -2.16076979E-01  2.16108589E-01 -8.60513378E-09  1.26957164E-06 -1.06345214E-01
  1.06360772E-01  1.08950994E-07 -1.05562021E-02 -1.25628544E-07 -1.88690604E-07
  1.05546580E-02 -1.79908372E-10 -3.06289518E-10 -9.81359522E-07  1.22012526E-01
 -1.22030384E-01  1.13798143E-09 -1.55054464E-06  1.92824874E-01 -1.92853098E-01
  9.60499756E-10 -1.72530963E-06  2.14316287E-01 -2.14347656E-01 -7.51093766E-09
 -8.48773870E-07  1.05478657E-01 -1.05494096E-01  7.28146741E-08 -1.04701865E-02
 -8.39330698E-08 -1.26106755E-07  1.04686542E-02  6.92552974E-10  9.40152083E-10
  5.12639550E-09  1.44502816E-07 -1.21068912E-02  1.21086623E-02  4.96115748E-10
  6.10294013E-10  4.27490757E-09 -9.65929344E-08  1.20082391E-02 -1.20099967E-02
  2.13026086E-02  3.48131958E-02  3.42645819E-02  2.01387833E-07 -2.01387426E-07
 -8.45819214E-02  7.92536780E-02  4.69472631E-07 -4.69471742E-07 -4.28968342E-01
  7.45152985E-02  4.33219223E-07 -4.33218178E-07  1.09676065E+00 -5.37352015E-01
 -3.18586938E-06  3.18586306E-06  8.48327959E-03  1.66075149E-07  1.52350409E-03
 -1.46939170E-02 -1.66078135E-07  2.13052355E-02  3.48174890E-02 -3.42688072E-02
 -1.35004781E-07  1.35004477E-07 -8.45923533E-02 -7.92634565E-02 -3.15608540E-07
  3.15607711E-07 -4.29021241E-01 -7.45244866E-02 -2.89273580E-07  2.89272889E-07
  1.09689594E+00  5.37418325E-01  2.14230560E-06 -2.14229903E-06  8.48432680E-03
  1.11870949E-07  1.52369107E-03 -1.46957311E-02 -1.11873100E-07 -1.80005752E-02
  1.16624351E-01 -4.15502955E-01 -2.42505240E-04 -1.51621332E-09  1.51620069E-09
 -1.80027980E-02  1.16638743E-01 -4.15554233E-01  2.42533027E-04  1.03731773E-09
 -1.03729856E-09  2.13005125E-02  3.48092016E-02  3.42835543E-02  2.01515105E-07
 -2.01514415E-07 -8.45560852E-02  7.92810436E-02  4.69619487E-07 -4.69618161E-07
 -4.29047343E-01  7.46013418E-02  4.33885038E-07 -4.33883530E-07  1.09680247E+00
 -5.37473151E-01 -3.18688741E-06  3.18688130E-06  8.48399363E-03  1.66132982E-07
  1.51647140E-03 -1.46951517E-02 -1.66135993E-07 -2.12978840E-02 -3.48049064E-02
  3.42793238E-02  1.35060704E-07 -1.35059979E-07  8.45456528E-02  7.92712658E-02
  3.15633000E-07 -3.15631524E-07  4.28994400E-01  7.45921355E-02  2.89664466E-07
 -2.89663077E-07 -1.09666718E+00 -5.37406873E-01 -2.14248594E-06  2.14247964E-06
 -8.48294781E-03 -1.11882599E-07 -1.51628338E-03  1.46933405E-02  1.11884794E-07
 -1.80013720E-02  1.16652900E-01 -4.15450665E-01 -2.42049900E-04 -1.51710498E-09
  1.51712697E-09  1.79991537E-02 -1.16638515E-01  4.15399439E-01 -2.42017915E-04
 -1.03758940E-09  1.03761884E-09 -3.18389314E-08 -5.08743581E-08 -7.49616488E-07
  7.06749870E-02 -7.06853293E-02  1.12985224E-07 -7.98008855E-07  7.09569666E-02
 -7.09673498E-02  7.45635357E-07 -3.00654175E-06  2.91933362E-01 -2.91976083E-01
 -8.08223325E-07  5.69304097E-06 -6.06120677E-01  6.06209376E-01 -5.05050002E-08
  5.87180374E-03  6.73940857E-08  8.74679127E-08 -5.87094461E-03  2.78608581E-08
  4.45168350E-08 -4.86865671E-07  7.07693585E-02 -7.07797197E-02 -9.88402504E-08
 -5.28576043E-07  7.10517149E-02 -7.10621172E-02 -6.52535322E-07 -1.93227978E-06
  2.92323178E-01 -2.92365977E-01  7.07283081E-07  3.53094441E-06 -6.06930026E-01
  6.07018888E-01  3.20347953E-08 -5.87964505E-03 -4.49550031E-08 -5.54798162E-08
  5.87878434E-03 -4.40492492E-08  2.69688707E-08 -3.96957229E-07 -1.07221291E-08
 -2.27527681E-04  2.27561012E-04  3.85696437E-08 -2.37559315E-08  3.47426096E-07
 -9.95793832E-09 -2.27831169E-04  2.27864562E-04 -3.08289589E-08 -4.92596020E-08
 -7.53471591E-07  7.07692397E-02 -7.07795958E-02  1.09382846E-07 -8.00436310E-07
  7.10517343E-02 -7.10621315E-02  7.21900307E-07 -3.02522121E-06  2.92322572E-01
 -2.92365350E-01 -7.82594450E-07  5.74894252E-06 -6.06930296E-01  6.07019114E-01
 -5.08862478E-08  5.87962897E-03  6.75667168E-08  8.81282149E-08 -5.87876870E-03
 -2.61304594E-08 -4.17501117E-08  4.90832726E-07 -7.06748625E-02  7.06852099E-02
  9.26623211E-08  5.30089949E-07 -7.09569808E-02  7.09673692E-02  6.11939475E-07
  1.95341364E-06 -2.91932734E-01  2.91975476E-01 -6.63419706E-07 -3.60415960E-06
  6.06120903E-01 -6.06209647E-01 -3.24989217E-08  5.87178871E-03  4.50309410E-08
  5.62836730E-08 -5.87092916E-03 -4.27145021E-08  2.61956184E-08 -3.84143381E-07
 -1.03312191E-08 -2.27847602E-04  2.27880980E-04 -3.62726874E-08  2.23950711E-08
 -3.25524143E-07  9.29115112E-09  2.27543420E-04 -2.27576771E-04 -1.73347913E-02
 -2.77445036E-02  4.85417242E-02  1.61673893E-07 -1.61651013E-07  6.23683335E-02
  2.43004844E-02  1.66714462E-08 -1.66489541E-08  4.03841483E-01  2.47712193E-01
  9.49020104E-07 -9.48924837E-07 -4.41896188E-01 -8.07038101E-01 -3.71479379E-06
  3.71459050E-06  5.25363671E-03  1.06112649E-07 -1.37583307E-03 -9.09916317E-03
 -1.06112288E-07 -1.73351437E-02 -2.77450677E-02 -4.85427115E-02 -8.39024566E-08
  8.38858138E-08  6.23696016E-02 -2.43009776E-02  1.39030748E-08 -1.39196647E-08
  4.03849693E-01 -2.47717233E-01 -5.36009884E-07  5.35941074E-07 -4.41905200E-01
  8.07054485E-01  2.28790551E-06 -2.28775939E-06  5.25374325E-03  6.94270219E-08
 -1.37586091E-03 -9.09934749E-03 -6.94269477E-08 -2.31011363E-02  1.27333428E-02
 -2.12378890E-01 -6.89369977E-03 -4.06632490E-08  4.06630740E-08 -2.31016051E-02
  1.27335978E-02 -2.12383172E-01  6.89384067E-03  2.73112771E-08 -2.73111627E-08
  1.73351374E-02  2.77451953E-02 -4.85401148E-02 -1.54831597E-07  1.54807627E-07
 -6.23656708E-02 -2.42947596E-02 -9.73012657E-09  9.70664264E-09 -4.03886671E-01
 -2.47690097E-01 -9.20751101E-07  9.20650900E-07  4.42061653E-01  8.06979476E-01
  3.65570911E-06 -3.65549465E-06 -5.25277207E-03 -1.05496435E-07  1.37052417E-03