 Entering Gaussian System, Link 0=g16
 Initial command:
 /home/szhao/Apps/g16/l1.exe "/home/szhao/tmp/Gau-40151.inp" -scrdir="/home/szhao/tmp/"
 Default is to use a total of  16 processors:
                               16 via shared-memory
                                1 via Linda
 Entering Link 1 = /home/szhao/Apps/g16/l1.exe PID=     40152.
  
 Copyright (c) 1988,1990,1992,1993,1995,1998,2003,2009,2016,
            Gaussian, Inc.  All Rights Reserved.
  
 This is part of the Gaussian(R) 16 program.  It is based on
 the Gaussian(R) 09 system (copyright 2009, Gaussian, Inc.),
 the Gaussian(R) 03 system (copyright 2003, Gaussian, Inc.),
 the Gaussian(R) 98 system (copyright 1998, Gaussian, Inc.),
 the Gaussian(R) 94 system (copyright 1995, Gaussian, Inc.),
 the Gaussian 92(TM) system (copyright 1992, Gaussian, Inc.),
 the Gaussian 90(TM) system (copyright 1990, Gaussian, Inc.),
 the Gaussian 88(TM) system (copyright 1988, Gaussian, Inc.),
 the Gaussian 86(TM) system (copyright 1986, Carnegie Mellon
 University), and the Gaussian 82(TM) system (copyright 1983,
 Carnegie Mellon University). Gaussian is a federally registered
 trademark of Gaussian, Inc.
  
 This software contains proprietary and confidential information,
 including trade secrets, belonging to Gaussian, Inc.
  
 This software is provided under written license and may be
 used, copied, transmitted, or stored only in accord with that
 written license.
  
 The following legend is applicable only to US Government
 contracts under FAR:
  
                    RESTRICTED RIGHTS LEGEND
  
 Use, reproduction and disclosure by the US Government is
 subject to restrictions as set forth in subparagraphs (a)
 and (c) of the Commercial Computer Software - Restricted
 Rights clause in FAR 52.227-19.
  
 Gaussian, Inc.
 340 Quinnipiac St., Bldg. 40, Wallingford CT 06492
  
  
 ---------------------------------------------------------------
 Warning -- This program may not be used in any manner that
 competes with the business of Gaussian, Inc. or will provide
 assistance to any competitor of Gaussian, Inc.  The licensee
 of this program is prohibited from giving any competitor of
 Gaussian, Inc. access to this program.  By using this program,
 the user acknowledges that Gaussian, Inc. is engaged in the
 business of creating and licensing software in the field of
 computational chemistry and represents and warrants to the
 licensee that it is not a competitor of Gaussian, Inc. and that
 it will not use this program in any manner prohibited above.
 ---------------------------------------------------------------
  

 Cite this work as:
 Gaussian 16, Revision A.03,
 M. J. Frisch, G. W. Trucks, H. B. Schlegel, G. E. Scuseria, 
 M. A. Robb, J. R. Cheeseman, G. Scalmani, V. Barone, 
 G. A. Petersson, H. Nakatsuji, X. Li, M. Caricato, A. V. Marenich, 
 J. Bloino, B. G. Janesko, R. Gomperts, B. Mennucci, H. P. Hratchian, 
 J. V. Ortiz, A. F. Izmaylov, J. L. Sonnenberg, D. Williams-Young, 
 F. Ding, F. Lipparini, F. Egidi, J. Goings, B. Peng, A. Petrone, 
 T. Henderson, D. Ranasinghe, V. G. Zakrzewski, J. Gao, N. Rega, 
 G. Zheng, W. Liang, M. Hada, M. Ehara, K. Toyota, R. Fukuda, 
 J. Hasegawa, M. Ishida, T. Nakajima, Y. Honda, O. Kitao, H. Nakai, 
 T. Vreven, K. Throssell, J. A. Montgomery, Jr., J. E. Peralta, 
 F. Ogliaro, M. J. Bearpark, J. J. Heyd, E. N. Brothers, K. N. Kudin, 
 V. N. Staroverov, T. A. Keith, R. Kobayashi, J. Normand, 
 K. Raghavachari, A. P. Rendell, J. C. Burant, S. S. Iyengar, 
 J. Tomasi, M. Cossi, J. M. Millam, M. Klene, C. Adamo, R. Cammi, 
 J. W. Ochterski, R. L. Martin, K. Morokuma, O. Farkas, 
 J. B. Foresman, and D. J. Fox, Gaussian, Inc., Wallingford CT, 2016.
 
 ******************************************
 Gaussian 16:  ES64L-G16RevA.03 25-Dec-2016
                21-Apr-2025 
 ******************************************
 %chk=opt.chk
 %mem=4GB
 %nprocshared=8
 Will use up to    8 processors via shared memory.
 --------------------------------------------
 #p opt UM062X/6-311+G** nosymm int=superfine
 --------------------------------------------
 1/18=20,19=15,26=5,38=1/1,3;
 2/9=110,12=2,15=1,17=6,18=5,40=1/2;
 3/5=4,6=6,7=111,11=2,25=1,30=1,71=1,74=-55,75=-7,116=2/1,2,3;
 4//1;
 5/5=2,38=5/2;
 6/7=2,8=2,9=2,10=2,28=1/1;
 7/30=1/1,2,3,16;
 1/18=20,19=15,26=5/3(2);
 2/9=110,15=1/2;
 99//99;
 2/9=110,15=1/2;
 3/5=4,6=6,7=111,11=2,25=1,30=1,71=1,74=-55,75=-7,116=2/1,2,3;
 4/5=5,16=3,69=1/1;
 5/5=2,38=5/2;
 7/30=1/1,2,3,16;
 1/18=20,19=15,26=5/3(-5);
 2/9=110,15=1/2;
 6/7=2,8=2,9=2,10=2,19=2,28=1/1;
 99/9=1/99;
 Leave Link    1 at Mon Apr 21 21:18:49 2025, MaxMem=   536870912 cpu:               0.9 elap:               0.2
 (Enter /home/szhao/Apps/g16/l101.exe)
 -------------------
 Title Card Required
 -------------------
 Symbolic Z-matrix:
 Charge =  0 Multiplicity = 1
 Si                   -1   -1.75371   0.        0. 
 Si                   -1    1.75371   0.        0. 
 H                    0    -3.21208  -0.00003   0. 
 H                    0     3.21208   0.00004   0. 
 
 Add virtual bond connecting atoms Si2        and Si1        Dist= 6.63D+00.
 ITRead=  2  2  0  0
 MicOpt= -2 -2 -1 -1
 NAtoms=      4 NQM=        2 NQMF=       2 NMMI=      0 NMMIF=      0
                NMic=       0 NMicF=      0.
                    Isotopes and Nuclear Properties:
 (Nuclear quadrupole moments (NQMom) in fm**2, nuclear magnetic moments (NMagM)
  in nuclear magnetons)

  Atom         1           2           3           4
 IAtWgt=          28          28           1           1
 AtmWgt=  27.9769284  27.9769284   1.0078250   1.0078250
 NucSpn=           0           0           1           1
 AtZEff=  -0.0000000  -0.0000000  -0.0000000  -0.0000000
 NQMom=    0.0000000   0.0000000   0.0000000   0.0000000
 NMagM=    0.0000000   0.0000000   2.7928460   2.7928460
 AtZNuc=  14.0000000  14.0000000   1.0000000   1.0000000
 Leave Link  101 at Mon Apr 21 21:18:50 2025, MaxMem=   536870912 cpu:               5.3 elap:               0.7
 (Enter /home/szhao/Apps/g16/l103.exe)

 GradGradGradGradGradGradGradGradGradGradGradGradGradGradGradGradGradGrad
 Berny optimization.
 Initialization pass.
                           ----------------------------
                           !    Initial Parameters    !
                           ! (Angstroms and Degrees)  !
 --------------------------                            --------------------------
 ! Name  Definition              Value          Derivative Info.                !
 --------------------------------------------------------------------------------
 ! X1    R(1,-1)                -1.7537         Frozen                          !
 ! Y1    R(1,-2)                 0.0            Frozen                          !
 ! Z1    R(1,-3)                 0.0            Frozen                          !
 ! X2    R(2,-1)                 1.7537         Frozen                          !
 ! Y2    R(2,-2)                 0.0            Frozen                          !
 ! Z2    R(2,-3)                 0.0            Frozen                          !
 ! R1    R(1,3)                  1.4584         estimate D2E/DX2                !
 ! R2    R(2,4)                  1.4584         estimate D2E/DX2                !
 ! A1    L(2,1,3,-3,-1)        179.9989         estimate D2E/DX2                !
 ! A2    L(1,2,4,-3,-1)        179.9985         estimate D2E/DX2                !
 ! A3    L(2,1,3,-2,-2)        180.0            estimate D2E/DX2                !
 ! A4    L(1,2,4,-2,-2)        180.0            estimate D2E/DX2                !
 --------------------------------------------------------------------------------
 Trust Radius=3.00D-01 FncErr=1.00D-07 GrdErr=1.00D-07 EigMax=2.50D+02 EigMin=1.00D-04
 Number of steps in this run=     22 maximum allowed number of steps=    100.
 GradGradGradGradGradGradGradGradGradGradGradGradGradGradGradGradGradGrad

 Leave Link  103 at Mon Apr 21 21:18:51 2025, MaxMem=   536870912 cpu:               0.3 elap:               0.2
 (Enter /home/szhao/Apps/g16/l202.exe)
                          Input orientation:                          
 ---------------------------------------------------------------------
 Center     Atomic      Atomic             Coordinates (Angstroms)
 Number     Number       Type             X           Y           Z
 ---------------------------------------------------------------------
      1         14           0       -1.753705    0.000000    0.000000
      2         14           0        1.753705    0.000000    0.000000
      3          1           0       -3.212080   -0.000027    0.000000
      4          1           0        3.212080    0.000038    0.000000
 ---------------------------------------------------------------------
                    Distance matrix (angstroms):
                    1          2          3          4
     1  Si   0.000000
     2  Si   3.507410   0.000000
     3  H    1.458375   4.965785   0.000000
     4  H    4.965785   1.458375   6.424160   0.000000
 Symmetry turned off by external request.
 Stoichiometry    H2Si2
 Framework group  C*V[C*(HSiSiH)]
 Deg. of freedom     3
 Full point group                 C*V     NOp   4
 Rotational constants (GHZ):           0.0000000           2.6201539           2.6201539
 Leave Link  202 at Mon Apr 21 21:18:51 2025, MaxMem=   536870912 cpu:               0.1 elap:               0.1
 (Enter /home/szhao/Apps/g16/l301.exe)
 Standard basis: 6-311+G(d,p) (5D, 7F)
 Ernie: Thresh=  0.10000D-02 Tol=  0.10000D-05 Strict=F.
    72 basis functions,   116 primitive gaussians,    74 cartesian basis functions
    15 alpha electrons       15 beta electrons
       nuclear repulsion energy        42.7974128508 Hartrees.
 IExCor= 4336 DFT=T Ex+Corr=M062X ExCW=0 ScaHFX=  0.540000
 ScaDFX=  1.000000  1.000000  1.000000  1.000000 ScalE2=  1.000000  1.000000
 IRadAn=      7 IRanWt=     -1 IRanGd=            0 ICorTp=0 IEmpDi=  4
 NAtoms=    4 NActive=    4 NUniq=    4 SFac= 1.00D+00 NAtFMM=   60 NAOKFM=F Big=F
 Integral buffers will be    131072 words long.
 Raffenetti 2 integral format.
 Two-electron integral symmetry is turned off.
 Leave Link  301 at Mon Apr 21 21:18:52 2025, MaxMem=   536870912 cpu:               0.8 elap:               0.2
 (Enter /home/szhao/Apps/g16/l302.exe)
 NPDir=0 NMtPBC=     1 NCelOv=     1 NCel=       1 NClECP=     1 NCelD=      1
         NCelK=      1 NCelE2=     1 NClLst=     1 CellRange=     0.0.
 One-electron integrals computed using PRISM.
 NBasis=    72 RedAO= T EigKep=  5.47D-03  NBF=    72
 NBsUse=    72 1.00D-06 EigRej= -1.00D+00 NBFU=    72
 Precomputing XC quadrature grid using
 IXCGrd= 4 IRadAn=           7 IRanWt=          -1 IRanGd=           0 AccXCQ= 0.00D+00.
 Generated NRdTot=       0 NPtTot=           0 NUsed=           0 NTot=          32
 NSgBfM=    67    67    67    67    67 MxSgAt=     4 MxSgA2=     4.
 Leave Link  302 at Mon Apr 21 21:18:52 2025, MaxMem=   536870912 cpu:               2.2 elap:               0.3
 (Enter /home/szhao/Apps/g16/l303.exe)
 DipDrv:  MaxL=1.
 Leave Link  303 at Mon Apr 21 21:18:53 2025, MaxMem=   536870912 cpu:               0.9 elap:               0.2
 (Enter /home/szhao/Apps/g16/l401.exe)
 ExpMin= 3.31D-02 ExpMax= 6.94D+04 ExpMxC= 2.33D+03 IAcc=3 IRadAn=         7 AccDes= 0.00D+00
 Harris functional with IExCor= 1009 and IRadAn=       7 diagonalized for initial guess.
 HarFok:  IExCor= 1009 AccDes= 0.00D+00 IRadAn=         7 IDoV= 1 UseB2=F ITyADJ=14
 ICtDFT=  3500011 ScaDFX=  1.000000  1.000000  1.000000  1.000000
 FoFCou: FMM=F IPFlag=           0 FMFlag=      100000 FMFlg1=           0
         NFxFlg=           0 DoJE=T BraDBF=F KetDBF=T FulRan=T
         wScrn=  0.000000 ICntrl=       500 IOpCl=  0 I1Cent=   200000004 NGrid=           0
         NMat0=    1 NMatS0=      1 NMatT0=    0 NMatD0=    1 NMtDS0=    0 NMtDT0=    0
 Symmetry not used in FoFCou.
 Harris En= -579.592810757089    
 JPrj=0 DoOrth=F DoCkMO=F.
 Initial guess <Sx>= 0.0000 <Sy>= 0.0000 <Sz>= 0.0000 <S**2>=-0.0000 S=-0.0000
 Leave Link  401 at Mon Apr 21 21:18:54 2025, MaxMem=   536870912 cpu:               4.4 elap:               0.7
 (Enter /home/szhao/Apps/g16/l502.exe)
 Keep R1 and R2 ints in memory in canonical form, NReq=14118010.
 FoFCou: FMM=F IPFlag=           0 FMFlag=           0 FMFlg1=           0
         NFxFlg=           0 DoJE=F BraDBF=F KetDBF=F FulRan=T
         wScrn=  0.000000 ICntrl=       600 IOpCl=  0 I1Cent=           0 NGrid=           0
         NMat0=    1 NMatS0=   2628 NMatT0=    0 NMatD0=    1 NMtDS0=    0 NMtDT0=    0
 Symmetry not used in FoFCou.
 Two-electron integral symmetry not used.
 UHF open shell SCF:
 Using DIIS extrapolation, IDIIS=  1040.
 NGot=   536870912 LenX=   529949706 LenY=   529943789
 Requested convergence on RMS density matrix=1.00D-08 within 128 cycles.
 Requested convergence on MAX density matrix=1.00D-06.
 Requested convergence on             energy=1.00D-06.
 No special actions if energy rises.

 Cycle   1  Pass 1  IDiag  1:
 E= -579.874181692008    
 DIIS: error= 3.08D-02 at cycle   1 NSaved=   1.
 NSaved= 1 IEnMin= 1 EnMin= -579.874181692008     IErMin= 1 ErrMin= 3.08D-02
 ErrMax= 3.08D-02  0.00D+00 EMaxC= 1.00D-01 BMatC= 1.76D-01 BMatP= 1.76D-01
 IDIUse=3 WtCom= 6.92D-01 WtEn= 3.08D-01
 Coeff-Com:  0.100D+01
 Coeff-En:   0.100D+01
 Coeff:      0.100D+01
 Gap=     0.093 Goal=   None    Shift=    0.000
 Gap=     0.093 Goal=   None    Shift=    0.000
 GapD=    0.093 DampG=0.500 DampE=0.500 DampFc=0.2500 IDamp=-1.
 Damping current iteration by 2.50D-01
 RMSDP=4.03D-03 MaxDP=9.52D-02              OVMax= 7.59D-02

 Cycle   2  Pass 1  IDiag  1:
 E= -579.880125239819     Delta-E=       -0.005943547811 Rises=F Damp=T
 DIIS: error= 2.32D-02 at cycle   2 NSaved=   2.
 NSaved= 2 IEnMin= 2 EnMin= -579.880125239819     IErMin= 2 ErrMin= 2.32D-02
 ErrMax= 2.32D-02  0.00D+00 EMaxC= 1.00D-01 BMatC= 9.06D-02 BMatP= 1.76D-01
 IDIUse=3 WtCom= 7.68D-01 WtEn= 2.32D-01
 Coeff-Com: -0.234D+01 0.334D+01
 Coeff-En:   0.000D+00 0.100D+01
 Coeff:     -0.180D+01 0.280D+01
 Gap=     0.092 Goal=   None    Shift=    0.000
 Gap=     0.092 Goal=   None    Shift=    0.000
 RMSDP=2.55D-03 MaxDP=5.61D-02 DE=-5.94D-03 OVMax= 2.09D-02

 Cycle   3  Pass 1  IDiag  1:
 E= -579.895600452382     Delta-E=       -0.015475212563 Rises=F Damp=F
 DIIS: error= 4.64D-04 at cycle   3 NSaved=   3.
 NSaved= 3 IEnMin= 3 EnMin= -579.895600452382     IErMin= 3 ErrMin= 4.64D-04
 ErrMax= 4.64D-04  0.00D+00 EMaxC= 1.00D-01 BMatC= 5.74D-05 BMatP= 9.06D-02
 IDIUse=3 WtCom= 9.95D-01 WtEn= 4.64D-03
 Coeff-Com: -0.328D-01 0.328D-01 0.100D+01
 Coeff-En:   0.000D+00 0.000D+00 0.100D+01
 Coeff:     -0.326D-01 0.327D-01 0.100D+01
 Gap=     0.092 Goal=   None    Shift=    0.000
 Gap=     0.092 Goal=   None    Shift=    0.000
 RMSDP=1.88D-04 MaxDP=3.35D-03 DE=-1.55D-02 OVMax= 3.01D-03

 Cycle   4  Pass 1  IDiag  1:
 E= -579.895630318502     Delta-E=       -0.000029866120 Rises=F Damp=F
 DIIS: error= 1.30D-04 at cycle   4 NSaved=   4.
 NSaved= 4 IEnMin= 4 EnMin= -579.895630318502     IErMin= 4 ErrMin= 1.30D-04
 ErrMax= 1.30D-04  0.00D+00 EMaxC= 1.00D-01 BMatC= 1.74D-06 BMatP= 5.74D-05
 IDIUse=3 WtCom= 9.99D-01 WtEn= 1.30D-03
 Coeff-Com:  0.109D-01-0.156D-01-0.426D-01 0.105D+01
 Coeff-En:   0.000D+00 0.000D+00 0.000D+00 0.100D+01
 Coeff:      0.109D-01-0.156D-01-0.426D-01 0.105D+01
 Gap=     0.092 Goal=   None    Shift=    0.000
 Gap=     0.092 Goal=   None    Shift=    0.000
 RMSDP=3.99D-05 MaxDP=3.54D-04 DE=-2.99D-05 OVMax= 1.11D-03

 Cycle   5  Pass 1  IDiag  1:
 E= -579.895631878799     Delta-E=       -0.000001560297 Rises=F Damp=F
 DIIS: error= 1.93D-05 at cycle   5 NSaved=   5.
 NSaved= 5 IEnMin= 5 EnMin= -579.895631878799     IErMin= 5 ErrMin= 1.93D-05
 ErrMax= 1.93D-05  0.00D+00 EMaxC= 1.00D-01 BMatC= 8.32D-08 BMatP= 1.74D-06
 IDIUse=1 WtCom= 1.00D+00 WtEn= 0.00D+00
 Coeff-Com: -0.297D-02 0.431D-02-0.252D-01-0.985D-01 0.112D+01
 Coeff:     -0.297D-02 0.431D-02-0.252D-01-0.985D-01 0.112D+01
 Gap=     0.092 Goal=   None    Shift=    0.000
 Gap=     0.092 Goal=   None    Shift=    0.000
 RMSDP=1.21D-05 MaxDP=1.48D-04 DE=-1.56D-06 OVMax= 2.30D-04

 Cycle   6  Pass 1  IDiag  1:
 E= -579.895631959251     Delta-E=       -0.000000080452 Rises=F Damp=F
 DIIS: error= 4.38D-06 at cycle   6 NSaved=   6.
 NSaved= 6 IEnMin= 6 EnMin= -579.895631959251     IErMin= 6 ErrMin= 4.38D-06
 ErrMax= 4.38D-06  0.00D+00 EMaxC= 1.00D-01 BMatC= 2.38D-09 BMatP= 8.32D-08
 IDIUse=1 WtCom= 1.00D+00 WtEn= 0.00D+00
 Coeff-Com:  0.506D-03-0.649D-03-0.111D-02-0.192D-01 0.856D-01 0.935D+00
 Coeff:      0.506D-03-0.649D-03-0.111D-02-0.192D-01 0.856D-01 0.935D+00
 Gap=     0.092 Goal=   None    Shift=    0.000
 Gap=     0.092 Goal=   None    Shift=    0.000
 RMSDP=1.04D-06 MaxDP=1.20D-05 DE=-8.05D-08 OVMax= 3.61D-05

 Cycle   7  Pass 1  IDiag  1:
 E= -579.895631960344     Delta-E=       -0.000000001093 Rises=F Damp=F
 DIIS: error= 6.48D-07 at cycle   7 NSaved=   7.
 NSaved= 7 IEnMin= 7 EnMin= -579.895631960344     IErMin= 7 ErrMin= 6.48D-07
 ErrMax= 6.48D-07  0.00D+00 EMaxC= 1.00D-01 BMatC= 7.07D-11 BMatP= 2.38D-09
 IDIUse=1 WtCom= 1.00D+00 WtEn= 0.00D+00
 Coeff-Com:  0.113D-03-0.155D-03 0.631D-03-0.163D-03-0.247D-01 0.893D-01
 Coeff-Com:  0.935D+00
 Coeff:      0.113D-03-0.155D-03 0.631D-03-0.163D-03-0.247D-01 0.893D-01
 Coeff:      0.935D+00
 Gap=     0.092 Goal=   None    Shift=    0.000
 Gap=     0.092 Goal=   None    Shift=    0.000
 RMSDP=2.29D-07 MaxDP=2.84D-06 DE=-1.09D-09 OVMax= 6.99D-06

 Cycle   8  Pass 1  IDiag  1:
 E= -579.895631960394     Delta-E=       -0.000000000049 Rises=F Damp=F
 DIIS: error= 1.54D-07 at cycle   8 NSaved=   8.
 NSaved= 8 IEnMin= 8 EnMin= -579.895631960394     IErMin= 8 ErrMin= 1.54D-07
 ErrMax= 1.54D-07  0.00D+00 EMaxC= 1.00D-01 BMatC= 3.19D-12 BMatP= 7.07D-11
 IDIUse=1 WtCom= 1.00D+00 WtEn= 0.00D+00
 Coeff-Com: -0.159D-04 0.190D-04 0.108D-03 0.131D-02-0.895D-02-0.293D-01
 Coeff-Com:  0.890D-01 0.948D+00
 Coeff:     -0.159D-04 0.190D-04 0.108D-03 0.131D-02-0.895D-02-0.293D-01
 Coeff:      0.890D-01 0.948D+00
 Gap=     0.092 Goal=   None    Shift=    0.000
 Gap=     0.092 Goal=   None    Shift=    0.000
 RMSDP=5.02D-08 MaxDP=7.43D-07 DE=-4.91D-11 OVMax= 1.21D-06

 Cycle   9  Pass 1  IDiag  1:
 E= -579.895631960397     Delta-E=       -0.000000000003 Rises=F Damp=F
 DIIS: error= 1.33D-08 at cycle   9 NSaved=   9.
 NSaved= 9 IEnMin= 9 EnMin= -579.895631960397     IErMin= 9 ErrMin= 1.33D-08
 ErrMax= 1.33D-08  0.00D+00 EMaxC= 1.00D-01 BMatC= 3.81D-14 BMatP= 3.19D-12
 IDIUse=1 WtCom= 1.00D+00 WtEn= 0.00D+00
 Coeff-Com: -0.237D-05 0.338D-05-0.199D-04-0.306D-04 0.887D-03-0.127D-02
 Coeff-Com: -0.207D-01-0.299D-01 0.105D+01
 Coeff:     -0.237D-05 0.338D-05-0.199D-04-0.306D-04 0.887D-03-0.127D-02
 Coeff:     -0.207D-01-0.299D-01 0.105D+01
 Gap=     0.092 Goal=   None    Shift=    0.000
 Gap=     0.092 Goal=   None    Shift=    0.000
 RMSDP=7.58D-09 MaxDP=1.19D-07 DE=-3.18D-12 OVMax= 4.00D-07

 SCF Done:  E(UM062X) =  -579.895631960     A.U. after    9 cycles
            NFock=  9  Conv=0.76D-08     -V/T= 2.0013
 <Sx>= 0.0000 <Sy>= 0.0000 <Sz>= 0.0000 <S**2>=-0.0000 S=-0.0000
 <L.S>=  0.00000000000    
 KE= 5.791302913899D+02 PE=-1.467180651556D+03 EE= 2.653573153550D+02
 Annihilation of the first spin contaminant:
 S**2 before annihilation    -0.0000,   after    -0.0000
 Leave Link  502 at Mon Apr 21 21:19:02 2025, MaxMem=   536870912 cpu:              61.3 elap:               8.1
 (Enter /home/szhao/Apps/g16/l601.exe)
 Copying SCF densities to generalized density rwf, IOpCl= 1 IROHF=0.

 **********************************************************************

            Population analysis using the SCF density.

 **********************************************************************

 Alpha  occ. eigenvalues --  -67.03680 -67.03680  -5.58232  -5.58231  -3.89325
 Alpha  occ. eigenvalues --   -3.89325  -3.88878  -3.88877  -3.88759  -3.88759
 Alpha  occ. eigenvalues --   -0.55975  -0.55175  -0.35361  -0.29400  -0.18784
 Alpha virt. eigenvalues --   -0.09633  -0.09295  -0.07360   0.02304   0.02867
 Alpha virt. eigenvalues --    0.04625   0.05674   0.05823   0.06108   0.07159
 Alpha virt. eigenvalues --    0.09317   0.09810   0.21402   0.29392   0.29741
 Alpha virt. eigenvalues --    0.30272   0.30707   0.32389   0.32480   0.41807
 Alpha virt. eigenvalues --    0.42940   0.48848   0.55931   0.59808   0.60516
 Alpha virt. eigenvalues --    0.60589   0.61467   0.61970   0.62095   0.62583
 Alpha virt. eigenvalues --    0.62706   0.86522   0.90424   1.18631   1.21451
 Alpha virt. eigenvalues --    1.22533   1.22990   1.24064   1.27014   1.49210
 Alpha virt. eigenvalues --    1.49224   1.49599   1.49606   2.01654   2.02579
 Alpha virt. eigenvalues --    2.63286   2.65420   5.46191   5.50754  11.43018
 Alpha virt. eigenvalues --   11.43026  11.44387  11.44397  11.51812  11.59303
 Alpha virt. eigenvalues --  141.01851 141.08296
  Beta  occ. eigenvalues --  -67.03680 -67.03680  -5.58232  -5.58231  -3.89325
  Beta  occ. eigenvalues --   -3.89325  -3.88878  -3.88877  -3.88759  -3.88759
  Beta  occ. eigenvalues --   -0.55975  -0.55175  -0.35361  -0.29400  -0.18784
  Beta virt. eigenvalues --   -0.09633  -0.09295  -0.07360   0.02304   0.02867
  Beta virt. eigenvalues --    0.04625   0.05674   0.05823   0.06108   0.07159
  Beta virt. eigenvalues --    0.09317   0.09810   0.21402   0.29392   0.29741
  Beta virt. eigenvalues --    0.30272   0.30707   0.32389   0.32480   0.41807
  Beta virt. eigenvalues --    0.42940   0.48848   0.55931   0.59808   0.60516
  Beta virt. eigenvalues --    0.60589   0.61467   0.61970   0.62095   0.62583
  Beta virt. eigenvalues --    0.62706   0.86522   0.90424   1.18631   1.21451
  Beta virt. eigenvalues --    1.22533   1.22990   1.24064   1.27014   1.49210
  Beta virt. eigenvalues --    1.49224   1.49599   1.49606   2.01654   2.02579
  Beta virt. eigenvalues --    2.63286   2.65420   5.46191   5.50754  11.43018
  Beta virt. eigenvalues --   11.43026  11.44387  11.44397  11.51812  11.59303
  Beta virt. eigenvalues --  141.01851 141.08296
          Condensed to atoms (all electrons):
               1          2          3          4
     1  Si  13.764348  -0.110407   0.194950   0.010120
     2  Si  -0.110407  13.764349   0.010120   0.194950
     3  H    0.194950   0.010120   0.935927  -0.000008
     4  H    0.010120   0.194950  -0.000008   0.935927
          Atomic-Atomic Spin Densities.
               1          2          3          4
     1  Si  -0.000000   0.000000   0.000000  -0.000000
     2  Si   0.000000   0.000000  -0.000000  -0.000000
     3  H    0.000000  -0.000000   0.000000  -0.000000
     4  H   -0.000000  -0.000000  -0.000000   0.000000
 Mulliken charges and spin densities:
               1          2
     1  Si   0.140989  -0.000000
     2  Si   0.140988   0.000000
     3  H   -0.140989   0.000000
     4  H   -0.140989   0.000000
 Sum of Mulliken charges =  -0.00000  -0.00000
 Mulliken charges and spin densities with hydrogens summed into heavy atoms:
               1          2
     1  Si   0.000001  -0.000000
     2  Si  -0.000001   0.000000
 Electronic spatial extent (au):  <R**2>=            447.6378
 Charge=             -0.0000 electrons
 Dipole moment (field-independent basis, Debye):
    X=             -0.0000    Y=              0.0000    Z=              0.0000  Tot=              0.0000
 Quadrupole moment (field-independent basis, Debye-Ang):
   XX=            -29.8017   YY=            -24.1047   ZZ=            -35.4474
   XY=             -0.0001   XZ=              0.0000   YZ=             -0.0000
 Traceless Quadrupole moment (field-independent basis, Debye-Ang):
   XX=             -0.0171   YY=              5.6799   ZZ=             -5.6628
   XY=             -0.0001   XZ=              0.0000   YZ=             -0.0000
 Octapole moment (field-independent basis, Debye-Ang**2):
  XXX=             -0.0000  YYY=             -0.0000  ZZZ=              0.0000  XYY=             -0.0000
  XXY=             -0.0002  XXZ=              0.0000  XZZ=             -0.0000  YZZ=             -0.0000
  YYZ=              0.0000  XYZ=             -0.0000
 Hexadecapole moment (field-independent basis, Debye-Ang**3):
 XXXX=           -764.6687 YYYY=            -38.6745 ZZZZ=            -95.4775 XXXY=             -0.0036
 XXXZ=              0.0000 YYYX=             -0.0006 YYYZ=             -0.0000 ZZZX=              0.0000
 ZZZY=             -0.0000 XXYY=            -98.0666 XXZZ=           -137.9990 YYZZ=            -22.3585
 XXYZ=             -0.0000 YYXZ=              0.0000 ZZXY=             -0.0002
 N-N= 4.279741285080D+01 E-N=-1.467180650835D+03  KE= 5.791302913899D+02
                          Isotropic Fermi Contact Couplings
        Atom                 a.u.       MegaHertz       Gauss      10(-4) cm-1
     1  Si(29)            -0.00000       0.00000       0.00000       0.00000
     2  Si(29)            -0.00000       0.00000       0.00000       0.00000
     3  H(1)               0.00000       0.00000       0.00000       0.00000
     4  H(1)               0.00000       0.00000       0.00000       0.00000
 --------------------------------------------------------
       Center         ----  Spin Dipole Couplings  ----
                      3XX-RR        3YY-RR        3ZZ-RR
 --------------------------------------------------------
     1   Atom        0.000000      0.000000      0.000000
     2   Atom        0.000000      0.000000      0.000000
     3   Atom        0.000000      0.000000      0.000000
     4   Atom        0.000000      0.000000      0.000000
 --------------------------------------------------------
                        XY            XZ            YZ
 --------------------------------------------------------
     1   Atom        0.000000      0.000000      0.000000
     2   Atom        0.000000      0.000000      0.000000
     3   Atom        0.000000      0.000000      0.000000
     4   Atom        0.000000      0.000000      0.000000
 --------------------------------------------------------


 ---------------------------------------------------------------------------------
              Anisotropic Spin Dipole Couplings in Principal Axis System
 ---------------------------------------------------------------------------------

       Atom             a.u.   MegaHertz   Gauss  10(-4) cm-1        Axes

              Baa     0.0000    -0.000    -0.000    -0.000  1.0000  0.0000  0.0000
     1 Si(29) Bbb     0.0000    -0.000    -0.000    -0.000 -0.0000  1.0000  0.0000
              Bcc     0.0000    -0.000    -0.000    -0.000  0.0000  0.0000  1.0000
 
              Baa     0.0000    -0.000    -0.000    -0.000  1.0000  0.0000  0.0000
     2 Si(29) Bbb     0.0000    -0.000    -0.000    -0.000 -0.0000  1.0000  0.0000
              Bcc     0.0000    -0.000    -0.000    -0.000  0.0000  0.0000  1.0000
 
              Baa     0.0000     0.000     0.000     0.000  1.0000  0.0000  0.0000
     3 H(1)   Bbb     0.0000     0.000     0.000     0.000 -0.0000  1.0000  0.0000
              Bcc     0.0000     0.000     0.000     0.000  0.0000  0.0000  1.0000
 
              Baa     0.0000     0.000     0.000     0.000  1.0000  0.0000  0.0000
     4 H(1)   Bbb     0.0000     0.000     0.000     0.000 -0.0000  1.0000  0.0000
              Bcc     0.0000     0.000     0.000     0.000  0.0000  0.0000  1.0000
 

 ---------------------------------------------------------------------------------

 No NMR shielding tensors so no spin-rotation constants.
 Leave Link  601 at Mon Apr 21 21:19:03 2025, MaxMem=   536870912 cpu:               2.4 elap:               0.5
 (Enter /home/szhao/Apps/g16/l701.exe)
 ... and contract with generalized density number  0.
 Compute integral first derivatives.
 Leave Link  701 at Mon Apr 21 21:19:03 2025, MaxMem=   536870912 cpu:               1.7 elap:               0.3
 (Enter /home/szhao/Apps/g16/l702.exe)
 L702 exits ... SP integral derivatives will be done elsewhere.
 Leave Link  702 at Mon Apr 21 21:19:04 2025, MaxMem=   536870912 cpu:               0.6 elap:               0.1
 (Enter /home/szhao/Apps/g16/l703.exe)
 Integral derivatives from FoFJK, PRISM(SPDF).
 Compute integral first derivatives, UseDBF=F ICtDFT=           0.
 Calling FoFJK, ICntrl=      2127 FMM=F ISym2X=0 I1Cent= 0 IOpClX= 1 NMat=1 NMatS=1 NMatT=0.
 FoFJK:  IHMeth= 1 ICntrl=    2127 DoSepK=F KAlg= 0 I1Cent=           0 FoldK=F
 IRaf=         0 NMat=       1 IRICut=       1 DoRegI=T DoRafI=F ISym2E= 0 IDoP0=0 IntGTp=1.
 FoFCou: FMM=F IPFlag=           0 FMFlag=      100000 FMFlg1=         800
         NFxFlg=           0 DoJE=F BraDBF=F KetDBF=F FulRan=T
         wScrn=  0.000000 ICntrl=      2127 IOpCl=  1 I1Cent=           0 NGrid=           0
         NMat0=    1 NMatS0=      1 NMatT0=    0 NMatD0=    1 NMtDS0=    0 NMtDT0=    0
 Symmetry not used in FoFCou.
 Leave Link  703 at Mon Apr 21 21:19:06 2025, MaxMem=   536870912 cpu:              11.7 elap:               1.7
 (Enter /home/szhao/Apps/g16/l716.exe)
 Dipole        =-3.82837724D-06 1.25451002D-06 1.04517828D-14
 -------------------------------------------------------------------
 Center     Atomic                   Forces (Hartrees/Bohr)
 Number     Number              X              Y              Z
 -------------------------------------------------------------------
      1       14          -0.000000000   -0.000000000   -0.000000000
      2       14          -0.000000000   -0.000000000   -0.000000000
      3        1          -0.025233232   -0.000000665   -0.000000000
      4        1           0.025233269    0.000000884    0.000000000
 -------------------------------------------------------------------
 Cartesian Forces:  Max     0.025233269 RMS     0.010301431
 Leave Link  716 at Mon Apr 21 21:19:06 2025, MaxMem=   536870912 cpu:               0.6 elap:               0.2
 (Enter /home/szhao/Apps/g16/l103.exe)

 GradGradGradGradGradGradGradGradGradGradGradGradGradGradGradGradGradGrad
 Berny optimization.
 FormGI is forming the generalized inverse of G from B-inverse, IUseBI=4.
 Internal  Forces:  Max     0.025233269 RMS     0.014568424
 Search for a local minimum.
 Step number   1 out of a maximum of   22
 All quantities printed in internal units (Hartrees-Bohrs-Radians)
 RMS Force = .14568D-01 SwitMx=.10000D-02 MixMth= 1
 Mixed Optimization -- RFO/linear search
 Second derivative matrix not updated -- first step.
 The second derivative matrix:
                          X1        Y1        Z1        X2        Y2
           X1           0.50000
           Y1           0.00000   0.50000
           Z1           0.00000   0.00000   0.50000
           X2           0.00000   0.00000   0.00000   0.50000
           Y2           0.00000   0.00000   0.00000   0.00000   0.50000
           Z2           0.00000   0.00000   0.00000   0.00000   0.00000
           R1           0.00000   0.00000   0.00000   0.00000   0.00000
           R2           0.00000   0.00000   0.00000   0.00000   0.00000
           A1           0.00000   0.00000   0.00000   0.00000   0.00000
           A2           0.00000   0.00000   0.00000   0.00000   0.00000
           A3           0.00000   0.00000   0.00000   0.00000   0.00000
           A4           0.00000   0.00000   0.00000   0.00000   0.00000
                          Z2        R1        R2        A1        A2
           Z2           0.50000
           R1           0.00000   0.18833
           R2           0.00000   0.00000   0.18833
           A1           0.00000   0.00000   0.00000   0.00655
           A2           0.00000   0.00000   0.00000   0.00000   0.00655
           A3           0.00000   0.00000   0.00000   0.00000   0.00000
           A4           0.00000   0.00000   0.00000   0.00000   0.00000
                          A3        A4
           A3           0.00655
           A4           0.00000   0.00655
 ITU=  0
     Eigenvalues ---    0.00655   0.00655   0.00655   0.18833   0.18833
     Eigenvalues --- 1000.000001000.000001000.000001000.000001000.00000
     Eigenvalues --- 1000.000001000.00000
 RFO step:  Lambda=-6.53495171D-03 EMin= 6.54940760D-03
 Linear search not attempted -- first point.
 Iteration  1 RMS(Cart)=  0.05286450 RMS(Int)=  0.00000005
 Iteration  2 RMS(Cart)=  0.00000014 RMS(Int)=  0.00000000
 ITry= 1 IFail=0 DXMaxC= 1.29D-01 DCOld= 1.00D+10 DXMaxT= 3.00D-01 DXLimC= 3.00D+00 Rises=F
 Variable       Old X    -DE/DX   Delta X   Delta X   Delta X     New X
                                 (Linear)    (Quad)   (Total)
    X1       -3.31402  -0.02523   0.00000   0.00000   0.00000  -3.31402
    Y1        0.00000  -0.00000   0.00000   0.00000   0.00000   0.00000
    Z1        0.00000  -0.00000   0.00000   0.00000   0.00000   0.00000
    X2        3.31402   0.02523   0.00000   0.00000   0.00000   3.31402
    Y2        0.00000   0.00000   0.00000   0.00000   0.00000   0.00000
    Z2        0.00000   0.00000   0.00000   0.00000   0.00000   0.00000
    R1        2.75593   0.02523   0.00000   0.12949   0.12949   2.88542
    R2        2.75593   0.02523   0.00000   0.12949   0.12949   2.88542
    A1        3.14157   0.00000   0.00000   0.00000   0.00000   3.14158
    A2        3.14157   0.00000   0.00000  -0.00000  -0.00000   3.14156
    A3        3.14159   0.00000   0.00000   0.00000   0.00000   3.14159
    A4        3.14159   0.00000   0.00000   0.00000   0.00000   3.14159
         Item               Value     Threshold  Converged?
 Maximum Force            0.025233     0.000450     NO 
 RMS     Force            0.014568     0.000300     NO 
 Maximum Displacement     0.129491     0.001800     NO 
 RMS     Displacement     0.052865     0.001200     NO 
 Predicted change in Energy=-3.377058D-03
 Lowest energy point so far.  Saving SCF results.
 GradGradGradGradGradGradGradGradGradGradGradGradGradGradGradGradGradGrad

 Leave Link  103 at Mon Apr 21 21:19:07 2025, MaxMem=   536870912 cpu:               0.4 elap:               0.2
 (Enter /home/szhao/Apps/g16/l202.exe)
                          Input orientation:                          
 ---------------------------------------------------------------------
 Center     Atomic      Atomic             Coordinates (Angstroms)
 Number     Number       Type             X           Y           Z
 ---------------------------------------------------------------------
      1         14           0       -1.753705    0.000000    0.000000
      2         14           0        1.753705    0.000000    0.000000
      3          1           0       -3.280604   -0.000024   -0.000000
      4          1           0        3.280604    0.000043    0.000000
 ---------------------------------------------------------------------
                    Distance matrix (angstroms):
                    1          2          3          4
     1  Si   0.000000
     2  Si   3.507410   0.000000
     3  H    1.526899   5.034309   0.000000
     4  H    5.034309   1.526899   6.561207   0.000000
 Symmetry turned off by external request.
 Stoichiometry    H2Si2
 Framework group  C*V[C*(HSiSiH)]
 Deg. of freedom     3
 Full point group                 C*V     NOp   4
 Rotational constants (GHZ):           0.0000000           2.6080283           2.6080283
 Leave Link  202 at Mon Apr 21 21:19:07 2025, MaxMem=   536870912 cpu:               0.9 elap:               0.2
 (Enter /home/szhao/Apps/g16/l301.exe)
 Standard basis: 6-311+G(d,p) (5D, 7F)
 Ernie: Thresh=  0.10000D-02 Tol=  0.10000D-05 Strict=F.
    72 basis functions,   116 primitive gaussians,    74 cartesian basis functions
    15 alpha electrons       15 beta electrons
       nuclear repulsion energy        42.2991250224 Hartrees.
 IExCor= 4336 DFT=T Ex+Corr=M062X ExCW=0 ScaHFX=  0.540000
 ScaDFX=  1.000000  1.000000  1.000000  1.000000 ScalE2=  1.000000  1.000000
 IRadAn=      7 IRanWt=     -1 IRanGd=            0 ICorTp=0 IEmpDi=  4
 NAtoms=    4 NActive=    4 NUniq=    4 SFac= 1.00D+00 NAtFMM=   60 NAOKFM=F Big=F
 Integral buffers will be    131072 words long.
 Raffenetti 2 integral format.
 Two-electron integral symmetry is turned off.
 Leave Link  301 at Mon Apr 21 21:19:07 2025, MaxMem=   536870912 cpu:               0.6 elap:               0.2
 (Enter /home/szhao/Apps/g16/l302.exe)
 NPDir=0 NMtPBC=     1 NCelOv=     1 NCel=       1 NClECP=     1 NCelD=      1
         NCelK=      1 NCelE2=     1 NClLst=     1 CellRange=     0.0.
 One-electron integrals computed using PRISM.
 NBasis=    72 RedAO= T EigKep=  6.07D-03  NBF=    72
 NBsUse=    72 1.00D-06 EigRej= -1.00D+00 NBFU=    72
 Precomputing XC quadrature grid using
 IXCGrd= 4 IRadAn=           7 IRanWt=          -1 IRanGd=           0 AccXCQ= 0.00D+00.
 Generated NRdTot=       0 NPtTot=           0 NUsed=           0 NTot=          32
 NSgBfM=    67    67    67    67    67 MxSgAt=     4 MxSgA2=     4.
 Leave Link  302 at Mon Apr 21 21:19:08 2025, MaxMem=   536870912 cpu:               2.2 elap:               0.4
 (Enter /home/szhao/Apps/g16/l303.exe)
 DipDrv:  MaxL=1.
 Leave Link  303 at Mon Apr 21 21:19:08 2025, MaxMem=   536870912 cpu:               1.0 elap:               0.3
 (Enter /home/szhao/Apps/g16/l401.exe)
 Initial guess from the checkpoint file:  "opt.chk"
 B after Tr=     0.000000    0.000001   -0.000000
         Rot=    1.000000   -0.000001    0.000000   -0.000000 Ang=  -0.00 deg.
 Guess basis will be translated and rotated to current coordinates.
 JPrj=2 DoOrth=T DoCkMO=T.
 Initial guess <Sx>= 0.0000 <Sy>= 0.0000 <Sz>= 0.0000 <S**2>= 0.0000 S= 0.0000
 Generating alternative initial guess.
 ExpMin= 3.31D-02 ExpMax= 6.94D+04 ExpMxC= 2.33D+03 IAcc=3 IRadAn=         5 AccDes= 0.00D+00
 Harris functional with IExCor= 1009 and IRadAn=       5 diagonalized for initial guess.
 HarFok:  IExCor= 1009 AccDes= 0.00D+00 IRadAn=         5 IDoV= 1 UseB2=F ITyADJ=14
 ICtDFT=  3500011 ScaDFX=  1.000000  1.000000  1.000000  1.000000
 FoFCou: FMM=F IPFlag=           0 FMFlag=      100000 FMFlg1=           0
         NFxFlg=           0 DoJE=T BraDBF=F KetDBF=T FulRan=T
         wScrn=  0.000000 ICntrl=       500 IOpCl=  0 I1Cent=   200000004 NGrid=           0
         NMat0=    1 NMatS0=      1 NMatT0=    0 NMatD0=    1 NMtDS0=    0 NMtDT0=    0
 Symmetry not used in FoFCou.
 Harris En= -579.594709388717    
 Leave Link  401 at Mon Apr 21 21:19:09 2025, MaxMem=   536870912 cpu:               4.2 elap:               0.7
 (Enter /home/szhao/Apps/g16/l502.exe)
 Keep R1 and R2 ints in memory in canonical form, NReq=14118010.
 FoFCou: FMM=F IPFlag=           0 FMFlag=           0 FMFlg1=           0
         NFxFlg=           0 DoJE=F BraDBF=F KetDBF=F FulRan=T
         wScrn=  0.000000 ICntrl=       600 IOpCl=  0 I1Cent=           0 NGrid=           0
         NMat0=    1 NMatS0=   2628 NMatT0=    0 NMatD0=    1 NMtDS0=    0 NMtDT0=    0
 Symmetry not used in FoFCou.
 Two-electron integral symmetry not used.
 UHF open shell SCF:
 Using DIIS extrapolation, IDIIS=  1040.
 NGot=   536870912 LenX=   529949706 LenY=   529943789
 Requested convergence on RMS density matrix=1.00D-08 within 128 cycles.
 Requested convergence on MAX density matrix=1.00D-06.
 Requested convergence on             energy=1.00D-06.
 No special actions if energy rises.

 Cycle   1  Pass 1  IDiag  1:
 E= -579.898200622000    
 DIIS: error= 3.69D-03 at cycle   1 NSaved=   1.
 NSaved= 1 IEnMin= 1 EnMin= -579.898200622000     IErMin= 1 ErrMin= 3.69D-03
 ErrMax= 3.69D-03  0.00D+00 EMaxC= 1.00D-01 BMatC= 2.30D-03 BMatP= 2.30D-03
 IDIUse=3 WtCom= 9.63D-01 WtEn= 3.69D-02
 Coeff-Com:  0.100D+01
 Coeff-En:   0.100D+01
 Coeff:      0.100D+01
 Gap=     0.381 Goal=   None    Shift=    0.000
 Gap=     0.381 Goal=   None    Shift=    0.000
 GapD=    0.381 DampG=1.000 DampE=1.000 DampFc=1.0000 IDamp=-1.
 RMSDP=5.18D-04 MaxDP=8.80D-03              OVMax= 9.70D-03

 Cycle   2  Pass 1  IDiag  1:
 E= -579.898873716876     Delta-E=       -0.000673094876 Rises=F Damp=F
 DIIS: error= 5.59D-04 at cycle   2 NSaved=   2.
 NSaved= 2 IEnMin= 2 EnMin= -579.898873716876     IErMin= 2 ErrMin= 5.59D-04
 ErrMax= 5.59D-04  0.00D+00 EMaxC= 1.00D-01 BMatC= 7.08D-05 BMatP= 2.30D-03
 IDIUse=3 WtCom= 9.94D-01 WtEn= 5.59D-03
 Coeff-Com:  0.509D-01 0.949D+00
 Coeff-En:   0.000D+00 0.100D+01
 Coeff:      0.506D-01 0.949D+00
 Gap=     0.091 Goal=   None    Shift=    0.000
 Gap=     0.091 Goal=   None    Shift=    0.000
 RMSDP=1.34D-04 MaxDP=1.82D-03 DE=-6.73D-04 OVMax= 3.88D-03

 Cycle   3  Pass 1  IDiag  1:
 E= -579.898905675892     Delta-E=       -0.000031959017 Rises=F Damp=F
 DIIS: error= 2.13D-04 at cycle   3 NSaved=   3.
 NSaved= 3 IEnMin= 3 EnMin= -579.898905675892     IErMin= 3 ErrMin= 2.13D-04
 ErrMax= 2.13D-04  0.00D+00 EMaxC= 1.00D-01 BMatC= 7.31D-06 BMatP= 7.08D-05
 IDIUse=3 WtCom= 9.98D-01 WtEn= 2.13D-03
 Coeff-Com: -0.205D-01 0.155D+00 0.866D+00
 Coeff-En:   0.000D+00 0.000D+00 0.100D+01
 Coeff:     -0.205D-01 0.154D+00 0.866D+00
 Gap=     0.091 Goal=   None    Shift=    0.000
 Gap=     0.091 Goal=   None    Shift=    0.000
 RMSDP=5.13D-05 MaxDP=6.94D-04 DE=-3.20D-05 OVMax= 1.07D-03

 Cycle   4  Pass 1  IDiag  1:
 E= -579.898909257840     Delta-E=       -0.000003581948 Rises=F Damp=F
 DIIS: error= 4.16D-05 at cycle   4 NSaved=   4.
 NSaved= 4 IEnMin= 4 EnMin= -579.898909257840     IErMin= 4 ErrMin= 4.16D-05
 ErrMax= 4.16D-05  0.00D+00 EMaxC= 1.00D-01 BMatC= 3.93D-07 BMatP= 7.31D-06
 IDIUse=1 WtCom= 1.00D+00 WtEn= 0.00D+00
 Coeff-Com: -0.257D-02-0.512D-01 0.665D-01 0.987D+00
 Coeff:     -0.257D-02-0.512D-01 0.665D-01 0.987D+00
 Gap=     0.091 Goal=   None    Shift=    0.000
 Gap=     0.091 Goal=   None    Shift=    0.000
 RMSDP=1.15D-05 MaxDP=1.57D-04 DE=-3.58D-06 OVMax= 3.03D-04

 Cycle   5  Pass 1  IDiag  1:
 E= -579.898909449439     Delta-E=       -0.000000191598 Rises=F Damp=F
 DIIS: error= 6.43D-06 at cycle   5 NSaved=   5.
 NSaved= 5 IEnMin= 5 EnMin= -579.898909449439     IErMin= 5 ErrMin= 6.43D-06
 ErrMax= 6.43D-06  0.00D+00 EMaxC= 1.00D-01 BMatC= 1.58D-08 BMatP= 3.93D-07
 IDIUse=1 WtCom= 1.00D+00 WtEn= 0.00D+00
 Coeff-Com:  0.332D-03-0.160D-01-0.125D-01 0.187D+00 0.841D+00
 Coeff:      0.332D-03-0.160D-01-0.125D-01 0.187D+00 0.841D+00
 Gap=     0.091 Goal=   None    Shift=    0.000
 Gap=     0.091 Goal=   None    Shift=    0.000
 RMSDP=2.00D-06 MaxDP=3.68D-05 DE=-1.92D-07 OVMax= 4.65D-05

 Cycle   6  Pass 1  IDiag  1:
 E= -579.898909454376     Delta-E=       -0.000000004938 Rises=F Damp=F
 DIIS: error= 2.18D-06 at cycle   6 NSaved=   6.
 NSaved= 6 IEnMin= 6 EnMin= -579.898909454376     IErMin= 6 ErrMin= 2.18D-06
 ErrMax= 2.18D-06  0.00D+00 EMaxC= 1.00D-01 BMatC= 7.02D-10 BMatP= 1.58D-08
 IDIUse=1 WtCom= 1.00D+00 WtEn= 0.00D+00
 Coeff-Com:  0.211D-03-0.101D-02-0.609D-02-0.720D-02 0.123D+00 0.891D+00
 Coeff:      0.211D-03-0.101D-02-0.609D-02-0.720D-02 0.123D+00 0.891D+00
 Gap=     0.091 Goal=   None    Shift=    0.000
 Gap=     0.091 Goal=   None    Shift=    0.000
 RMSDP=7.54D-07 MaxDP=1.53D-05 DE=-4.94D-09 OVMax= 5.26D-05

 Cycle   7  Pass 1  IDiag  1:
 E= -579.898909453818     Delta-E=        0.000000000559 Rises=F Damp=F
 DIIS: error= 4.65D-06 at cycle   7 NSaved=   7.
 NSaved= 7 IEnMin= 6 EnMin= -579.898909454376     IErMin= 6 ErrMin= 2.18D-06
 ErrMax= 4.65D-06  0.00D+00 EMaxC= 1.00D-01 BMatC= 1.46D-09 BMatP= 7.02D-10
 IDIUse=1 WtCom= 1.00D+00 WtEn= 0.00D+00
 Coeff-Com:  0.140D-03-0.373D-05-0.388D-02-0.143D-01 0.527D-01 0.637D+00
 Coeff-Com:  0.328D+00
 Coeff:      0.140D-03-0.373D-05-0.388D-02-0.143D-01 0.527D-01 0.637D+00
 Coeff:      0.328D+00
 Gap=     0.091 Goal=   None    Shift=    0.000
 Gap=     0.091 Goal=   None    Shift=    0.000
 RMSDP=4.38D-07 MaxDP=1.11D-05 DE= 5.59D-10 OVMax= 3.91D-05

 Cycle   8  Pass 1  IDiag  1:
 E= -579.898909454821     Delta-E=       -0.000000001004 Rises=F Damp=F
 DIIS: error= 5.12D-07 at cycle   8 NSaved=   8.
 NSaved= 8 IEnMin= 8 EnMin= -579.898909454821     IErMin= 8 ErrMin= 5.12D-07
 ErrMax= 5.12D-07  0.00D+00 EMaxC= 1.00D-01 BMatC= 2.10D-11 BMatP= 7.02D-10
 IDIUse=1 WtCom= 1.00D+00 WtEn= 0.00D+00
 Coeff-Com: -0.887D-06 0.227D-03 0.148D-03-0.393D-02-0.547D-02-0.339D-01
 Coeff-Com:  0.895D-01 0.953D+00
 Coeff:     -0.887D-06 0.227D-03 0.148D-03-0.393D-02-0.547D-02-0.339D-01
 Coeff:      0.895D-01 0.953D+00
 Gap=     0.091 Goal=   None    Shift=    0.000
 Gap=     0.091 Goal=   None    Shift=    0.000
 RMSDP=7.63D-08 MaxDP=1.30D-06 DE=-1.00D-09 OVMax= 4.05D-06

 Cycle   9  Pass 1  IDiag  1:
 E= -579.898909454836     Delta-E=       -0.000000000015 Rises=F Damp=F
 DIIS: error= 3.24D-08 at cycle   9 NSaved=   9.
 NSaved= 9 IEnMin= 9 EnMin= -579.898909454836     IErMin= 9 ErrMin= 3.24D-08
 ErrMax= 3.24D-08  0.00D+00 EMaxC= 1.00D-01 BMatC= 8.71D-14 BMatP= 2.10D-11
 IDIUse=1 WtCom= 1.00D+00 WtEn= 0.00D+00
 Coeff-Com: -0.272D-05 0.957D-05 0.394D-04 0.222D-03-0.181D-02-0.983D-02
 Coeff-Com: -0.844D-03 0.382D-01 0.974D+00
 Coeff:     -0.272D-05 0.957D-05 0.394D-04 0.222D-03-0.181D-02-0.983D-02
 Coeff:     -0.844D-03 0.382D-01 0.974D+00
 Gap=     0.091 Goal=   None    Shift=    0.000
 Gap=     0.091 Goal=   None    Shift=    0.000
 RMSDP=7.93D-09 MaxDP=7.86D-08 DE=-1.50D-11 OVMax= 2.65D-07

 SCF Done:  E(UM062X) =  -579.898909455     A.U. after    9 cycles
            NFock=  9  Conv=0.79D-08     -V/T= 2.0015
 <Sx>= 0.0000 <Sy>= 0.0000 <Sz>= 0.0000 <S**2>=-0.0000 S=-0.0000
 <L.S>=  0.00000000000    
 KE= 5.790029454049D+02 PE=-1.465988553311D+03 EE= 2.647875734286D+02
 Annihilation of the first spin contaminant:
 S**2 before annihilation    -0.0000,   after    -0.0000
 Leave Link  502 at Mon Apr 21 21:19:18 2025, MaxMem=   536870912 cpu:              63.7 elap:               8.5
 (Enter /home/szhao/Apps/g16/l701.exe)
 ... and contract with generalized density number  0.
 Compute integral first derivatives.
 Leave Link  701 at Mon Apr 21 21:19:19 2025, MaxMem=   536870912 cpu:               2.8 elap:               0.4
 (Enter /home/szhao/Apps/g16/l702.exe)
 L702 exits ... SP integral derivatives will be done elsewhere.
 Leave Link  702 at Mon Apr 21 21:19:19 2025, MaxMem=   536870912 cpu:               0.7 elap:               0.2
 (Enter /home/szhao/Apps/g16/l703.exe)
 Integral derivatives from FoFJK, PRISM(SPDF).
 Compute integral first derivatives, UseDBF=F ICtDFT=           0.
 Calling FoFJK, ICntrl=      2127 FMM=F ISym2X=0 I1Cent= 0 IOpClX= 1 NMat=1 NMatS=1 NMatT=0.
 FoFJK:  IHMeth= 1 ICntrl=    2127 DoSepK=F KAlg= 0 I1Cent=           0 FoldK=F
 IRaf=         0 NMat=       1 IRICut=       1 DoRegI=T DoRafI=F ISym2E= 0 IDoP0=0 IntGTp=1.
 FoFCou: FMM=F IPFlag=           0 FMFlag=      100000 FMFlg1=         800
         NFxFlg=           0 DoJE=F BraDBF=F KetDBF=F FulRan=T
         wScrn=  0.000000 ICntrl=      2127 IOpCl=  1 I1Cent=           0 NGrid=           0
         NMat0=    1 NMatS0=      1 NMatT0=    0 NMatD0=    1 NMtDS0=    0 NMtDT0=    0
 Symmetry not used in FoFCou.
 Leave Link  703 at Mon Apr 21 21:19:21 2025, MaxMem=   536870912 cpu:              11.5 elap:               1.6
 (Enter /home/szhao/Apps/g16/l716.exe)
 Dipole        =-1.10486654D-07 1.12264262D-06-1.29948943D-12
 -------------------------------------------------------------------
 Center     Atomic                   Forces (Hartrees/Bohr)
 Number     Number              X              Y              Z
 -------------------------------------------------------------------
      1       14          -0.000000000   -0.000000000   -0.000000000
      2       14          -0.000000000   -0.000000000   -0.000000000
      3        1          -0.001265527   -0.000000193   -0.000000000
      4        1           0.001265498    0.000000242    0.000000000
 -------------------------------------------------------------------
 Cartesian Forces:  Max     0.001265527 RMS     0.000516643
 Leave Link  716 at Mon Apr 21 21:19:21 2025, MaxMem=   536870912 cpu:               0.8 elap:               0.2
 (Enter /home/szhao/Apps/g16/l103.exe)

 GradGradGradGradGradGradGradGradGradGradGradGradGradGradGradGradGradGrad
 Berny optimization.
 Using GEDIIS/GDIIS optimizer.
 FormGI is forming the generalized inverse of G from B-inverse, IUseBI=4.
 Internal  Forces:  Max     0.001265527 RMS     0.000730644
 Search for a local minimum.
 Step number   2 out of a maximum of   22
 All quantities printed in internal units (Hartrees-Bohrs-Radians)
 RMS Force = .73064D-03 SwitMx=.10000D-02 MixMth= 2
 Mixed Optimization -- En-DIIS/RFO-DIIS
 Update second derivatives using D2CorX and points    1    2
 DE= -3.28D-03 DEPred=-3.38D-03 R= 9.71D-01
 TightC=F SS=  1.41D+00  RLast= 1.83D-01 DXNew= 5.0454D-01 5.4938D-01
 Trust test= 9.71D-01 RLast= 1.83D-01 DXMaxT set to 5.05D-01
 The second derivative matrix:
                          X1        Y1        Z1        X2        Y2
           X1           0.59255
           Y1           0.00000   0.50000
           Z1          -0.00000  -0.00000   0.50000
           X2          -0.09255  -0.00000   0.00000   0.59255
           Y2          -0.00000  -0.00000   0.00000   0.00000   0.50000
           Z2           0.00000   0.00000  -0.00000  -0.00000  -0.00000
           R1          -0.09255  -0.00000   0.00000   0.09255   0.00000
           R2          -0.09255  -0.00000   0.00000   0.09255   0.00000
           A1          -0.00000  -0.00000   0.00000   0.00000   0.00000
           A2          -0.00000  -0.00000   0.00000   0.00000   0.00000
           A3           0.00000   0.00000  -0.00000  -0.00000  -0.00000
           A4           0.00000   0.00000  -0.00000  -0.00000  -0.00000
                          Z2        R1        R2        A1        A2
           Z2           0.50000
           R1          -0.00000   0.18671
           R2          -0.00000  -0.00162   0.18671
           A1          -0.00000   0.00000   0.00000   0.00655
           A2          -0.00000   0.00000   0.00000   0.00000   0.00655
           A3           0.00000  -0.00000  -0.00000  -0.00000  -0.00000
           A4           0.00000  -0.00000  -0.00000  -0.00000  -0.00000
                          A3        A4
           A3           0.00655
           A4           0.00000   0.00655
 ITU=  1  0
 Use linear search instead of GDIIS.
     Eigenvalues ---    0.00655   0.00655   0.00655   0.18509   0.18833
     Eigenvalues --- 1000.000001000.000001000.000001000.000001000.00000
     Eigenvalues --- 1000.000001000.00000
 RFO step:  Lambda= 0.00000000D+00 EMin= 6.54940760D-03
 Quartic linear search produced a step of  0.06238.
 Iteration  1 RMS(Cart)=  0.00329779 RMS(Int)=  0.00000001
 Iteration  2 RMS(Cart)=  0.00000003 RMS(Int)=  0.00000000
 ITry= 1 IFail=0 DXMaxC= 8.08D-03 DCOld= 1.00D+10 DXMaxT= 5.05D-01 DXLimC= 3.00D+00 Rises=F
 Variable       Old X    -DE/DX   Delta X   Delta X   Delta X     New X
                                 (Linear)    (Quad)   (Total)
    X1       -3.31402  -0.00127   0.00000   0.00000   0.00000  -3.31402
    Y1        0.00000   0.00000   0.00000   0.00000   0.00000   0.00000
    Z1        0.00000  -0.00000   0.00000   0.00000   0.00000   0.00000
    X2        3.31402   0.00127   0.00000   0.00000   0.00000   3.31402
    Y2        0.00000   0.00000   0.00000   0.00000   0.00000   0.00000
    Z2        0.00000   0.00000   0.00000   0.00000   0.00000   0.00000
    R1        2.88542   0.00127   0.00808   0.00000   0.00808   2.89350
    R2        2.88542   0.00127   0.00808  -0.00000   0.00808   2.89350
    A1        3.14158   0.00000   0.00000   0.00001   0.00001   3.14159
    A2        3.14156  -0.00000  -0.00000  -0.00001  -0.00001   3.14156
    A3        3.14159   0.00000   0.00000   0.00000   0.00000   3.14159
    A4        3.14159   0.00000   0.00000   0.00000   0.00000   3.14159
         Item               Value     Threshold  Converged?
 Maximum Force            0.001266     0.000450     NO 
 RMS     Force            0.000731     0.000300     NO 
 Maximum Displacement     0.008078     0.001800     NO 
 RMS     Displacement     0.003298     0.001200     NO 
 Predicted change in Energy=-8.367684D-06
 Lowest energy point so far.  Saving SCF results.
 GradGradGradGradGradGradGradGradGradGradGradGradGradGradGradGradGradGrad

 Leave Link  103 at Mon Apr 21 21:19:22 2025, MaxMem=   536870912 cpu:               1.1 elap:               0.3
 (Enter /home/szhao/Apps/g16/l202.exe)
                          Input orientation:                          
 ---------------------------------------------------------------------
 Center     Atomic      Atomic             Coordinates (Angstroms)
 Number     Number       Type             X           Y           Z
 ---------------------------------------------------------------------
      1         14           0       -1.753705    0.000000    0.000000
      2         14           0        1.753705    0.000000    0.000000
      3          1           0       -3.284878   -0.000012   -0.000000
      4          1           0        3.284878    0.000056    0.000000
 ---------------------------------------------------------------------
                    Distance matrix (angstroms):
                    1          2          3          4
     1  Si   0.000000
     2  Si   3.507410   0.000000
     3  H    1.531173   5.038583   0.000000
     4  H    5.038583   1.531173   6.569757   0.000000
 Symmetry turned off by external request.
 Stoichiometry    H2Si2
 Framework group  C*V[C*(HSiSiH)]
 Deg. of freedom     3
 Full point group                 C*V     NOp   4
 Rotational constants (GHZ):           0.0000000           2.6072672           2.6072672
 Leave Link  202 at Mon Apr 21 21:19:22 2025, MaxMem=   536870912 cpu:               0.3 elap:               0.2
 (Enter /home/szhao/Apps/g16/l301.exe)
 Standard basis: 6-311+G(d,p) (5D, 7F)
 Ernie: Thresh=  0.10000D-02 Tol=  0.10000D-05 Strict=F.
    72 basis functions,   116 primitive gaussians,    74 cartesian basis functions
    15 alpha electrons       15 beta electrons
       nuclear repulsion energy        42.2694322947 Hartrees.
 IExCor= 4336 DFT=T Ex+Corr=M062X ExCW=0 ScaHFX=  0.540000
 ScaDFX=  1.000000  1.000000  1.000000  1.000000 ScalE2=  1.000000  1.000000
 IRadAn=      7 IRanWt=     -1 IRanGd=            0 ICorTp=0 IEmpDi=  4
 NAtoms=    4 NActive=    4 NUniq=    4 SFac= 1.00D+00 NAtFMM=   60 NAOKFM=F Big=F
 Integral buffers will be    131072 words long.
 Raffenetti 2 integral format.
 Two-electron integral symmetry is turned off.
 Leave Link  301 at Mon Apr 21 21:19:23 2025, MaxMem=   536870912 cpu:               0.8 elap:               0.2
 (Enter /home/szhao/Apps/g16/l302.exe)
 NPDir=0 NMtPBC=     1 NCelOv=     1 NCel=       1 NClECP=     1 NCelD=      1
         NCelK=      1 NCelE2=     1 NClLst=     1 CellRange=     0.0.
 One-electron integrals computed using PRISM.
 NBasis=    72 RedAO= T EigKep=  6.11D-03  NBF=    72
 NBsUse=    72 1.00D-06 EigRej= -1.00D+00 NBFU=    72
 Precomputing XC quadrature grid using
 IXCGrd= 4 IRadAn=           7 IRanWt=          -1 IRanGd=           0 AccXCQ= 0.00D+00.
 Generated NRdTot=       0 NPtTot=           0 NUsed=           0 NTot=          32
 NSgBfM=    67    67    67    67    67 MxSgAt=     4 MxSgA2=     4.
 Leave Link  302 at Mon Apr 21 21:19:23 2025, MaxMem=   536870912 cpu:               3.6 elap:               0.6
 (Enter /home/szhao/Apps/g16/l303.exe)
 DipDrv:  MaxL=1.
 Leave Link  303 at Mon Apr 21 21:19:24 2025, MaxMem=   536870912 cpu:               0.7 elap:               0.2
 (Enter /home/szhao/Apps/g16/l401.exe)
 Initial guess from the checkpoint file:  "opt.chk"
 B after Tr=    -0.000000    0.000002   -0.000000
         Rot=    1.000000   -0.000021    0.000000   -0.000000 Ang=  -0.00 deg.
 Guess basis will be translated and rotated to current coordinates.
 JPrj=2 DoOrth=T DoCkMO=T.
 Initial guess <Sx>= 0.0000 <Sy>= 0.0000 <Sz>= 0.0000 <S**2>=-0.0000 S=-0.0000
 Leave Link  401 at Mon Apr 21 21:19:24 2025, MaxMem=   536870912 cpu:               2.2 elap:               0.4
 (Enter /home/szhao/Apps/g16/l502.exe)
 Keep R1 and R2 ints in memory in canonical form, NReq=14118010.
 FoFCou: FMM=F IPFlag=           0 FMFlag=           0 FMFlg1=           0
         NFxFlg=           0 DoJE=F BraDBF=F KetDBF=F FulRan=T
         wScrn=  0.000000 ICntrl=       600 IOpCl=  0 I1Cent=           0 NGrid=           0
         NMat0=    1 NMatS0=   2628 NMatT0=    0 NMatD0=    1 NMtDS0=    0 NMtDT0=    0
 Symmetry not used in FoFCou.
 Two-electron integral symmetry not used.
 UHF open shell SCF:
 Using DIIS extrapolation, IDIIS=  1040.
 NGot=   536870912 LenX=   529949706 LenY=   529943789
 Requested convergence on RMS density matrix=1.00D-08 within 128 cycles.
 Requested convergence on MAX density matrix=1.00D-06.
 Requested convergence on             energy=1.00D-06.
 No special actions if energy rises.

 Cycle   1  Pass 1  IDiag  1:
 E= -579.898916950830    
 DIIS: error= 2.25D-04 at cycle   1 NSaved=   1.
 NSaved= 1 IEnMin= 1 EnMin= -579.898916950830     IErMin= 1 ErrMin= 2.25D-04
 ErrMax= 2.25D-04  0.00D+00 EMaxC= 1.00D-01 BMatC= 8.12D-06 BMatP= 8.12D-06
 IDIUse=3 WtCom= 9.98D-01 WtEn= 2.25D-03
 Coeff-Com:  0.100D+01
 Coeff-En:   0.100D+01
 Coeff:      0.100D+01
 Gap=     0.379 Goal=   None    Shift=    0.000
 Gap=     0.379 Goal=   None    Shift=    0.000
 RMSDP=3.09D-05 MaxDP=5.02D-04              OVMax= 5.95D-04

 Cycle   2  Pass 1  IDiag  1:
 E= -579.898919466281     Delta-E=       -0.000002515452 Rises=F Damp=F
 DIIS: error= 3.35D-05 at cycle   2 NSaved=   2.
 NSaved= 2 IEnMin= 2 EnMin= -579.898919466281     IErMin= 2 ErrMin= 3.35D-05
 ErrMax= 3.35D-05  0.00D+00 EMaxC= 1.00D-01 BMatC= 2.62D-07 BMatP= 8.12D-06
 IDIUse=1 WtCom= 1.00D+00 WtEn= 0.00D+00
 Coeff-Com:  0.513D-01 0.949D+00
 Coeff:      0.513D-01 0.949D+00
 Gap=     0.091 Goal=   None    Shift=    0.000
 Gap=     0.091 Goal=   None    Shift=    0.000
 RMSDP=8.25D-06 MaxDP=1.12D-04 DE=-2.52D-06 OVMax= 2.37D-04

 Cycle   3  Pass 1  IDiag  1:
 E= -579.898919588263     Delta-E=       -0.000000121981 Rises=F Damp=F
 DIIS: error= 1.31D-05 at cycle   3 NSaved=   3.
 NSaved= 3 IEnMin= 3 EnMin= -579.898919588263     IErMin= 3 ErrMin= 1.31D-05
 ErrMax= 1.31D-05  0.00D+00 EMaxC= 1.00D-01 BMatC= 2.59D-08 BMatP= 2.62D-07
 IDIUse=1 WtCom= 1.00D+00 WtEn= 0.00D+00
 Coeff-Com: -0.220D-01 0.140D+00 0.882D+00
 Coeff:     -0.220D-01 0.140D+00 0.882D+00
 Gap=     0.091 Goal=   None    Shift=    0.000
 Gap=     0.091 Goal=   None    Shift=    0.000
 RMSDP=3.14D-06 MaxDP=4.22D-05 DE=-1.22D-07 OVMax= 6.66D-05

 Cycle   4  Pass 1  IDiag  1:
 E= -579.898919601683     Delta-E=       -0.000000013421 Rises=F Damp=F
 DIIS: error= 2.66D-06 at cycle   4 NSaved=   4.
 NSaved= 4 IEnMin= 4 EnMin= -579.898919601683     IErMin= 4 ErrMin= 2.66D-06
 ErrMax= 2.66D-06  0.00D+00 EMaxC= 1.00D-01 BMatC= 1.55D-09 BMatP= 2.59D-08
 IDIUse=1 WtCom= 1.00D+00 WtEn= 0.00D+00
 Coeff-Com: -0.275D-02-0.524D-01 0.762D-01 0.979D+00
 Coeff:     -0.275D-02-0.524D-01 0.762D-01 0.979D+00
 Gap=     0.091 Goal=   None    Shift=    0.000
 Gap=     0.091 Goal=   None    Shift=    0.000
 RMSDP=7.12D-07 MaxDP=1.03D-05 DE=-1.34D-08 OVMax= 1.93D-05

 Cycle   5  Pass 1  IDiag  1:
 E= -579.898919602450     Delta-E=       -0.000000000766 Rises=F Damp=F
 DIIS: error= 4.06D-07 at cycle   5 NSaved=   5.
 NSaved= 5 IEnMin= 5 EnMin= -579.898919602450     IErMin= 5 ErrMin= 4.06D-07
 ErrMax= 4.06D-07  0.00D+00 EMaxC= 1.00D-01 BMatC= 6.14D-11 BMatP= 1.55D-09
 IDIUse=1 WtCom= 1.00D+00 WtEn= 0.00D+00
 Coeff-Com:  0.296D-03-0.158D-01-0.103D-01 0.189D+00 0.837D+00
 Coeff:      0.296D-03-0.158D-01-0.103D-01 0.189D+00 0.837D+00
 Gap=     0.091 Goal=   None    Shift=    0.000
 Gap=     0.091 Goal=   None    Shift=    0.000
 RMSDP=1.21D-07 MaxDP=2.15D-06 DE=-7.66D-10 OVMax= 2.54D-06

 Cycle   6  Pass 1  IDiag  1:
 E= -579.898919602469     Delta-E=       -0.000000000019 Rises=F Damp=F
 DIIS: error= 6.07D-08 at cycle   6 NSaved=   6.
 NSaved= 6 IEnMin= 6 EnMin= -579.898919602469     IErMin= 6 ErrMin= 6.07D-08
 ErrMax= 6.07D-08  0.00D+00 EMaxC= 1.00D-01 BMatC= 1.62D-12 BMatP= 6.14D-11
 IDIUse=1 WtCom= 1.00D+00 WtEn= 0.00D+00
 Coeff-Com:  0.213D-03-0.292D-03-0.602D-02-0.153D-01 0.914D-01 0.930D+00
 Coeff:      0.213D-03-0.292D-03-0.602D-02-0.153D-01 0.914D-01 0.930D+00
 Gap=     0.091 Goal=   None    Shift=    0.000
 Gap=     0.091 Goal=   None    Shift=    0.000
 RMSDP=3.16D-08 MaxDP=3.86D-07 DE=-1.92D-11 OVMax= 6.93D-07

 Cycle   7  Pass 1  IDiag  1:
 E= -579.898919602471     Delta-E=       -0.000000000002 Rises=F Damp=F
 DIIS: error= 2.85D-08 at cycle   7 NSaved=   7.
 NSaved= 7 IEnMin= 7 EnMin= -579.898919602471     IErMin= 7 ErrMin= 2.85D-08
 ErrMax= 2.85D-08  0.00D+00 EMaxC= 1.00D-01 BMatC= 8.57D-14 BMatP= 1.62D-12
 IDIUse=1 WtCom= 1.00D+00 WtEn= 0.00D+00
 Coeff-Com:  0.298D-04 0.252D-03-0.716D-03-0.718D-02 0.576D-02 0.876D-01
 Coeff-Com:  0.914D+00
 Coeff:      0.298D-04 0.252D-03-0.716D-03-0.718D-02 0.576D-02 0.876D-01
 Coeff:      0.914D+00
 Gap=     0.091 Goal=   None    Shift=    0.000
 Gap=     0.091 Goal=   None    Shift=    0.000
 RMSDP=9.30D-09 MaxDP=2.00D-07 DE=-1.71D-12 OVMax= 7.06D-07

 SCF Done:  E(UM062X) =  -579.898919602     A.U. after    7 cycles
            NFock=  7  Conv=0.93D-08     -V/T= 2.0016
 <Sx>= 0.0000 <Sy>= 0.0000 <Sz>= 0.0000 <S**2>=-0.0000 S=-0.0000
 <L.S>=  0.00000000000    
 KE= 5.789956728074D+02 PE=-1.465917090047D+03 EE= 2.647530653421D+02
 Annihilation of the first spin contaminant:
 S**2 before annihilation    -0.0000,   after     0.0000
 Leave Link  502 at Mon Apr 21 21:19:31 2025, MaxMem=   536870912 cpu:              42.0 elap:               5.7
 (Enter /home/szhao/Apps/g16/l701.exe)
 ... and contract with generalized density number  0.
 Compute integral first derivatives.
 Leave Link  701 at Mon Apr 21 21:19:31 2025, MaxMem=   536870912 cpu:               2.0 elap:               0.4
 (Enter /home/szhao/Apps/g16/l702.exe)
 L702 exits ... SP integral derivatives will be done elsewhere.
 Leave Link  702 at Mon Apr 21 21:19:32 2025, MaxMem=   536870912 cpu:               0.5 elap:               0.1
 (Enter /home/szhao/Apps/g16/l703.exe)
 Integral derivatives from FoFJK, PRISM(SPDF).
 Compute integral first derivatives, UseDBF=F ICtDFT=           0.
 Calling FoFJK, ICntrl=      2127 FMM=F ISym2X=0 I1Cent= 0 IOpClX= 1 NMat=1 NMatS=1 NMatT=0.
 FoFJK:  IHMeth= 1 ICntrl=    2127 DoSepK=F KAlg= 0 I1Cent=           0 FoldK=F
 IRaf=         0 NMat=       1 IRICut=       1 DoRegI=T DoRafI=F ISym2E= 0 IDoP0=0 IntGTp=1.
 FoFCou: FMM=F IPFlag=           0 FMFlag=      100000 FMFlg1=         800
         NFxFlg=           0 DoJE=F BraDBF=F KetDBF=F FulRan=T
         wScrn=  0.000000 ICntrl=      2127 IOpCl=  1 I1Cent=           0 NGrid=           0
         NMat0=    1 NMatS0=      1 NMatT0=    0 NMatD0=    1 NMtDS0=    0 NMtDT0=    0
 Symmetry not used in FoFCou.
 Leave Link  703 at Mon Apr 21 21:19:33 2025, MaxMem=   536870912 cpu:              11.6 elap:               1.5
 (Enter /home/szhao/Apps/g16/l716.exe)
 Dipole        =-6.79026863D-06 2.40841619D-06-2.38214499D-10
 -------------------------------------------------------------------
 Center     Atomic                   Forces (Hartrees/Bohr)
 Number     Number              X              Y              Z
 -------------------------------------------------------------------
      1       14          -0.000000000   -0.000000000   -0.000000000
      2       14          -0.000000000   -0.000000000   -0.000000000
      3        1           0.000005228   -0.000000153   -0.000000000
      4        1          -0.000005153    0.000000223   -0.000000000
 -------------------------------------------------------------------
 Cartesian Forces:  Max     0.000005228 RMS     0.000002121
 Leave Link  716 at Mon Apr 21 21:19:34 2025, MaxMem=   536870912 cpu:               1.4 elap:               0.3
 (Enter /home/szhao/Apps/g16/l103.exe)

 GradGradGradGradGradGradGradGradGradGradGradGradGradGradGradGradGradGrad
 Berny optimization.
 Using GEDIIS/GDIIS optimizer.
 FormGI is forming the generalized inverse of G from B-inverse, IUseBI=4.
 Internal  Forces:  Max     0.000005228 RMS     0.000002997
 Search for a local minimum.
 Step number   3 out of a maximum of   22
 All quantities printed in internal units (Hartrees-Bohrs-Radians)
 RMS Force = .29974D-05 SwitMx=.10000D-02 MixMth= 2
 Mixed Optimization -- En-DIIS/RFO-DIIS
 Swapping is turned off.
 Update second derivatives using D2CorX and points    1    2    3
 DE= -1.01D-05 DEPred=-8.37D-06 R= 1.21D+00
 TightC=F SS=  1.41D+00  RLast= 1.14D-02 DXNew= 8.4853D-01 3.4271D-02
 Trust test= 1.21D+00 RLast= 1.14D-02 DXMaxT set to 5.05D-01
 The second derivative matrix:
                          X1        Y1        Z1        X2        Y2
           X1           0.57866
           Y1           0.00000   0.50000
           Z1          -0.00000  -0.00000   0.50000
           X2          -0.07865  -0.00000   0.00000   0.57865
           Y2          -0.00000  -0.00000   0.00000   0.00000   0.50000
           Z2           0.00000   0.00000  -0.00000  -0.00000  -0.00000
           R1          -0.07866  -0.00000   0.00000   0.07865   0.00000
           R2          -0.07865  -0.00000   0.00000   0.07865   0.00000
           A1           0.00001   0.00000  -0.00000  -0.00001  -0.00000
           A2          -0.00001  -0.00000   0.00000   0.00001   0.00000
           A3           0.00000   0.00000  -0.00000  -0.00000  -0.00000
           A4          -0.00000  -0.00000   0.00000   0.00000   0.00000
                          Z2        R1        R2        A1        A2
           Z2           0.50000
           R1          -0.00000   0.17282
           R2          -0.00000  -0.01551   0.17281
           A1           0.00000  -0.00001  -0.00001   0.00655
           A2          -0.00000   0.00001   0.00001  -0.00000   0.00655
           A3           0.00000  -0.00000  -0.00000   0.00000  -0.00000
           A4          -0.00000   0.00000   0.00000  -0.00000   0.00000
                          A3        A4
           A3           0.00655
           A4          -0.00000   0.00655
 ITU=  1  1  0
     Eigenvalues ---    0.00655   0.00655   0.00655   0.15731   0.18833
     Eigenvalues --- 1000.000001000.000001000.000001000.000001000.00000
     Eigenvalues --- 1000.000001000.00000
 En-DIIS/RFO-DIIS/Sim-DIIS IScMMF=       -3 using points:     3    2
 RFO step:  Lambda=-2.68877760D-10.
 NNeg= 0 NGDIIS= 2 SimSw=  2.50D-03 Rises=F DC= -1.01D-05 SmlDif=  1.00D-05
 NRisDI= 0 DoIntr=F SqrtH=F CThrHd= 10.0 CDAdj=  3.0
 RMS Error=  0.1487068880D-04 NUsed= 2 OKEnD=T EnDIS=F
 InvSVX:  RCond= 1.47D-04 Info=           0 Equed=N FErr=  8.93D-16 BErr=  1.03D-16
 DidBck=F Rises=F RFO-DIIS coefs:    0.99592    0.00408
 Iteration  1 RMS(Cart)=  0.00002267 RMS(Int)=  0.00000000
 Iteration  2 RMS(Cart)=  0.00000001 RMS(Int)=  0.00000000
 ITry= 1 IFail=0 DXMaxC= 4.46D-05 DCOld= 1.00D+10 DXMaxT= 5.05D-01 DXLimC= 3.00D+00 Rises=F
 Variable       Old X    -DE/DX   Delta X   Delta X   Delta X     New X
                                 (Linear)    (Quad)   (Total)
    X1       -3.31402   0.00001   0.00000   0.00000   0.00000  -3.31402
    Y1        0.00000   0.00000   0.00000   0.00000   0.00000   0.00000
    Z1        0.00000  -0.00000   0.00000   0.00000   0.00000   0.00000
    X2        3.31402  -0.00001   0.00000   0.00000   0.00000   3.31402
    Y2        0.00000   0.00000   0.00000   0.00000   0.00000   0.00000
    Z2        0.00000   0.00000   0.00000   0.00000   0.00000   0.00000
    R1        2.89350  -0.00001  -0.00003  -0.00000  -0.00003   2.89347
    R2        2.89350  -0.00001  -0.00003   0.00000  -0.00003   2.89347
    A1        3.14159   0.00000  -0.00000   0.00002   0.00002   3.14160
    A2        3.14156  -0.00000   0.00000  -0.00002  -0.00002   3.14154
    A3        3.14159   0.00000   0.00000   0.00000   0.00000   3.14159
    A4        3.14159  -0.00000   0.00000  -0.00000   0.00000   3.14159
         Item               Value     Threshold  Converged?
 Maximum Force            0.000005     0.000450     YES
 RMS     Force            0.000003     0.000300     YES
 Maximum Displacement     0.000045     0.001800     YES
 RMS     Displacement     0.000023     0.001200     YES
 Predicted change in Energy=-1.728366D-10
 Optimization completed.
    -- Stationary point found.
                           ----------------------------
                           !   Optimized Parameters   !
                           ! (Angstroms and Degrees)  !
 --------------------------                            --------------------------
 ! Name  Definition              Value          Derivative Info.                !
 --------------------------------------------------------------------------------
 ! X1    R(1,-1)                -1.7537         -DE/DX =    0.0                 !
 ! Y1    R(1,-2)                 0.0            -DE/DX =    0.0                 !
 ! Z1    R(1,-3)                 0.0            -DE/DX =    0.0                 !
 ! X2    R(2,-1)                 1.7537         -DE/DX =    0.0                 !
 ! Y2    R(2,-2)                 0.0            -DE/DX =    0.0                 !
 ! Z2    R(2,-3)                 0.0            -DE/DX =    0.0                 !
 ! R1    R(1,3)                  1.5312         -DE/DX =    0.0                 !
 ! R2    R(2,4)                  1.5312         -DE/DX =    0.0                 !
 ! A1    L(2,1,3,-3,-1)        179.9996         -DE/DX =    0.0                 !
 ! A2    L(1,2,4,-3,-1)        179.9979         -DE/DX =    0.0                 !
 ! A3    L(2,1,3,-2,-2)        180.0            -DE/DX =    0.0                 !
 ! A4    L(1,2,4,-2,-2)        180.0            -DE/DX =    0.0                 !
 --------------------------------------------------------------------------------
 Lowest energy point so far.  Saving SCF results.
 Largest change from initial coordinates is atom    4       0.073 Angstoms.
 GradGradGradGradGradGradGradGradGradGradGradGradGradGradGradGradGradGrad

 Leave Link  103 at Mon Apr 21 21:19:35 2025, MaxMem=   536870912 cpu:               1.8 elap:               0.4
 (Enter /home/szhao/Apps/g16/l202.exe)
                          Input orientation:                          
 ---------------------------------------------------------------------
 Center     Atomic      Atomic             Coordinates (Angstroms)
 Number     Number       Type             X           Y           Z
 ---------------------------------------------------------------------
      1         14           0       -1.753705    0.000000    0.000000
      2         14           0        1.753705    0.000000    0.000000
      3          1           0       -3.284878   -0.000012   -0.000000
      4          1           0        3.284878    0.000056    0.000000
 ---------------------------------------------------------------------
                    Distance matrix (angstroms):
                    1          2          3          4
     1  Si   0.000000
     2  Si   3.507410   0.000000
     3  H    1.531173   5.038583   0.000000
     4  H    5.038583   1.531173   6.569757   0.000000
 Symmetry turned off by external request.
 Stoichiometry    H2Si2
 Framework group  C*V[C*(HSiSiH)]
 Deg. of freedom     3
 Full point group                 C*V     NOp   4
 Rotational constants (GHZ):           0.0000000           2.6072672           2.6072672
 Leave Link  202 at Mon Apr 21 21:19:35 2025, MaxMem=   536870912 cpu:               0.6 elap:               0.2
 (Enter /home/szhao/Apps/g16/l601.exe)
 Copying SCF densities to generalized density rwf, IOpCl= 1 IROHF=0.

 **********************************************************************

            Population analysis using the SCF density.

 **********************************************************************

 Alpha  occ. eigenvalues --  -67.04401 -67.04401  -5.58818  -5.58817  -3.89909
 Alpha  occ. eigenvalues --   -3.89908  -3.89463  -3.89462  -3.89338  -3.89338
 Alpha  occ. eigenvalues --   -0.55155  -0.54204  -0.35303  -0.29566  -0.18997
 Alpha virt. eigenvalues --   -0.09857  -0.09468  -0.07560   0.02285   0.02983
 Alpha virt. eigenvalues --    0.04531   0.05253   0.05732   0.06060   0.07102
 Alpha virt. eigenvalues --    0.08492   0.09627   0.19794   0.29227   0.29574
 Alpha virt. eigenvalues --    0.30958   0.31002   0.32219   0.32317   0.41705
 Alpha virt. eigenvalues --    0.42592   0.47554   0.54795   0.59721   0.60488
 Alpha virt. eigenvalues --    0.60511   0.61457   0.61646   0.61771   0.62296
 Alpha virt. eigenvalues --    0.62418   0.82591   0.86697   1.19267   1.21147
 Alpha virt. eigenvalues --    1.22066   1.22651   1.23565   1.28384   1.47082
 Alpha virt. eigenvalues --    1.47122   1.47458   1.47491   1.94309   1.94936
 Alpha virt. eigenvalues --    2.60006   2.62084   5.44378   5.49336  11.42478
 Alpha virt. eigenvalues --   11.42498  11.43842  11.43864  11.47734  11.55385
 Alpha virt. eigenvalues --  140.99089 141.05953
  Beta  occ. eigenvalues --  -67.04401 -67.04401  -5.58818  -5.58817  -3.89909
  Beta  occ. eigenvalues --   -3.89908  -3.89463  -3.89462  -3.89338  -3.89338
  Beta  occ. eigenvalues --   -0.55155  -0.54204  -0.35303  -0.29566  -0.18997
  Beta virt. eigenvalues --   -0.09857  -0.09468  -0.07560   0.02285   0.02983
  Beta virt. eigenvalues --    0.04531   0.05253   0.05732   0.06060   0.07102
  Beta virt. eigenvalues --    0.08492   0.09627   0.19794   0.29227   0.29574
  Beta virt. eigenvalues --    0.30958   0.31002   0.32219   0.32317   0.41705
  Beta virt. eigenvalues --    0.42592   0.47554   0.54795   0.59721   0.60488
  Beta virt. eigenvalues --    0.60511   0.61457   0.61646   0.61771   0.62296
  Beta virt. eigenvalues --    0.62418   0.82591   0.86697   1.19267   1.21147
  Beta virt. eigenvalues --    1.22066   1.22651   1.23565   1.28384   1.47082
  Beta virt. eigenvalues --    1.47122   1.47458   1.47491   1.94309   1.94936
  Beta virt. eigenvalues --    2.60006   2.62084   5.44378   5.49336  11.42478
  Beta virt. eigenvalues --   11.42498  11.43842  11.43864  11.47734  11.55385
  Beta virt. eigenvalues --  140.99089 141.05953
          Condensed to atoms (all electrons):
               1          2          3          4
     1  Si  13.744627  -0.108586   0.211271   0.009689
     2  Si  -0.108586  13.744629   0.009689   0.211271
     3  H    0.211271   0.009689   0.922042  -0.000005
     4  H    0.009689   0.211271  -0.000005   0.922042
          Atomic-Atomic Spin Densities.
               1          2          3          4
     1  Si  -0.000000  -0.000000  -0.000000  -0.000000
     2  Si  -0.000000   0.000000   0.000000   0.000000
     3  H   -0.000000   0.000000   0.000000   0.000000
     4  H   -0.000000   0.000000   0.000000  -0.000000
 Mulliken charges and spin densities:
               1          2
     1  Si   0.142999  -0.000000
     2  Si   0.142997   0.000000
     3  H   -0.142998   0.000000
     4  H   -0.142998  -0.000000
 Sum of Mulliken charges =  -0.00000  -0.00000
 Mulliken charges and spin densities with hydrogens summed into heavy atoms:
               1          2
     1  Si   0.000001  -0.000000
     2  Si  -0.000001   0.000000
 Electronic spatial extent (au):  <R**2>=            452.4126
 Charge=             -0.0000 electrons
 Dipole moment (field-independent basis, Debye):
    X=             -0.0000    Y=              0.0000    Z=             -0.0000  Tot=              0.0000
 Quadrupole moment (field-independent basis, Debye-Ang):
   XX=            -31.5369   YY=            -24.2026   ZZ=            -35.4930
   XY=             -0.0002   XZ=             -0.0000   YZ=              0.0005
 Traceless Quadrupole moment (field-independent basis, Debye-Ang):
   XX=             -1.1261   YY=              6.2083   ZZ=             -5.0822
   XY=             -0.0002   XZ=             -0.0000   YZ=              0.0005
 Octapole moment (field-independent basis, Debye-Ang**2):
  XXX=             -0.0001  YYY=             -0.0001  ZZZ=              0.0000  XYY=             -0.0000
  XXY=             -0.0006  XXZ=             -0.0000  XZZ=             -0.0000  YZZ=             -0.0000
  YYZ=              0.0000  XYZ=              0.0000
 Hexadecapole moment (field-independent basis, Debye-Ang**3):
 XXXX=           -802.6466 YYYY=            -38.6073 ZZZZ=            -94.7862 XXXY=             -0.0038
 XXXZ=             -0.0000 YYYX=             -0.0007 YYYZ=              0.0012 ZZZX=             -0.0000
 ZZZY=              0.0012 XXYY=           -101.4861 XXZZ=           -141.1709 YYZZ=            -22.2321
 XXYZ=              0.0017 YYXZ=             -0.0000 ZZXY=             -0.0003
 N-N= 4.226943229472D+01 E-N=-1.465917088984D+03  KE= 5.789956728074D+02
                          Isotropic Fermi Contact Couplings
        Atom                 a.u.       MegaHertz       Gauss      10(-4) cm-1
     1  Si(29)             0.00000      -0.00000      -0.00000      -0.00000
     2  Si(29)            -0.00000       0.00000       0.00000       0.00000
     3  H(1)               0.00000       0.00000       0.00000       0.00000
     4  H(1)              -0.00000      -0.00000      -0.00000      -0.00000
 --------------------------------------------------------
       Center         ----  Spin Dipole Couplings  ----
                      3XX-RR        3YY-RR        3ZZ-RR
 --------------------------------------------------------
     1   Atom        0.000000      0.000000     -0.000000
     2   Atom       -0.000000     -0.000000      0.000000
     3   Atom       -0.000000      0.000000     -0.000000
     4   Atom        0.000000     -0.000000      0.000000
 --------------------------------------------------------
                        XY            XZ            YZ
 --------------------------------------------------------
     1   Atom        0.000000     -0.000000     -0.000000
     2   Atom       -0.000000      0.000000     -0.000000
     3   Atom       -0.000000      0.000000      0.000000
     4   Atom        0.000000     -0.000000      0.000000
 --------------------------------------------------------


 ---------------------------------------------------------------------------------
              Anisotropic Spin Dipole Couplings in Principal Axis System
 ---------------------------------------------------------------------------------

       Atom             a.u.   MegaHertz   Gauss  10(-4) cm-1        Axes

              Baa    -0.0000     0.000     0.000     0.000  0.0000  0.0000  1.0000
     1 Si(29) Bbb     0.0000    -0.000    -0.000    -0.000  1.0000 -0.0000 -0.0000
              Bcc     0.0000    -0.000    -0.000    -0.000  0.0000  1.0000 -0.0000
 
              Baa    -0.0000     0.000     0.000     0.000  0.0004  1.0000  0.0000
     2 Si(29) Bbb    -0.0000     0.000     0.000     0.000  1.0000 -0.0004 -0.0000
              Bcc     0.0000    -0.000    -0.000    -0.000  0.0000 -0.0000  1.0000
 
              Baa    -0.0000    -0.000    -0.000    -0.000  1.0000  0.0000 -0.0003
     3 H(1)   Bbb    -0.0000    -0.000    -0.000    -0.000  0.0003 -0.0002  1.0000
              Bcc     0.0000     0.000     0.000     0.000 -0.0000  1.0000  0.0002
 
              Baa    -0.0000    -0.000    -0.000    -0.000 -0.0000  1.0000 -0.0001
     4 H(1)   Bbb     0.0000     0.000     0.000     0.000  0.0004  0.0001  1.0000
              Bcc     0.0000     0.000     0.000     0.000  1.0000  0.0000 -0.0004
 

 ---------------------------------------------------------------------------------

 No NMR shielding tensors so no spin-rotation constants.
 Leave Link  601 at Mon Apr 21 21:19:36 2025, MaxMem=   536870912 cpu:               2.0 elap:               0.3
 (Enter /home/szhao/Apps/g16/l9999.exe)
 1\1\GINC-NODE03\FOpt\UM062X\6-311+G(d,p)\H2Si2\SZHAO\21-Apr-2025\0\\#p
  opt UM062X/6-311+G** nosymm int=superfine\\Title Card Required\\0,1\S
 i,-1.753705,0.,0.\Si,1.753705,0.,0.\H,-3.2848783327,-0.0000115384,-0.0
 00000002\H,3.2848783447,0.00005619,0.0000000017\\Version=ES64L-G16RevA
 .03\HF=-579.8989196\S2=0.\S2-1=0.\S2A=0.\RMSD=9.305e-09\RMSF=2.121e-06
 \Dipole=-0.0000068,0.0000024,0.\Quadrupole=-0.8372161,4.615684,-3.7784
 679,-0.0001227,0.,0.0003656\PG=C*V [C*(H1Si1Si1H1)]\\@


 ERWIN WITH HIS PSI CAN DO
 CALCULATIONS QUITE A FEW.
 BUT ONE THING HAS NOT BEEN SEEN
 JUST WHAT DOES PSI REALLY MEAN.
 -- WALTER HUCKEL, TRANS. BY FELIX BLOCH
 Job cpu time:       0 days  0 hours  4 minutes 15.9 seconds.
 Elapsed time:       0 days  0 hours  0 minutes 37.8 seconds.
 File lengths (MBytes):  RWF=     22 Int=      0 D2E=      0 Chk=      2 Scr=      2
 Normal termination of Gaussian 16 at Mon Apr 21 21:19:37 2025.
