 running on   28 total cores
 distrk:  each k-point on   28 cores,    1 groups
 distr:  one band on   14 cores,    2 groups
 vasp.6.3.1 04May22 (build Aug 04 2022 13:02:54) complex                        
  
 POSCAR found type information on POSCAR C 
 POSCAR found :  1 types and       2 ions
 scaLAPACK will be used
 -----------------------------------------------------------------------------
|                                                                             |
|           W    W    AA    RRRRR   N    N  II  N    N   GGGG   !!!           |
|           W    W   A  A   R    R  NN   N  II  NN   N  G    G  !!!           |
|           W    W  A    A  R    R  N N  N  II  N N  N  G       !!!           |
|           W WW W  AAAAAA  RRRRR   N  N N  II  N  N N  G  GGG   !            |
|           WW  WW  A    A  R   R   N   NN  II  N   NN  G    G                |
|           W    W  A    A  R    R  N    N  II  N    N   GGGG   !!!           |
|                                                                             |
|     For optimal performance we recommend to set                             |
|       NCORE = 2 up to number-of-cores-per-socket                            |
|     NCORE specifies how many cores store one orbital (NPAR=cpu/NCORE).      |
|     This setting can greatly improve the performance of VASP for DFT.       |
|     The default, NCORE=1 might be grossly inefficient on modern             |
|     multi-core architectures or massively parallel machines. Do your        |
|     own testing! More info at https://www.vasp.at/wiki/index.php/NCORE      |
|     Unfortunately you need to use the default for GW and RPA                |
|     calculations (for HF NCORE is supported but not extensively tested      |
|     yet).                                                                   |
|                                                                             |
 -----------------------------------------------------------------------------

 LDA part: xc-table for Pade appr. of Perdew
 POSCAR, INCAR and KPOINTS ok, starting setup
 FFT: planning ... GRIDC
 FFT: planning ... GRID_SOFT
 FFT: planning ... GRID
 WAVECAR not read
 WARNING: random wavefunctions but no delay for mixing, default for NELMDL
 entering main loop
       N       E                     dE             d eps       ncg     rms          rms(c)
DAV:   1     0.429621332867E+02    0.42962E+02   -0.25386E+03  1184   0.653E+02
DAV:   2    -0.493153136595E+01   -0.47894E+02   -0.46428E+02  2208   0.932E+01
DAV:   3    -0.835171990956E+01   -0.34202E+01   -0.33509E+01  1600   0.386E+01
DAV:   4    -0.842352589741E+01   -0.71806E-01   -0.71646E-01  1952   0.566E+00
DAV:   5    -0.842406228357E+01   -0.53639E-03   -0.53523E-03  1752   0.369E-01    0.162E+00
DAV:   6    -0.842250465969E+01    0.15576E-02   -0.22033E-02  1832   0.109E+00    0.936E-01
DAV:   7    -0.842720500724E+01   -0.47003E-02   -0.24682E-02  1576   0.125E+00    0.172E-01
DAV:   8    -0.842754544514E+01   -0.34044E-03   -0.16729E-03  2096   0.286E-01    0.232E-02
DAV:   9    -0.842758869362E+01   -0.43248E-04   -0.20922E-05  1960   0.369E-02    0.126E-02
DAV:  10    -0.842761242734E+01   -0.23734E-04   -0.34927E-05  1624   0.319E-02    0.947E-03
DAV:  11    -0.842761409126E+01   -0.16639E-05   -0.14073E-05  2000   0.155E-02    0.174E-03
DAV:  12    -0.842761723393E+01   -0.31427E-05   -0.91974E-07  1264   0.842E-03    0.783E-04
DAV:  13    -0.842761844834E+01   -0.12144E-05   -0.96985E-08  2040   0.173E-03    0.355E-04
DAV:  14    -0.842762040536E+01   -0.19570E-05   -0.25377E-07  1336   0.177E-03    0.234E-04
DAV:  15    -0.842762101682E+01   -0.61146E-06   -0.75402E-08  1640   0.827E-04    0.195E-04
DAV:  16    -0.842762118690E+01   -0.17008E-06   -0.35155E-08  1704   0.651E-04    0.608E-05
DAV:  17    -0.842762118678E+01    0.12017E-09   -0.38441E-09   784   0.269E-04
   1 F= -.85555935E+01 E0= -.85548890E+01  d E =-.140897E-02
