Title Card Required                                                     
FOpt      UM062X                                                      6-311+G(d,p)        
Number of atoms                            I                4
Info1-9                                    I   N=           9
          13          13           0           0           0         110
           2          18        -502
Full Title                                 C   N=           2
Title Card Required     
Route                                      C   N=           4
#p opt UM062X/6-311+G** nosymm int=superfine    
Charge                                     I                0
Multiplicity                               I                1
Number of electrons                        I               26
Number of alpha electrons                  I               13
Number of beta electrons                   I               13
Number of basis functions                  I               64
Number of independent functions            I               64
Number of point charges in /Mol/           I                0
Number of translation vectors              I                0
Atomic numbers                             I   N=           4
           8          16           1           1
Nuclear charges                            R   N=           4
  8.00000000E+00  1.60000000E+01  1.00000000E+00  1.00000000E+00
Current cartesian coordinates              R   N=          12
 -2.33525800E+00 -3.32485427E-04  1.10336980E-03  2.33517296E+00  7.46335448E-04
 -1.23187118E-03 -2.42489825E+00  1.61774231E+00 -8.52103920E-01  2.16385441E+00
 -2.03606439E+00 -1.51357096E+00
Number of symbols in /Mol/                 I                0
Force Field                                I                0
Atom Types                                 C   N=           4
                                                
Int Atom Types                             I   N=           4
           0           0           0           0
MM charges                                 R   N=           4
  0.00000000E+00  0.00000000E+00  0.00000000E+00  0.00000000E+00
Integer atomic weights                     I   N=           4
          16          32           1           1
Real atomic weights                        R   N=           4
  1.59949146E+01  3.19720718E+01  1.00782504E+00  1.00782504E+00
Atom fragment info                         I   N=           4
           0           0           0           0
Atom residue num                           I   N=           4
           0           0           0           0
Nuclear spins                              I   N=           4
           0           0           1           1
Nuclear ZEff                               R   N=           4
 -5.60000000E+00 -1.36000000E+01 -1.00000000E+00 -1.00000000E+00
Nuclear ZNuc                               R   N=           4
  8.00000000E+00  1.60000000E+01  1.00000000E+00  1.00000000E+00
Nuclear QMom                               R   N=           4
  0.00000000E+00  0.00000000E+00  0.00000000E+00  0.00000000E+00
Nuclear GFac                               R   N=           4
  0.00000000E+00  0.00000000E+00  2.79284600E+00  2.79284600E+00
MicOpt                                     I   N=           4
          -2          -2          -1          -1
Number of residues                         I                0
Number of secondary structures             I                0
Redundant internal dimensions              I   N=           4
          17           9           4           4
Redundant internal coordinate indices      I   N=          68
           1          -1           0           0           1          -2
           0           0           1          -3           0           0
           2          -1           0           0           2          -2
           0           0           2          -3           0           0
           1           3           0           0           2           4
           0           0           3           4           0           0
           2           1           3           0           1           2
           4           0           1           3           4           0
           2           4           3           0           3           1
           2           4           2           1           3           4
           1           2           4           3           1           3
           4           2
Redundant internal coordinates             R   N=          17
 -2.33525800E+00 -3.32485427E-04  1.10336980E-03  2.33517296E+00  7.46335448E-04
 -1.23187118E-03  1.83143772E+00  2.54265953E+00  5.90292242E+00  1.61932364E+00
  1.50348017E+00  1.00899010E+00  1.03548106E+00 -2.01760728E+00  4.75713229E-01
  3.30933996E-01 -1.78622015E+00
ZRed-IntVec                                I   N=          17
          -1          -1          -1          -1          -1          -1
           0           0           0           0           0           0
           0           0           0           0           0
ZRed-FPVec                                 R   N=          17
  0.00000000E+00  0.00000000E+00  0.00000000E+00  0.00000000E+00  0.00000000E+00
  0.00000000E+00  0.00000000E+00  0.00000000E+00  0.00000000E+00  0.00000000E+00
  0.00000000E+00  0.00000000E+00  0.00000000E+00  0.00000000E+00  0.00000000E+00
  0.00000000E+00  0.00000000E+00
ZRed-Constraint1                           R   N=          17
 -2.33571850E+00 -3.32591798E-04  1.10360006E-03  2.33563346E+00  7.46441819E-04
 -1.23210143E-03  1.81683501E+00  2.52845542E+00  4.94045203E+00  1.58783958E+00
  1.63112440E+00  1.67850851E+00  1.35336628E+00 -2.72812437E-01  1.38893801E-01
  1.01635393E-01 -2.65004216E-01
ZRed-Constraint2                           R   N=          17
 -2.33571850E+00 -3.32591798E-04  1.10360006E-03  2.33563346E+00  7.46441819E-04
 -1.23210143E-03  0.00000000E+00  0.00000000E+00  0.00000000E+00  0.00000000E+00
  0.00000000E+00  0.00000000E+00  0.00000000E+00  0.00000000E+00  0.00000000E+00
  0.00000000E+00  0.00000000E+00
Number of contracted shells                I               27
Number of primitive shells                 I               49
Pure/Cartesian d shells                    I                0
Pure/Cartesian f shells                    I                0
Highest angular momentum                   I                2
Largest degree of contraction              I                6
Shell types                                I   N=          27
           0          -1          -1          -1          -1          -2
           0           0           0           0           0           0
          -1           1           1           1           1           1
          -2           0           0           0           1           0
           0           0           1
Number of primitives per shell             I   N=          27
           6           3           1           1           1           1
           6           3           1           1           1           1
           1           4           2           1           1           1
           1           3           1           1           1           3
           1           1           1
Shell to atom map                          I   N=          27
           1           1           1           1           1           1
           2           2           2           2           2           2
           2           2           2           2           2           2
           2           3           3           3           3           4
           4           4           4
Primitive exponents                        R   N=          49
  8.58850000E+03  1.29723000E+03  2.99296000E+02  8.73771000E+01  2.56789000E+01
  3.74004000E+00  4.21175000E+01  9.62837000E+00  2.85332000E+00  9.05661000E-01
  2.55611000E-01  8.45000000E-02  1.29200000E+00  9.34134000E+04  1.39617000E+04
  3.16991000E+03  9.02456000E+02  2.97158000E+02  1.08702000E+02  1.08702000E+02
  4.31553000E+01  1.81079000E+01  5.56009000E+00  2.13183000E+00  4.20403000E-01
  1.36045000E-01  4.05000000E-02  4.95040000E+02  1.17221000E+02  3.77749000E+01
  1.40584000E+01  5.56574000E+00  2.26297000E+00  8.07994000E-01  2.77460000E-01
  7.71410000E-02  6.50000000E-01  3.38650000E+01  5.09479000E+00  1.15879000E+00
  3.25840000E-01  1.02741000E-01  7.50000000E-01  3.38650000E+01  5.09479000E+00
  1.15879000E+00  3.25840000E-01  1.02741000E-01  7.50000000E-01
Contraction coefficients                   R   N=          49
  1.89515008E-03  1.43859006E-02  7.07320031E-02  2.40001011E-01  5.94797026E-01
  2.80802012E-01  1.13889012E-01  9.20811101E-01 -3.27447036E-03  1.00000000E+00
  1.00000000E+00  1.00000000E+00  1.00000000E+00  7.42999957E-04  5.79299966E-03
  2.99539983E-02  1.19027993E-01  3.68431979E-01  5.77298966E-01  1.43186060E-01
  6.24465262E-01  2.83366119E-01  1.00000000E+00  1.00000000E+00  1.00000000E+00
  1.00000000E+00  1.00000000E+00  8.30900251E-03  6.40240194E-02  2.77614084E-01
  7.45076225E-01  6.13711672E-01  4.43817763E-01  1.00000000E+00  1.00000000E+00
  1.00000000E+00  1.00000000E+00  2.54938145E-02  1.90373109E-01  8.52161486E-01
  1.00000000E+00  1.00000000E+00  1.00000000E+00  2.54938145E-02  1.90373109E-01
  8.52161486E-01  1.00000000E+00  1.00000000E+00  1.00000000E+00
P(S=P) Contraction coefficients            R   N=          49
  0.00000000E+00  0.00000000E+00  0.00000000E+00  0.00000000E+00  0.00000000E+00
  0.00000000E+00  3.65113974E-02  2.37152983E-01  8.19701941E-01  1.00000000E+00
  1.00000000E+00  1.00000000E+00  0.00000000E+00  0.00000000E+00  0.00000000E+00
  0.00000000E+00  0.00000000E+00  0.00000000E+00  0.00000000E+00  0.00000000E+00
  0.00000000E+00  0.00000000E+00  0.00000000E+00  0.00000000E+00  0.00000000E+00
  0.00000000E+00  1.00000000E+00  0.00000000E+00  0.00000000E+00  0.00000000E+00
  0.00000000E+00  0.00000000E+00  0.00000000E+00  0.00000000E+00  0.00000000E+00
  0.00000000E+00  0.00000000E+00  0.00000000E+00  0.00000000E+00  0.00000000E+00
  0.00000000E+00  0.00000000E+00  0.00000000E+00  0.00000000E+00  0.00000000E+00
  0.00000000E+00  0.00000000E+00  0.00000000E+00  0.00000000E+00
Coordinates of each shell                  R   N=          81
 -2.33525800E+00 -3.32485427E-04  1.10336980E-03 -2.33525800E+00 -3.32485427E-04
  1.10336980E-03 -2.33525800E+00 -3.32485427E-04  1.10336980E-03 -2.33525800E+00
 -3.32485427E-04  1.10336980E-03 -2.33525800E+00 -3.32485427E-04  1.10336980E-03
 -2.33525800E+00 -3.32485427E-04  1.10336980E-03  2.33517296E+00  7.46335448E-04
 -1.23187118E-03  2.33517296E+00  7.46335448E-04 -1.23187118E-03  2.33517296E+00
  7.46335448E-04 -1.23187118E-03  2.33517296E+00  7.46335448E-04 -1.23187118E-03
  2.33517296E+00  7.46335448E-04 -1.23187118E-03  2.33517296E+00  7.46335448E-04
 -1.23187118E-03  2.33517296E+00  7.46335448E-04 -1.23187118E-03  2.33517296E+00
  7.46335448E-04 -1.23187118E-03  2.33517296E+00  7.46335448E-04 -1.23187118E-03
  2.33517296E+00  7.46335448E-04 -1.23187118E-03  2.33517296E+00  7.46335448E-04
 -1.23187118E-03  2.33517296E+00  7.46335448E-04 -1.23187118E-03  2.33517296E+00
  7.46335448E-04 -1.23187118E-03 -2.42489825E+00  1.61774231E+00 -8.52103920E-01
 -2.42489825E+00  1.61774231E+00 -8.52103920E-01 -2.42489825E+00  1.61774231E+00
 -8.52103920E-01 -2.42489825E+00  1.61774231E+00 -8.52103920E-01  2.16385441E+00
 -2.03606439E+00 -1.51357096E+00  2.16385441E+00 -2.03606439E+00 -1.51357096E+00
  2.16385441E+00 -2.03606439E+00 -1.51357096E+00  2.16385441E+00 -2.03606439E+00
 -1.51357096E+00
Num ILSW                                   I              100
ILSW                                       I   N=         100
           1           0           0           0           2           0
           0           0           0           0        4336          -1
           7           0           0           0           2           0
           0           0           0           0           1           0
           1           1           0           0           0           0
           0           0      100000           0          -1           0
           0           0           0           0           0           0
           0           0           0           1           0           0
           0 -2000000000           1           0           0           0
           0           0           4          52           0           0
           0           0          55           0           0           0
           0           0           0           4           0           1
           0           0           0           0           0           0
           0           0           0           0           0           0
           0           0           0           0           0           0
           0           0           0           0           0           0
           0           0           0           0
Num RLSW                                   I               52
RLSW                                       R   N=          52
  1.00000000E+00  1.00000000E+00  1.00000000E+00  1.00000000E+00  5.40000000E-01
  0.00000000E+00  0.00000000E+00  1.00000000E+00  0.00000000E+00  0.00000000E+00
  0.00000000E+00  0.00000000E+00  1.00000000E+00  0.00000000E+00  0.00000000E+00
  0.00000000E+00  0.00000000E+00  1.00000000E+00  0.00000000E+00  0.00000000E+00
  0.00000000E+00  0.00000000E+00  1.00000000E+00  0.00000000E+00  0.00000000E+00
  0.00000000E+00  0.00000000E+00  1.00000000E+00  0.00000000E+00  0.00000000E+00
  0.00000000E+00  0.00000000E+00  1.00000000E+00  0.00000000E+00  0.00000000E+00
  0.00000000E+00  0.00000000E+00  0.00000000E+00  1.00000000E+00  1.00000000E+00
  0.00000000E+00  1.00000000E+00  0.00000000E+00  0.00000000E+00  0.00000000E+00
  0.00000000E+00  0.00000000E+00  0.00000000E+00  0.00000000E+00  0.00000000E+00
  0.00000000E+00  0.00000000E+00
MxBond                                     I                2
NBond                                      I   N=           4
           2           2           2           2
IBond                                      I   N=           8
           2           3           1           4           1           4
           2           3
RBond                                      R   N=           8
  1.00000000E-01  1.00000000E+00  1.00000000E-01  1.00000000E+00  1.00000000E+00
  1.00000000E-01  1.00000000E+00  1.00000000E-01
Virial Ratio                               R      2.002071970435414E+00
SCF Energy                                 R     -4.744677763708900E+02
Total Energy                               R     -4.744677763708900E+02
S**2                                       R      9.629985697756638E-11
S**2 after annihilation                    R      9.556799796433388E-13
RMS Force                                  R      1.529217843501023E-04
RMS Density                                R      6.766131820420283E-09
Job Status                                 I                1
Nuclear derivative order                   I                1
External E-field                           R   N=          35
  0.00000000E+00  0.00000000E+00  0.00000000E+00  0.00000000E+00  0.00000000E+00
  0.00000000E+00  0.00000000E+00  0.00000000E+00  0.00000000E+00  0.00000000E+00
  0.00000000E+00  0.00000000E+00  0.00000000E+00  0.00000000E+00  0.00000000E+00
  0.00000000E+00  0.00000000E+00  0.00000000E+00  0.00000000E+00  0.00000000E+00
  0.00000000E+00  0.00000000E+00  0.00000000E+00  0.00000000E+00  0.00000000E+00
  0.00000000E+00  0.00000000E+00  0.00000000E+00  0.00000000E+00  0.00000000E+00
  0.00000000E+00  0.00000000E+00  0.00000000E+00  0.00000000E+00  0.00000000E+00
IOpCl                                      I                1
IROHF                                      I                0
Alpha Orbital Energies                     R   N=          64
 -8.99733980E+01 -1.96740693E+01 -8.33368112E+00 -6.25586509E+00 -6.25217890E+00
 -6.24670554E+00 -1.09011452E+00 -8.30884165E-01 -5.29334636E-01 -4.91716136E-01
 -4.01181923E-01 -3.95295430E-01 -3.48067863E-01 -1.53281247E-01  1.55897292E-02
  4.09795693E-02  4.78231055E-02  5.69542754E-02  7.50017468E-02  1.51174336E-01
  1.95145396E-01  1.99994312E-01  2.15703365E-01  2.69015700E-01  3.14155531E-01
  3.40144736E-01  3.53131669E-01  4.03388864E-01  5.46856051E-01  6.13222752E-01
  7.17937485E-01  7.26510286E-01  7.94517575E-01  8.02872178E-01  9.75156536E-01
  1.04658537E+00  1.09018922E+00  1.13977692E+00  1.36434566E+00  1.39811531E+00
  1.40164352E+00  1.47125498E+00  1.50285122E+00  1.65118838E+00  1.66774370E+00
  1.78142439E+00  2.07022804E+00  2.09925778E+00  2.49245690E+00  2.55885650E+00
  2.89282830E+00  2.91992062E+00  3.17449621E+00  3.18835077E+00  3.85401159E+00
  5.05362031E+00  5.07562545E+00  5.52849660E+00  7.84681501E+00  1.74125938E+01
  1.74547587E+01  1.74604360E+01  4.98859379E+01  1.89110543E+02
Beta Orbital Energies                      R   N=          64
 -8.99733979E+01 -1.96740694E+01 -8.33368111E+00 -6.25586490E+00 -6.25217887E+00
 -6.24670551E+00 -1.09011500E+00 -8.30883861E-01 -5.29334913E-01 -4.91716030E-01
 -4.01182409E-01 -3.95296089E-01 -3.48067678E-01 -1.53281487E-01  1.55896787E-02
  4.09795233E-02  4.78230045E-02  5.69542592E-02  7.50017502E-02  1.51174292E-01
  1.95145395E-01  1.99994248E-01  2.15703342E-01  2.69015533E-01  3.14155479E-01
  3.40144687E-01  3.53131630E-01  4.03388859E-01  5.46855975E-01  6.13223074E-01
  7.17938005E-01  7.26510503E-01  7.94517766E-01  8.02872692E-01  9.75156744E-01
  1.04658525E+00  1.09018907E+00  1.13977665E+00  1.36434545E+00  1.39811527E+00
  1.40164351E+00  1.47125507E+00  1.50285143E+00  1.65118866E+00  1.66774390E+00
  1.78142522E+00  2.07022793E+00  2.09925797E+00  2.49245689E+00  2.55885655E+00
  2.89282752E+00  2.91992032E+00  3.17449558E+00  3.18835055E+00  3.85401124E+00
  5.05362006E+00  5.07562461E+00  5.52849627E+00  7.84681506E+00  1.74125940E+01
  1.74547592E+01  1.74604362E+01  4.98859380E+01  1.89110543E+02
Alpha MO coefficients                      R   N=        4096
 -4.27798107E-07  1.67720743E-06 -3.48373674E-06  6.44879478E-07 -5.40462140E-07
 -1.20989403E-05  4.35655493E-06 -3.80557967E-06  2.49340725E-06  3.35020378E-06
  1.83918634E-05  3.60970002E-06 -3.42427331E-06  1.90654999E-04  1.11303327E-04
  3.82786880E-05 -2.21261191E-05 -6.27906912E-06  3.12904108E-07 -1.25505070E-06
  8.93516313E-06 -4.10359141E-07  4.10787625E-01  6.54410978E-01  1.53517068E-02
 -4.35583204E-03  1.64557090E-03 -9.87756926E-04  9.00631212E-05 -6.08084366E-05
 -1.92273464E-05 -1.50417291E-05 -5.13342462E-05 -5.81455309E-05 -4.69132188E-05
  1.33112763E-05  1.98343570E-05  1.58064799E-05 -3.13663286E-06  3.56313436E-06
  1.80081692E-06 -2.68250758E-05 -1.33170753E-04 -9.82199382E-05  1.79068173E-04
  1.50127852E-04  1.14694877E-04  4.97867962E-06  4.22556446E-06  6.88505073E-05
 -5.07745322E-05  6.55783045E-06 -5.52372235E-06  1.58726856E-06 -9.19907670E-05
  2.04432021E-06 -6.30191686E-06  1.02560867E-06  2.04337933E-05 -1.85030006E-04
  2.62977500E-04 -1.38142954E-05 -1.35244469E-04 -1.00018713E-04  5.52858671E-01
  4.69682696E-01  5.34056880E-04  1.09745980E-03 -5.91928915E-04  8.08797155E-03
 -1.60797723E-04 -1.22324442E-04  6.49282025E-05 -3.28039117E-03 -1.16849895E-04
  2.06784018E-04 -1.01053425E-04  2.92934424E-03  4.93729747E-04  2.50500051E-04
 -1.41014489E-04 -1.40858640E-05  5.11966440E-06 -9.59551796E-05 -1.06903464E-04
 -1.10055950E-05  3.89785882E-08  8.78045025E-07 -6.02338842E-06  1.35085890E-05
 -7.17234760E-05  4.96051236E-06 -7.65195489E-04  4.42634135E-04  4.84233742E-05
 -4.51665127E-06  7.42930427E-06 -1.77016778E-07 -1.66559416E-08 -1.28040610E-05
 -3.25308424E-07 -1.69219930E-06  6.28298069E-05  7.92141811E-06  1.07420593E-05
 -6.00058128E-05 -5.33121999E-05 -4.75343802E-05  1.21675416E-04  1.47150996E-05
  4.27919140E-05 -1.76794681E-05  9.62032843E-06  2.50595800E-05  1.04052661E-05
  1.35385081E-05  8.32160955E-05 -9.43870335E-05 -8.88516237E-04 -1.36646456E-05
  3.86607431E-04 -2.05638167E-04  3.86534332E-05 -1.73285041E-04  1.71806480E-04
  5.48456250E-05 -3.60160035E-05 -2.29394124E-05 -3.59012007E-06  1.71738858E-06
 -4.56151599E-05  1.24147016E-05 -7.36314680E-06 -9.72461074E-05  2.50004872E-04
 -7.69246337E-05  4.68644581E-05 -6.87684647E-05  7.91793982E-05 -9.65676256E-05
  3.09367245E-05  2.47500965E-03  1.51694309E-03  5.89164341E-04 -3.38568072E-04
 -6.92630852E-05  7.32611588E-06  1.77364726E-05  1.42196415E-04 -1.30317164E-05
 -1.19761666E-01 -3.20485040E-01  5.16056541E-01  5.98878259E-01  4.32806607E-02
 -1.59337969E-02  1.82257716E-03 -8.49504704E-04 -2.10877926E-04 -1.75067597E-04
 -1.32685524E-03 -1.42322037E-03 -1.16721664E-03 -3.05863153E-03 -3.21338054E-03
 -2.63405366E-03 -3.55361242E-04 -2.99375393E-04 -2.67460535E-04 -3.08621592E-04
 -1.41430868E-03 -1.05282374E-03  2.29800538E-03  1.86575468E-03  1.44448636E-03
 -2.54179723E-04 -1.36722946E-05  1.01962469E-03 -1.87949959E-04 -6.97757313E-06
 -1.05156402E-04  3.41144255E-04 -1.44558454E-03  9.59044999E-05 -1.53683518E-04
  5.55990217E-05  9.76375428E-05 -1.68582138E-03  3.34536010E-03 -1.41669689E-04
 -1.27194586E-03 -9.39459089E-04 -1.93350727E-06 -2.13135919E-05 -6.62441060E-05
  1.38602213E-05 -6.45044323E-06  2.72100236E-04  2.78210488E-04 -7.55260599E-05
  3.68267085E-05 -7.89029740E-04 -8.10807770E-04 -4.54223525E-04  2.75500864E-04
  1.12295676E-03  9.25446307E-04  2.71249574E-04 -1.91390876E-04  7.60349349E-05
  1.50390179E-05  8.48267950E-05 -1.22966947E-05 -2.65498228E-05 -3.35978875E-04
 -9.21224023E-04  1.72539761E-03  1.33519499E-03  7.02476009E-05  6.06121506E-05
 -4.34674472E-04 -2.43393547E-03  4.22146067E-04  3.10740363E-04  3.68571926E-01
 -6.90469196E-02 -5.38316184E-02  6.89777811E-01 -1.29154832E-01 -1.00715012E-01
  5.35960136E-02 -9.99791237E-03 -7.77479276E-03 -7.69574630E-03  1.24351428E-03
  9.39728946E-04  4.97044935E-03 -8.31124020E-04 -6.02732359E-04  1.09869790E-04
 -2.69813999E-04  1.86145279E-04 -2.81240060E-04 -3.18986435E-04 -5.50453569E-05
  1.02672221E-03 -8.33108104E-04  1.93695041E-04 -1.98272356E-04  1.11975100E-04
  1.19262147E-04 -1.97363447E-04 -8.49007850E-05  1.10346369E-04 -1.71746923E-04
 -1.23468248E-04 -2.77051242E-07 -4.11628813E-06 -2.12142701E-05  7.48718105E-06
 -7.76267197E-08  5.20667188E-05  7.76734016E-05 -2.59906213E-05  1.20106561E-05
 -1.07130378E-04 -1.96242232E-04 -1.05078354E-04  8.29287889E-06 -6.96206230E-05
  1.39856047E-04 -1.07227286E-04  6.05276529E-05  1.46003089E-05  1.42456063E-06
  1.89934781E-05 -8.93007630E-06 -5.80826725E-06 -8.20025134E-04 -2.22035765E-03
  3.94037768E-03  3.94719691E-03 -7.06482790E-04 -2.61025546E-04 -5.81065263E-04
 -4.24708878E-04 -1.54614993E-03 -1.13151754E-03  8.76128330E-02  2.97881832E-01
  2.18224608E-01  1.63727294E-01  5.56425539E-01  4.07628862E-01  1.24442107E-02
  4.21823325E-02  3.09061913E-02 -1.72292523E-03 -5.47406936E-03 -4.01284993E-03
  1.04629808E-03  3.45858865E-03  2.53288030E-03 -1.53629154E-07 -2.45936859E-04
 -5.81550785E-04  3.01741546E-04 -3.25402368E-04 -3.56474829E-07  1.20205904E-04
  2.55240219E-04  3.37189749E-05 -6.24870329E-05  6.10065482E-06 -5.42035517E-04
 -1.52688213E-04  1.16782359E-03  1.15125766E-05  5.03680653E-04  3.67467419E-04
 -3.71196922E-07 -1.86047264E-06 -8.68067358E-07 -2.44185301E-06  2.65177672E-06
  2.24700951E-05  3.59235513E-06  3.37095561E-06 -3.22797350E-07 -1.17383391E-04
 -2.34071730E-05 -6.74340856E-05  7.14805126E-06  1.67160651E-04 -1.80350990E-05
  1.02898180E-04 -5.24150299E-05  2.23194365E-06  1.55557241E-06  1.33286764E-05
  9.95968278E-06 -5.99537936E-06 -4.21119364E-05 -1.14280896E-04  2.04104794E-04
  2.00301753E-04 -5.27167538E-05  4.14923626E-05  2.10979713E-05 -3.82810576E-05
  1.26144398E-03 -1.70599502E-03  2.56654322E-03 -2.25235461E-01  3.06419676E-01
  4.77215624E-03 -4.20014284E-01  5.71408765E-01  3.66178870E-04 -3.07300194E-02
  4.18095254E-02 -7.26451908E-05  4.13334099E-03 -5.63832781E-03  3.15096700E-05
 -2.41294222E-03  3.25128541E-03 -3.58234473E-04 -2.14069922E-04 -9.33053275E-05
 -1.92800128E-04  1.55397017E-04 -2.53816795E-05  2.42471978E-04 -2.95059756E-04
  4.95213163E-05 -1.34665981E-05 -1.60722363E-06 -1.57675577E-06 -2.20745869E-05
 -9.97284959E-06  1.66362687E-06 -6.21017480E-05  7.38599766E-05 -1.17666888E-01
 -1.93667145E-01  2.39650203E-03  4.08015689E-02 -2.19861167E-02  5.64639721E-01
  1.79646100E-03  6.63831117E-02 -3.57494378E-02  4.31801899E-01  1.66852304E-02
  2.81093351E-02 -1.60229072E-02 -3.42736374E-02 -1.25658353E-02 -7.55432658E-03
  3.88437760E-03 -5.43133491E-03  1.37729356E-04 -9.47441827E-03 -3.64676647E-03
 -1.51056345E-04  2.20163212E-03  6.23341056E-03 -1.28753805E-02 -2.40390731E-02
  4.05699659E-02  3.15493285E-02  1.00887455E-02 -6.51637525E-03 -5.50801626E-06
  1.78767358E-04  3.54524485E-03  1.80535081E-04  3.44881007E-04  6.86910227E-03
  3.79856101E-04  6.88589743E-04 -8.08625374E-03 -4.79454400E-04 -8.12103173E-04
 -2.07605041E-02 -1.42403514E-04 -1.30608513E-03 -4.46206626E-03 -9.04506739E-04
 -1.77353068E-03 -3.01122317E-03  5.04908356E-04  9.41752100E-04  4.57142675E-03
 -2.30537032E-04  1.09175600E-01  8.08836114E-02  2.17875504E-02  6.18112633E-04
 -2.05777885E-02  1.09311725E-02  4.15993112E-03  4.47340387E-03 -2.99560304E-03
 -6.97953798E-04  9.28149221E-04  6.55035941E-04  1.03917608E-02  1.73010128E-02
  1.79266634E-02 -8.78594400E-03  3.63290311E-03 -5.38148548E-02  2.66062171E-02
 -1.28199102E-02  5.41953438E-03 -3.24294843E-02  2.30810920E-02 -3.33966471E-03
  2.17929367E-04 -1.96731622E-02 -9.24892975E-03 -4.22684193E-03  2.51440532E-03
 -6.59634916E-04 -6.45044531E-04  8.27870897E-04  2.33295194E-03  7.91828087E-04
  3.31794266E-02  9.43114523E-02 -1.98198714E-01 -3.65296842E-01  6.60350866E-01
  4.12875856E-01 -6.86959835E-03  4.26040720E-03 -2.20009241E-03  4.41217843E-04
  9.12962892E-05  1.33077612E-02  1.03799153E-02  2.37249154E-04  2.65634980E-02
  2.06900748E-02 -4.65340749E-04 -3.70064760E-02 -2.85173654E-02  4.57566900E-03
 -4.95513960E-02 -4.00538033E-02 -9.89282413E-03 -5.09480411E-03 -8.40723278E-03
 -5.08848050E-03  4.84649422E-04  2.32504107E-02 -5.39910266E-03 -2.58891028E-04
 -1.43575148E-02 -2.14066013E-02  1.09247091E-02  1.09704010E-03  4.36935343E-03
 -2.31298516E-03  1.00937951E-01  1.30523431E-01  3.30131635E-03  2.99955290E-03
  1.83181464E-02  1.35148088E-02  3.79515428E-02  6.34363646E-02 -1.73041997E-02
  2.21177376E-01 -1.14156076E-01 -1.91283952E-01 -2.37513385E-02  3.16615092E-01
 -1.63414144E-01 -2.86351548E-01 -2.91628948E-02  2.15194652E-01 -1.09486645E-01
 -5.68041626E-02  3.82794812E-03  2.45063920E-02 -1.11910877E-02 -1.76160202E-03
 -4.37254800E-04 -1.27897956E-02 -1.40989259E-02  1.03653656E-03  1.97480446E-03
  5.63954849E-03 -1.20963607E-02 -2.20937788E-02  4.29990779E-02  2.99714849E-02
  5.95800862E-03 -3.91937900E-03 -4.69758966E-03  1.20211295E-03 -7.53679649E-03
 -6.94048114E-03  2.14966313E-03 -1.45198998E-02 -1.32849941E-02  4.10259857E-03
  1.91549788E-02  1.80097573E-02 -5.64134870E-03  4.56727278E-02  3.97646554E-02
 -1.28617320E-02  1.39600882E-02  1.50699064E-02 -9.20970504E-03  2.99238076E-03
  2.00310038E-03 -1.40659081E-03 -3.52570462E-03 -7.22557682E-03  1.64748830E-01
  2.59289167E-01  7.78214123E-02  4.00552338E-03 -2.69946677E-02  1.42082656E-02
 -4.28032263E-03 -4.99643468E-03 -1.05438018E-02  2.39741206E-03  4.20864138E-04
 -7.70493571E-04  4.51706502E-04  8.60149757E-04  2.90481632E-02  7.78321780E-04
  3.74758842E-02 -5.17898213E-03  4.22020492E-02  1.11232670E-03  5.40641952E-02
  1.25179849E-02  4.35190713E-02  1.29834294E-02  4.48919735E-02 -3.72729385E-03
  7.63357111E-03 -5.45523219E-03  8.68213861E-03 -1.88963620E-03  4.80409007E-04
  1.51987349E-03  1.52106627E-03  2.65045703E-03  1.15508800E-02  3.30054171E-02
 -7.09911352E-02 -1.29459766E-01  2.36658802E-01  2.89701240E-01  1.86851756E-02
  7.51365232E-04 -1.94164891E-02 -1.25327386E-02 -3.15172000E-03 -6.54632332E-02
 -4.85231189E-02 -6.17344843E-03 -1.27471058E-01 -9.44812834E-02  1.03634210E-02
  1.85671077E-01  1.37718396E-01  1.30019902E-02  3.23623463E-01  2.39705621E-01
  6.41356005E-03  8.98643571E-02  6.23187777E-02 -6.45591536E-03 -4.61390659E-03
 -4.03758877E-02  3.30198069E-02 -5.80776892E-03 -1.38959830E-02 -2.89724382E-02
  9.28254490E-03  3.61479157E-03  5.76660028E-03  1.16181853E-03 -1.56438518E-01
 -2.82063059E-01 -1.30873529E-01 -4.44945990E-03 -2.12811222E-02 -1.51885509E-02
 -7.27660342E-03 -1.24619757E-02 -1.25244799E-01  1.02038971E-01  2.20432529E-01
  4.45051775E-02 -1.84525732E-01  1.48549488E-01  3.21612161E-01  2.37826819E-02
 -1.88185680E-01  1.25437655E-01  2.99719516E-01 -7.17130660E-03 -3.44782179E-02
  3.48679664E-02  6.75829721E-02 -6.06196218E-03  5.46486981E-03  7.40965043E-03
 -7.39408964E-03 -5.32326802E-03  1.24965913E-03  3.56121118E-03 -7.58292670E-03
 -1.46898244E-02  3.48474488E-02 -3.13323765E-03  3.04104823E-03 -2.18088391E-02
  7.05514703E-03 -9.85424746E-03 -3.44647167E-02  1.41160554E-02 -7.93476171E-03
 -6.65038254E-02  2.74691727E-02 -1.50528015E-02  9.09683242E-02 -4.11470660E-02
  2.10115493E-02  2.06687798E-01 -7.26793659E-02  5.09103532E-02  9.01098076E-02
 -3.24601477E-02  4.12107620E-02  4.84920127E-03 -1.13766368E-02  4.92436481E-03
 -1.58686587E-02 -7.14051017E-03  2.14560737E-04  1.67439687E-02 -5.90708491E-03
 -1.41830450E-02  8.56051639E-03  2.72145222E-02  1.83500995E-02  3.76860927E-02
  2.59346906E-02  9.44798223E-03  1.69139378E-03  4.77161974E-03 -9.93818179E-03
 -1.70239913E-02 -1.68924420E-01 -1.02372622E-01 -1.43830456E-01  6.04677898E-02
 -2.49345793E-01 -1.49629248E-01 -2.09633035E-01  3.34987139E-02 -2.55704072E-01
 -1.49204494E-01 -1.87381541E-01  1.45865661E-02 -4.03978204E-02 -2.05414758E-02
 -4.53299265E-02  9.39294263E-03  3.28160465E-03 -2.82447899E-03  7.43240249E-05
 -8.89329688E-03  4.13256157E-03  1.18069318E-02 -2.54013246E-02 -4.72981594E-02
  9.59790153E-02  7.26906542E-02  2.10387786E-02 -3.47627081E-02 -1.02343647E-03