Title Card Required                                                     
Force     UM062X                                                      6-311+G(d,p)        
Number of atoms                            I                6
Info1-9                                    I   N=           9
          15          15           0           0           0         100
           5          18        -502
Full Title                                 C   N=           2
Title Card Required     
Route                                      C   N=           4
#p UM062X/6-311+G** force int=superfine         
Charge                                     I                0
Multiplicity                               I                1
Number of electrons                        I               16
Number of alpha electrons                  I                8
Number of beta electrons                   I                8
Number of basis functions                  I               68
Number of independent functions            I               68
Number of point charges in /Mol/           I                0
Number of translation vectors              I                0
Atomic numbers                             I   N=           6
           6           6           1           1           1           1
Nuclear charges                            R   N=           6
  6.00000000E+00  6.00000000E+00  1.00000000E+00  1.00000000E+00  1.00000000E+00
  1.00000000E+00
Current cartesian coordinates              R   N=          18
  7.02709366E-22  1.81633672E+00  0.00000000E+00 -2.22438266E-16 -1.81633672E+00
  0.00000000E+00  1.82822877E+00  2.71691216E+00  0.00000000E+00 -1.82822310E+00
  2.71688382E+00 -4.93038066E-32 -1.82822877E+00 -2.71691216E+00  0.00000000E+00
  1.82822310E+00 -2.71688382E+00  4.93038066E-32
Number of symbols in /Mol/                 I                0
Force Field                                I                0
Atom Types                                 C   N=           6
                                                            
            
Int Atom Types                             I   N=           6
           0           0           0           0           0           0
MM charges                                 R   N=           6
  0.00000000E+00  0.00000000E+00  0.00000000E+00  0.00000000E+00  0.00000000E+00
  0.00000000E+00
Integer atomic weights                     I   N=           6
          12          12           1           1           1           1
Real atomic weights                        R   N=           6
  1.20000000E+01  1.20000000E+01  1.00782504E+00  1.00782504E+00  1.00782504E+00
  1.00782504E+00
Atom fragment info                         I   N=           6
           0           0           0           0           0           0
Atom residue num                           I   N=           6
           0           0           0           0           0           0
Nuclear spins                              I   N=           6
           0           0           1           1           1           1
Nuclear ZEff                               R   N=           6
 -3.60000000E+00 -3.60000000E+00 -1.00000000E+00 -1.00000000E+00 -1.00000000E+00
 -1.00000000E+00
Nuclear ZNuc                               R   N=           6
  6.00000000E+00  6.00000000E+00  1.00000000E+00  1.00000000E+00  1.00000000E+00
  1.00000000E+00
Nuclear QMom                               R   N=           6
  0.00000000E+00  0.00000000E+00  0.00000000E+00  0.00000000E+00  0.00000000E+00
  0.00000000E+00
Nuclear GFac                               R   N=           6
  0.00000000E+00  0.00000000E+00  2.79284600E+00  2.79284600E+00  2.79284600E+00
  2.79284600E+00
MicOpt                                     I   N=           6
          -1          -1          -1          -1          -1          -1
Number of residues                         I                0
Number of secondary structures             I                0
SymInf integers                            I   N=          26
           2           4           1           1           1          -1
          -1           1           1           1          -1          -1
          -1          -1           0           0           0           0
           0           0           0           0           0           0
           0           0
RotTr to input orientation                 R   N=          12
 -3.39817558E-17 -1.00000000E+00 -2.95368394E-22 -1.00000000E+00  3.39816268E-17
 -1.22464680E-16  1.22464680E-16  2.95368394E-22 -1.00000000E+00  2.77555756E-17
  0.00000000E+00  0.00000000E+00
Number of contracted shells                I               28
Number of primitive shells                 I               50
Pure/Cartesian d shells                    I                0
Pure/Cartesian f shells                    I                0
Highest angular momentum                   I                2
Largest degree of contraction              I                6
Shell types                                I   N=          28
           0          -1          -1          -1          -1          -2
           0          -1          -1          -1          -1          -2
           0           0           0           1           0           0
           0           1           0           0           0           1
           0           0           0           1
Number of primitives per shell             I   N=          28
           6           3           1           1           1           1
           6           3           1           1           1           1
           3           1           1           1           3           1
           1           1           3           1           1           1
           3           1           1           1
Shell to atom map                          I   N=          28
           1           1           1           1           1           1
           2           2           2           2           2           2
           3           3           3           3           4           4
           4           4           5           5           5           5
           6           6           6           6
Primitive exponents                        R   N=          50
  4.56324000E+03  6.82024000E+02  1.54973000E+02  4.44553000E+01  1.30290000E+01
  1.82773000E+00  2.09642000E+01  4.80331000E+00  1.45933000E+00  4.83456000E-01
  1.45585000E-01  4.38000000E-02  6.26000000E-01  4.56324000E+03  6.82024000E+02
  1.54973000E+02  4.44553000E+01  1.30290000E+01  1.82773000E+00  2.09642000E+01
  4.80331000E+00  1.45933000E+00  4.83456000E-01  1.45585000E-01  4.38000000E-02
  6.26000000E-01  3.38650000E+01  5.09479000E+00  1.15879000E+00  3.25840000E-01
  1.02741000E-01  7.50000000E-01  3.38650000E+01  5.09479000E+00  1.15879000E+00
  3.25840000E-01  1.02741000E-01  7.50000000E-01  3.38650000E+01  5.09479000E+00
  1.15879000E+00  3.25840000E-01  1.02741000E-01  7.50000000E-01  3.38650000E+01
  5.09479000E+00  1.15879000E+00  3.25840000E-01  1.02741000E-01  7.50000000E-01
Contraction coefficients                   R   N=          50
  1.96665025E-03  1.52306019E-02  7.61269097E-02  2.60801033E-01  6.16462078E-01
  2.21006028E-01  1.14660081E-01  9.19999648E-01 -3.03068213E-03  1.00000000E+00
  1.00000000E+00  1.00000000E+00  1.00000000E+00  1.96665025E-03  1.52306019E-02
  7.61269097E-02  2.60801033E-01  6.16462078E-01  2.21006028E-01  1.14660081E-01
  9.19999648E-01 -3.03068213E-03  1.00000000E+00  1.00000000E+00  1.00000000E+00
  1.00000000E+00  2.54938145E-02  1.90373109E-01  8.52161486E-01  1.00000000E+00
  1.00000000E+00  1.00000000E+00  2.54938145E-02  1.90373109E-01  8.52161486E-01
  1.00000000E+00  1.00000000E+00  1.00000000E+00  2.54938145E-02  1.90373109E-01
  8.52161486E-01  1.00000000E+00  1.00000000E+00  1.00000000E+00  2.54938145E-02
  1.90373109E-01  8.52161486E-01  1.00000000E+00  1.00000000E+00  1.00000000E+00
P(S=P) Contraction coefficients            R   N=          50
  0.00000000E+00  0.00000000E+00  0.00000000E+00  0.00000000E+00  0.00000000E+00
  0.00000000E+00  4.02486927E-02  2.37593957E-01  8.15853851E-01  1.00000000E+00
  1.00000000E+00  1.00000000E+00  0.00000000E+00  0.00000000E+00  0.00000000E+00
  0.00000000E+00  0.00000000E+00  0.00000000E+00  0.00000000E+00  4.02486927E-02
  2.37593957E-01  8.15853851E-01  1.00000000E+00  1.00000000E+00  1.00000000E+00
  0.00000000E+00  0.00000000E+00  0.00000000E+00  0.00000000E+00  0.00000000E+00
  0.00000000E+00  0.00000000E+00  0.00000000E+00  0.00000000E+00  0.00000000E+00
  0.00000000E+00  0.00000000E+00  0.00000000E+00  0.00000000E+00  0.00000000E+00
  0.00000000E+00  0.00000000E+00  0.00000000E+00  0.00000000E+00  0.00000000E+00
  0.00000000E+00  0.00000000E+00  0.00000000E+00  0.00000000E+00  0.00000000E+00
Coordinates of each shell                  R   N=          84
  4.68472911E-22  1.81633672E+00  0.00000000E+00  4.68472911E-22  1.81633672E+00
  0.00000000E+00  4.68472911E-22  1.81633672E+00  0.00000000E+00  4.68472911E-22
  1.81633672E+00  0.00000000E+00  4.68472911E-22  1.81633672E+00  0.00000000E+00
  4.68472911E-22  1.81633672E+00  0.00000000E+00 -2.22438032E-16 -1.81633672E+00
 -2.20274904E-59 -2.22438032E-16 -1.81633672E+00 -2.20274904E-59 -2.22438032E-16
 -1.81633672E+00 -2.20274904E-59 -2.22438032E-16 -1.81633672E+00 -2.20274904E-59
 -2.22438032E-16 -1.81633672E+00 -2.20274904E-59 -2.22438032E-16 -1.81633672E+00
 -2.20274904E-59  1.82822877E+00  2.71691216E+00  1.28944355E-37  1.82822877E+00
  2.71691216E+00  1.28944355E-37  1.82822877E+00  2.71691216E+00  1.28944355E-37
  1.82822877E+00  2.71691216E+00  1.28944355E-37 -1.82822310E+00  2.71688382E+00
 -1.28943955E-37 -1.82822310E+00  2.71688382E+00 -1.28943955E-37 -1.82822310E+00
  2.71688382E+00 -1.28943955E-37 -1.82822310E+00  2.71688382E+00 -1.28943955E-37
 -1.82822877E+00 -2.71691216E+00  4.29814518E-38 -1.82822877E+00 -2.71691216E+00
  4.29814518E-38 -1.82822877E+00 -2.71691216E+00  4.29814518E-38 -1.82822877E+00
 -2.71691216E+00  4.29814518E-38  1.82822310E+00 -2.71688382E+00 -4.29813185E-38
  1.82822310E+00 -2.71688382E+00 -4.29813185E-38  1.82822310E+00 -2.71688382E+00
 -4.29813185E-38  1.82822310E+00 -2.71688382E+00 -4.29813185E-38
Num ILSW                                   I              100
ILSW                                       I   N=         100
           1           0           0           0           2           0
           0           0           0           0        4336          -1
           7           0           0           0           2           0
           0           0           0           0           1           0
           1           0           0           0           0           0
           0           0      100000           0          -1           0
           0           0           0           0           0           0
           0           0           0           1           0           0
           0 -2000000000           1           0           0           0
           0           0           4          52           0           0
           0           0          55           0           0           0
           0           0           0           6           0           1
           0           0           0           0           0           0
           0           0           0           0           0           0
           0           0           0           0           0           0
           0           0           0           0           0           0
           0           0           0           0
Num RLSW                                   I               52
RLSW                                       R   N=          52
  1.00000000E+00  1.00000000E+00  1.00000000E+00  1.00000000E+00  5.40000000E-01
  0.00000000E+00  0.00000000E+00  1.00000000E+00  0.00000000E+00  0.00000000E+00
  0.00000000E+00  0.00000000E+00  1.00000000E+00  0.00000000E+00  0.00000000E+00
  0.00000000E+00  0.00000000E+00  1.00000000E+00  0.00000000E+00  0.00000000E+00
  0.00000000E+00  0.00000000E+00  1.00000000E+00  0.00000000E+00  0.00000000E+00
  0.00000000E+00  0.00000000E+00  1.00000000E+00  0.00000000E+00  0.00000000E+00
  0.00000000E+00  0.00000000E+00  1.00000000E+00  0.00000000E+00  0.00000000E+00
  0.00000000E+00  0.00000000E+00  0.00000000E+00  1.00000000E+00  1.00000000E+00
  0.00000000E+00  1.00000000E+00  0.00000000E+00  0.00000000E+00  0.00000000E+00
  0.00000000E+00  0.00000000E+00  0.00000000E+00  0.00000000E+00  0.00000000E+00
  0.00000000E+00  0.00000000E+00
MxBond                                     I                2
NBond                                      I   N=           6
           2           2           1           1           1           1
IBond                                      I   N=          12
           3           4           5           6           1           0
           1           0           2           0           2           0
RBond                                      R   N=          12
  1.00000000E+00  1.00000000E+00  1.00000000E+00  1.00000000E+00  1.00000000E+00
  0.00000000E+00  1.00000000E+00  0.00000000E+00  1.00000000E+00  0.00000000E+00
  1.00000000E+00  0.00000000E+00
Virial Ratio                               R      2.012243069196478E+00
SCF Energy                                 R     -7.840316420577125E+01
Total Energy                               R     -7.840316420577125E+01
S**2                                       R     -1.421085471520200E-14
S**2 after annihilation                    R      8.881784197001166E-15
RMS Force                                  R      5.680187114736610E-02
RMS Density                                R      4.443819310992139E-09
Job Status                                 I                1
Nuclear derivative order                   I                1
External E-field                           R   N=          35
  0.00000000E+00  0.00000000E+00  0.00000000E+00  0.00000000E+00  0.00000000E+00
  0.00000000E+00  0.00000000E+00  0.00000000E+00  0.00000000E+00  0.00000000E+00
  0.00000000E+00  0.00000000E+00  0.00000000E+00  0.00000000E+00  0.00000000E+00
  0.00000000E+00  0.00000000E+00  0.00000000E+00  0.00000000E+00  0.00000000E+00
  0.00000000E+00  0.00000000E+00  0.00000000E+00  0.00000000E+00  0.00000000E+00
  0.00000000E+00  0.00000000E+00  0.00000000E+00  0.00000000E+00  0.00000000E+00
  0.00000000E+00  0.00000000E+00  0.00000000E+00  0.00000000E+00  0.00000000E+00
IOpCl                                      I                1
IROHF                                      I                0
Alpha Orbital Energies                     R   N=          68
 -1.06050991E+01 -1.06049350E+01 -7.80177570E-01 -7.09514006E-01 -5.29488304E-01
 -4.91276601E-01 -3.92009782E-01 -2.67262491E-01 -5.65921483E-02  2.52780469E-02
  3.36289235E-02  5.39412661E-02  7.41328285E-02  8.97781262E-02  9.83299647E-02
  1.14802461E-01  1.16280226E-01  1.54875934E-01  1.65189263E-01  2.11599158E-01
  2.11825115E-01  2.84000325E-01  4.00042874E-01  4.38788302E-01  4.56256546E-01
  5.91728783E-01  6.18682888E-01  6.24765776E-01  6.53720763E-01  6.88943521E-01
  7.01205628E-01  7.49976573E-01  7.69126284E-01  8.27901444E-01  1.07866876E+00
  1.10379914E+00  1.13144570E+00  1.25715890E+00  1.40954529E+00  1.43838084E+00
  1.50201238E+00  1.50828193E+00  1.53225768E+00  1.63349568E+00  1.73802889E+00
  1.82180394E+00  1.87476280E+00  1.90253606E+00  1.96365629E+00  1.97920228E+00
  2.05925344E+00  2.06665120E+00  2.36566393E+00  2.52746277E+00  2.58218609E+00
  2.59595373E+00  2.61748177E+00  2.62855457E+00  2.69422707E+00  2.72446486E+00
  2.75763513E+00  2.78374006E+00  2.80651626E+00  3.56097557E+00  3.72460673E+00
  3.76843423E+00  2.38093023E+01  2.38503841E+01
Beta Orbital Energies                      R   N=          68
 -1.06050991E+01 -1.06049350E+01 -7.80177570E-01 -7.09514006E-01 -5.29488304E-01
 -4.91276601E-01 -3.92009782E-01 -2.67262491E-01 -5.65921483E-02  2.52780469E-02
  3.36289235E-02  5.39412661E-02  7.41328285E-02  8.97781262E-02  9.83299647E-02
  1.14802461E-01  1.16280226E-01  1.54875934E-01  1.65189263E-01  2.11599158E-01
  2.11825115E-01  2.84000325E-01  4.00042874E-01  4.38788302E-01  4.56256546E-01
  5.91728783E-01  6.18682888E-01  6.24765776E-01  6.53720763E-01  6.88943521E-01
  7.01205628E-01  7.49976573E-01  7.69126284E-01  8.27901444E-01  1.07866876E+00
  1.10379914E+00  1.13144570E+00  1.25715890E+00  1.40954529E+00  1.43838084E+00
  1.50201238E+00  1.50828193E+00  1.53225768E+00  1.63349568E+00  1.73802889E+00
  1.82180394E+00  1.87476280E+00  1.90253606E+00  1.96365629E+00  1.97920228E+00
  2.05925344E+00  2.06665120E+00  2.36566393E+00  2.52746277E+00  2.58218609E+00
  2.59595373E+00  2.61748177E+00  2.62855457E+00  2.69422707E+00  2.72446486E+00
  2.75763513E+00  2.78374006E+00  2.80651626E+00  3.56097557E+00  3.72460673E+00
  3.76843423E+00  2.38093023E+01  2.38503841E+01
Alpha MO coefficients                      R   N=        4624
  3.98974665E-01  3.28062077E-01  1.33379762E-08 -3.48275179E-04  0.00000000E+00
  8.18725120E-03 -1.12585414E-07  1.35907849E-03  0.00000000E+00 -1.98420938E-03
 -8.76412411E-09  5.09922893E-05  0.00000000E+00 -5.56968453E-04  2.99352320E-08
 -4.48137822E-04  0.00000000E+00 -8.66191123E-04  0.00000000E+00  0.00000000E+00
  9.61134695E-04 -2.23026517E-08  3.98974665E-01  3.28062077E-01 -1.33379762E-08
  3.48275179E-04  0.00000000E+00  8.18725120E-03  1.12585414E-07 -1.35907849E-03
  0.00000000E+00 -1.98420938E-03  8.76412411E-09 -5.09922893E-05  0.00000000E+00
 -5.56968453E-04 -2.99352320E-08  4.48137822E-04  0.00000000E+00 -8.66191123E-04
  0.00000000E+00  0.00000000E+00  9.61134695E-04 -2.23026517E-08  1.24617607E-04
 -2.37391844E-03  1.50534693E-03  1.30686133E-03  7.03170223E-04  0.00000000E+00
  1.24595088E-04 -2.37408503E-03  1.50544345E-03 -1.30693756E-03  7.03190697E-04
  0.00000000E+00  1.24617607E-04 -2.37391844E-03  1.50534693E-03 -1.30686133E-03
 -7.03170223E-04  0.00000000E+00  1.24595088E-04 -2.37408503E-03  1.50544345E-03
  1.30693756E-03 -7.03190697E-04  0.00000000E+00  3.98990799E-01  3.28117393E-01
  1.20597217E-08 -3.80256099E-04  0.00000000E+00  8.19576228E-03 -1.09421849E-07
  1.80996332E-03  0.00000000E+00 -3.41203319E-03  1.46899587E-08  5.15720052E-04
  0.00000000E+00  1.08347830E-03  1.73425000E-08 -1.02187552E-03  0.00000000E+00
 -7.85366381E-04  0.00000000E+00  0.00000000E+00  1.12415839E-03 -2.56111325E-08
 -3.98990799E-01 -3.28117393E-01  1.20597217E-08 -3.80256099E-04  0.00000000E+00
 -8.19576228E-03 -1.09421849E-07  1.80996332E-03  0.00000000E+00  3.41203319E-03
  1.46899587E-08  5.15720052E-04  0.00000000E+00 -1.08347830E-03  1.73425000E-08
 -1.02187552E-03  0.00000000E+00  7.85366381E-04  0.00000000E+00  0.00000000E+00
 -1.12415839E-03  2.56111325E-08  9.21376642E-05 -2.23281472E-03  1.68484708E-03
  1.32615354E-03  6.48144102E-04  0.00000000E+00  9.21115926E-05 -2.23295769E-03
  1.68495313E-03 -1.32622946E-03  6.48161408E-04  0.00000000E+00 -9.21376642E-05
  2.23281472E-03 -1.68484708E-03  1.32615354E-03  6.48144102E-04  0.00000000E+00
 -9.21115926E-05  2.23295769E-03 -1.68495313E-03 -1.32622946E-03  6.48161408E-04
  0.00000000E+00 -7.84555778E-02 -1.26416782E-01 -1.05183215E-06  6.47991846E-03
  0.00000000E+00  3.38046270E-01 -1.01354913E-06  1.52009446E-03  0.00000000E+00
  2.30302463E-01 -2.82521705E-07 -8.96663823E-05  0.00000000E+00  2.81078448E-03
 -4.28461940E-09  4.24834778E-03  0.00000000E+00 -8.99594243E-03  0.00000000E+00
  0.00000000E+00 -3.94468931E-04 -8.20599492E-09 -7.84555778E-02 -1.26416782E-01
  1.05183215E-06 -6.47991846E-03  0.00000000E+00  3.38046270E-01  1.01354913E-06
 -1.52009446E-03  0.00000000E+00  2.30302463E-01  2.82521705E-07  8.96663823E-05
  0.00000000E+00  2.81078448E-03  4.28461940E-09 -4.24834778E-03  0.00000000E+00
 -8.99594243E-03  0.00000000E+00  0.00000000E+00 -3.94468931E-04 -8.20599492E-09
  7.12377664E-02  8.18208489E-02  3.89036492E-03 -1.09670945E-02 -4.67339413E-03
  0.00000000E+00  7.12395305E-02  8.18224715E-02  3.89043074E-03  1.09673765E-02
 -4.67339701E-03  0.00000000E+00  7.12377664E-02  8.18208489E-02  3.89036492E-03
  1.09670945E-02  4.67339413E-03  0.00000000E+00  7.12395305E-02  8.18224715E-02
  3.89043074E-03 -1.09673765E-02  4.67339701E-03  0.00000000E+00 -7.38289928E-02
 -1.19285197E-01 -1.62154540E-06  5.20266056E-02  0.00000000E+00  3.24215026E-01
 -1.82091990E-06  7.61215811E-02  0.00000000E+00  2.26830481E-01 -7.07333404E-07
  3.63414207E-02  0.00000000E+00 -2.63367475E-02 -1.56357577E-09  1.21524805E-02
  0.00000000E+00 -6.52319887E-03  0.00000000E+00  0.00000000E+00  9.59194016E-03
  9.44768409E-09  7.38289928E-02  1.19285197E-01 -1.62154540E-06  5.20266056E-02
  0.00000000E+00 -3.24215026E-01 -1.82091990E-06  7.61215811E-02  0.00000000E+00
 -2.26830481E-01 -7.07333404E-07  3.63414207E-02  0.00000000E+00  2.63367475E-02
 -1.56357577E-09  1.21524805E-02  0.00000000E+00  6.52319887E-03  0.00000000E+00
  0.00000000E+00 -9.59194016E-03 -9.44768409E-09  8.59311942E-02  1.03555422E-01
  1.26997688E-02 -1.23242918E-02 -3.14258189E-03  0.00000000E+00  8.59334224E-02
  1.03557538E-01  1.26999752E-02  1.23245829E-02 -3.14256995E-03  0.00000000E+00
 -8.59311942E-02 -1.03555422E-01 -1.26997688E-02 -1.23242918E-02 -3.14258189E-03
  0.00000000E+00 -8.59334224E-02 -1.03557538E-01 -1.26999752E-02  1.23245829E-02
 -3.14256995E-03  0.00000000E+00 -4.69770169E-07 -7.87280145E-07  1.48087736E-01
  7.54782402E-07  0.00000000E+00  2.29173788E-06  2.06954675E-01  1.23817672E-06
  0.00000000E+00  2.90726031E-06  1.21596086E-01  7.53445078E-07  0.00000000E+00
 -9.07072248E-07  4.20659667E-03  5.01950118E-07  0.00000000E+00 -1.82935776E-08
  0.00000000E+00  0.00000000E+00 -1.61947159E-07  9.56190133E-03  4.69770169E-07
  7.87280145E-07  1.48087736E-01  7.54782402E-07  0.00000000E+00 -2.29173788E-06
  2.06954675E-01  1.23817672E-06  0.00000000E+00 -2.90726031E-06  1.21596086E-01
  7.53445078E-07  0.00000000E+00  9.07072248E-07  4.20659667E-03  5.01950118E-07
  0.00000000E+00  1.82935776E-08  0.00000000E+00  0.00000000E+00  1.61947159E-07
 -9.56190133E-03  1.05416274E-01  1.44954828E-01  4.18230780E-02 -9.60257029E-03
 -7.39228763E-03  0.00000000E+00 -1.05415602E-01 -1.44952905E-01 -4.18224698E-02
 -9.60244308E-03  7.39212034E-03  0.00000000E+00 -1.05416274E-01 -1.44954828E-01
 -4.18230780E-02 -9.60257029E-03 -7.39228763E-03  0.00000000E+00  1.05415602E-01
  1.44952905E-01  4.18224698E-02 -9.60244308E-03  7.39212034E-03  0.00000000E+00
 -2.93821298E-07 -5.06152050E-07  1.51474114E-01  5.24222105E-07  0.00000000E+00
  1.53092967E-06  2.08564292E-01  9.50920162E-07  0.00000000E+00  2.56654331E-06
  1.28431347E-01  5.75584972E-07  0.00000000E+00  2.93270813E-07  1.13646195E-02
  1.28955760E-07  0.00000000E+00 -9.83421093E-09  0.00000000E+00  0.00000000E+00
 -1.80214145E-07  2.04196848E-02 -2.93821298E-07 -5.06152050E-07 -1.51474114E-01
 -5.24222105E-07  0.00000000E+00  1.53092967E-06 -2.08564292E-01 -9.50920162E-07
  0.00000000E+00  2.56654331E-06 -1.28431347E-01 -5.75584972E-07  0.00000000E+00
  2.93270813E-07 -1.13646195E-02 -1.28955760E-07  0.00000000E+00 -9.83421093E-09
  0.00000000E+00  0.00000000E+00 -1.80214145E-07  2.04196848E-02  1.12749131E-01
  1.61576247E-01  5.39228031E-02 -9.45726021E-03 -7.78564141E-03  0.00000000E+00
 -1.12748850E-01 -1.61574873E-01 -5.39224250E-02 -9.45725829E-03  7.78552098E-03
  0.00000000E+00  1.12749131E-01  1.61576247E-01  5.39228031E-02  9.45726021E-03
  7.78564141E-03  0.00000000E+00 -1.12748850E-01 -1.61574873E-01 -5.39224250E-02
  9.45725829E-03 -7.78552098E-03  0.00000000E+00  1.31458555E-02  2.19666736E-02
 -1.20771628E-06  1.74093632E-01  0.00000000E+00 -6.09471393E-02 -1.49318333E-06
  2.68225728E-01  0.00000000E+00 -9.52202932E-02 -1.02788563E-06  2.02507207E-01
  0.00000000E+00 -2.78588173E-03  7.82262915E-08  1.48102838E-02  0.00000000E+00
  1.12835872E-05  0.00000000E+00  0.00000000E+00  1.40181734E-02 -8.64545068E-08
  1.31458555E-02  2.19666736E-02  1.20771628E-06 -1.74093632E-01  0.00000000E+00
 -6.09471393E-02  1.49318333E-06 -2.68225728E-01  0.00000000E+00 -9.52202932E-02
  1.02788563E-06 -2.02507207E-01  0.00000000E+00 -2.78588173E-03 -7.82262915E-08
 -1.48102838E-02  0.00000000E+00  1.12835872E-05  0.00000000E+00  0.00000000E+00
  1.40181734E-02 -8.64545068E-08  5.79503119E-02  8.95622325E-02  4.41582025E-02
 -8.27238583E-03  6.90716703E-03  0.00000000E+00  5.79506888E-02  8.95623891E-02
  4.41584928E-02  8.27235756E-03  6.90733189E-03  0.00000000E+00  5.79503119E-02
  8.95622325E-02  4.41582025E-02  8.27238583E-03 -6.90716703E-03  0.00000000E+00
  5.79506888E-02  8.95623891E-02  4.41584928E-02 -8.27235756E-03 -6.90733189E-03
  0.00000000E+00  0.00000000E+00  0.00000000E+00  0.00000000E+00  0.00000000E+00
  1.71115842E-01  0.00000000E+00  0.00000000E+00  0.00000000E+00  2.67934818E-01
  0.00000000E+00  0.00000000E+00  0.00000000E+00  2.93700423E-01  0.00000000E+00
  0.00000000E+00  0.00000000E+00  5.67198046E-02  0.00000000E+00 -5.41373215E-08
 -8.30906560E-03  0.00000000E+00  0.00000000E+00  0.00000000E+00  0.00000000E+00
  0.00000000E+00  0.00000000E+00  1.71115842E-01  0.00000000E+00  0.00000000E+00
  0.00000000E+00  2.67934818E-01  0.00000000E+00  0.00000000E+00  0.00000000E+00
  2.93700423E-01  0.00000000E+00  0.00000000E+00  0.00000000E+00  5.67198046E-02
  0.00000000E+00  5.41373215E-08  8.30906560E-03  0.00000000E+00  0.00000000E+00
  0.00000000E+00  0.00000000E+00  0.00000000E+00  0.00000000E+00  0.00000000E+00
  1.42375594E-02  0.00000000E+00  0.00000000E+00  0.00000000E+00  0.00000000E+00
  0.00000000E+00  1.42376786E-02  0.00000000E+00  0.00000000E+00  0.00000000E+00
  0.00000000E+00  0.00000000E+00  1.42375594E-02  0.00000000E+00  0.00000000E+00
  0.00000000E+00  0.00000000E+00  0.00000000E+00  1.42376786E-02  0.00000000E+00
  0.00000000E+00  0.00000000E+00  0.00000000E+00  1.83671222E-01  0.00000000E+00
  0.00000000E+00  0.00000000E+00  2.80778744E-01  0.00000000E+00  0.00000000E+00
  0.00000000E+00  3.71788897E-01  0.00000000E+00  0.00000000E+00  0.00000000E+00
  2.92730724E-01  0.00000000E+00 -5.45771482E-08  1.87973389E-02  0.00000000E+00
  0.00000000E+00  0.00000000E+00  0.00000000E+00  0.00000000E+00  0.00000000E+00
 -1.83671222E-01  0.00000000E+00  0.00000000E+00  0.00000000E+00 -2.80778744E-01
  0.00000000E+00  0.00000000E+00  0.00000000E+00 -3.71788897E-01  0.00000000E+00
  0.00000000E+00  0.00000000E+00 -2.92730724E-01  0.00000000E+00 -5.45771482E-08
  1.87973389E-02  0.00000000E+00  0.00000000E+00  0.00000000E+00  0.00000000E+00
  0.00000000E+00  0.00000000E+00  0.00000000E+00  1.91586941E-02  0.00000000E+00
  0.00000000E+00  0.00000000E+00  0.00000000E+00  0.00000000E+00  1.91587435E-02
  0.00000000E+00  0.00000000E+00  0.00000000E+00  0.00000000E+00  0.00000000E+00
 -1.91586941E-02  0.00000000E+00  0.00000000E+00  0.00000000E+00  0.00000000E+00
  0.00000000E+00 -1.91587435E-02 -3.61379672E-02 -6.10346254E-02  8.19788560E-07
 -5.56706400E-02  0.00000000E+00  1.84364964E-01  8.32682424E-07 -9.11307372E-02
  0.00000000E+00  3.72084220E-01  3.42085202E-06 -7.68319457E-02  0.00000000E+00
  2.73006995E+00  2.91208134E-06 -1.82070735E+00  0.00000000E+00  4.19102618E-03
  0.00000000E+00  0.00000000E+00  1.77954702E-02 -1.77991007E-07  3.61379672E-02
  6.10346254E-02  8.19788560E-07 -5.56706400E-02  0.00000000E+00 -1.84364964E-01
  8.32682424E-07 -9.11307372E-02  0.00000000E+00 -3.72084220E-01  3.42085202E-06
 -7.68319457E-02  0.00000000E+00 -2.73006995E+00  2.91208134E-06 -1.82070735E+00
  0.00000000E+00 -4.19102618E-03  0.00000000E+00  0.00000000E+00 -1.77954702E-02
  1.77991007E-07 -3.08895361E-03 -6.56074234E-02  6.96796456E-02  4.56916274E-04
 -1.28499681E-02  0.00000000E+00 -3.08811282E-03 -6.56054662E-02  6.96868058E-02
 -4.56979859E-04 -1.28496811E-02  0.00000000E+00  3.08895361E-03  6.56074234E-02
 -6.96796456E-02  4.56916274E-04 -1.28499681E-02  0.00000000E+00  3.08811282E-03
  6.56054662E-02 -6.96868058E-02 -4.56979859E-04 -1.28496811E-02  0.00000000E+00
  2.14167298E-02  3.61141574E-02 -3.96598572E-07 -3.42383463E-02  0.00000000E+00
 -9.61761329E-02  1.59574164E-07 -5.09908679E-02  0.00000000E+00 -3.83171176E-01
  3.27237764E-07 -1.14287906E-01  0.00000000E+00  1.17801424E+00  6.18595012E-06
  5.16293996E-01  0.00000000E+00  1.41841173E-02  0.00000000E+00  0.00000000E+00
 -9.44043765E-03  5.78876184E-08  2.14167298E-02  3.61141574E-02  3.96598572E-07
  3.42383463E-02  0.00000000E+00 -9.61761329E-02 -1.59574164E-07  5.09908679E-02
  0.00000000E+00 -3.83171176E-01 -3.27237764E-07  1.14287906E-01  0.00000000E+00
  1.17801424E+00 -6.18595012E-06 -5.16293996E-01  0.00000000E+00  1.41841173E-02
  0.00000000E+00  0.00000000E+00 -9.44043765E-03  5.78876184E-08 -1.74447093E-02
  8.71293201E-02 -3.28320857E-01  1.39834689E-03  1.99270905E-04  0.00000000E+00
 -1.74446318E-02  8.71307839E-02 -3.28316989E-01 -1.39784847E-03  1.98892226E-04
  0.00000000E+00 -1.74447093E-02  8.71293201E-02 -3.28320857E-01 -1.39834689E-03
 -1.99270905E-04  0.00000000E+00 -1.74446318E-02  8.71307839E-02 -3.28316989E-01
  1.39784847E-03 -1.98892226E-04  0.00000000E+00  1.30704667E-07  1.74401345E-07
 -5.24351953E-02 -3.29722857E-07  0.00000000E+00  1.13690835E-07 -9.07601908E-02
 -8.84516163E-08  0.00000000E+00 -4.84084925E-06 -1.67411163E-01 -3.74616287E-06
  0.00000000E+00 -6.10568154E-05  8.66912667E-01  2.43398074E-05  0.00000000E+00
 -2.16263968E-07  0.00000000E+00  0.00000000E+00  3.41113356E-07 -1.69880823E-02
 -1.30704667E-07 -1.74401345E-07 -5.24351953E-02 -3.29722857E-07  0.00000000E+00
 -1.13690835E-07 -9.07601908E-02 -8.84516163E-08  0.00000000E+00  4.84084925E-06
 -1.67411163E-01 -3.74616287E-06  0.00000000E+00  6.10568154E-05  8.66912667E-01
  2.43398074E-05  0.00000000E+00  2.16263968E-07  0.00000000E+00  0.00000000E+00
 -3.41113356E-07  1.69880823E-02 -2.46791190E-02  8.11387332E-02 -4.44838193E-01
  2.63924205E-03  7.41485626E-05  0.00000000E+00  2.46797062E-02 -8.11396800E-02
  4.44853456E-01  2.63889945E-03 -7.39825864E-05  0.00000000E+00  2.46791190E-02