 Entering Gaussian System, Link 0=g16
 Initial command:
 /home/szhao/Apps/g16/l1.exe "/home/szhao/tmp/Gau-160225.inp" -scrdir="/home/szhao/tmp/"
 Default is to use a total of  16 processors:
                               16 via shared-memory
                                1 via Linda
 Entering Link 1 = /home/szhao/Apps/g16/l1.exe PID=    160240.
  
 Copyright (c) 1988,1990,1992,1993,1995,1998,2003,2009,2016,
            Gaussian, Inc.  All Rights Reserved.
  
 This is part of the Gaussian(R) 16 program.  It is based on
 the Gaussian(R) 09 system (copyright 2009, Gaussian, Inc.),
 the Gaussian(R) 03 system (copyright 2003, Gaussian, Inc.),
 the Gaussian(R) 98 system (copyright 1998, Gaussian, Inc.),
 the Gaussian(R) 94 system (copyright 1995, Gaussian, Inc.),
 the Gaussian 92(TM) system (copyright 1992, Gaussian, Inc.),
 the Gaussian 90(TM) system (copyright 1990, Gaussian, Inc.),
 the Gaussian 88(TM) system (copyright 1988, Gaussian, Inc.),
 the Gaussian 86(TM) system (copyright 1986, Carnegie Mellon
 University), and the Gaussian 82(TM) system (copyright 1983,
 Carnegie Mellon University). Gaussian is a federally registered
 trademark of Gaussian, Inc.
  
 This software contains proprietary and confidential information,
 including trade secrets, belonging to Gaussian, Inc.
  
 This software is provided under written license and may be
 used, copied, transmitted, or stored only in accord with that
 written license.
  
 The following legend is applicable only to US Government
 contracts under FAR:
  
                    RESTRICTED RIGHTS LEGEND
  
 Use, reproduction and disclosure by the US Government is
 subject to restrictions as set forth in subparagraphs (a)
 and (c) of the Commercial Computer Software - Restricted
 Rights clause in FAR 52.227-19.
  
 Gaussian, Inc.
 340 Quinnipiac St., Bldg. 40, Wallingford CT 06492
  
  
 ---------------------------------------------------------------
 Warning -- This program may not be used in any manner that
 competes with the business of Gaussian, Inc. or will provide
 assistance to any competitor of Gaussian, Inc.  The licensee
 of this program is prohibited from giving any competitor of
 Gaussian, Inc. access to this program.  By using this program,
 the user acknowledges that Gaussian, Inc. is engaged in the
 business of creating and licensing software in the field of
 computational chemistry and represents and warrants to the
 licensee that it is not a competitor of Gaussian, Inc. and that
 it will not use this program in any manner prohibited above.
 ---------------------------------------------------------------
  

 Cite this work as:
 Gaussian 16, Revision A.03,
 M. J. Frisch, G. W. Trucks, H. B. Schlegel, G. E. Scuseria, 
 M. A. Robb, J. R. Cheeseman, G. Scalmani, V. Barone, 
 G. A. Petersson, H. Nakatsuji, X. Li, M. Caricato, A. V. Marenich, 
 J. Bloino, B. G. Janesko, R. Gomperts, B. Mennucci, H. P. Hratchian, 
 J. V. Ortiz, A. F. Izmaylov, J. L. Sonnenberg, D. Williams-Young, 
 F. Ding, F. Lipparini, F. Egidi, J. Goings, B. Peng, A. Petrone, 
 T. Henderson, D. Ranasinghe, V. G. Zakrzewski, J. Gao, N. Rega, 
 G. Zheng, W. Liang, M. Hada, M. Ehara, K. Toyota, R. Fukuda, 
 J. Hasegawa, M. Ishida, T. Nakajima, Y. Honda, O. Kitao, H. Nakai, 
 T. Vreven, K. Throssell, J. A. Montgomery, Jr., J. E. Peralta, 
 F. Ogliaro, M. J. Bearpark, J. J. Heyd, E. N. Brothers, K. N. Kudin, 
 V. N. Staroverov, T. A. Keith, R. Kobayashi, J. Normand, 
 K. Raghavachari, A. P. Rendell, J. C. Burant, S. S. Iyengar, 
 J. Tomasi, M. Cossi, J. M. Millam, M. Klene, C. Adamo, R. Cammi, 
 J. W. Ochterski, R. L. Martin, K. Morokuma, O. Farkas, 
 J. B. Foresman, and D. J. Fox, Gaussian, Inc., Wallingford CT, 2016.
 
 ******************************************
 Gaussian 16:  ES64L-G16RevA.03 25-Dec-2016
                21-Apr-2025 
 ******************************************
 %chk=opt.chk
 %mem=4GB
 %nprocshared=8
 Will use up to    8 processors via shared memory.
 --------------------------------------------
 #p opt UM062X/6-311+G** nosymm int=superfine
 --------------------------------------------
 1/18=20,19=15,26=5,38=1/1,3;
 2/9=110,12=2,15=1,17=6,18=5,40=1/2;
 3/5=4,6=6,7=111,11=2,25=1,30=1,71=1,74=-55,75=-7,116=2/1,2,3;
 4//1;
 5/5=2,38=5/2;
 6/7=2,8=2,9=2,10=2,28=1/1;
 7/30=1/1,2,3,16;
 1/18=20,19=15,26=5/3(2);
 2/9=110,15=1/2;
 99//99;
 2/9=110,15=1/2;
 3/5=4,6=6,7=111,11=2,25=1,30=1,71=1,74=-55,75=-7,116=2/1,2,3;
 4/5=5,16=3,69=1/1;
 5/5=2,38=5/2;
 7/30=1/1,2,3,16;
 1/18=20,19=15,26=5/3(-5);
 2/9=110,15=1/2;
 6/7=2,8=2,9=2,10=2,19=2,28=1/1;
 99/9=1/99;
 Leave Link    1 at Mon Apr 21 20:34:34 2025, MaxMem=   536870912 cpu:               4.2 elap:               0.5
 (Enter /home/szhao/Apps/g16/l101.exe)
 -------------------
 Title Card Required
 -------------------
 Symbolic Z-matrix:
 Charge =  0 Multiplicity = 1
 Si                   -1   -2.51252   0.        0. 
 Si                   -1    2.51252   0.        0. 
 H                    0    -3.29341  -1.24877   0. 
 H                    0     3.29341   1.24877  -0.00078 
 H                    0    -3.29342   1.24878   0.00014 
 H                    0     3.29342  -1.24878   0.00093 
 
 Add virtual bond connecting atoms Si2        and Si1        Dist= 9.50D+00.
 ITRead=  2  2  0  0  0  0
 MicOpt= -2 -2 -1 -1 -1 -1
 NAtoms=      6 NQM=        4 NQMF=       2 NMMI=      0 NMMIF=      0
                NMic=       0 NMicF=      0.
                    Isotopes and Nuclear Properties:
 (Nuclear quadrupole moments (NQMom) in fm**2, nuclear magnetic moments (NMagM)
  in nuclear magnetons)

  Atom         1           2           3           4           5           6
 IAtWgt=          28          28           1           1           1           1
 AtmWgt=  27.9769284  27.9769284   1.0078250   1.0078250   1.0078250   1.0078250
 NucSpn=           0           0           1           1           1           1
 AtZEff=  -0.0000000  -0.0000000  -0.0000000  -0.0000000  -0.0000000  -0.0000000
 NQMom=    0.0000000   0.0000000   0.0000000   0.0000000   0.0000000   0.0000000
 NMagM=    0.0000000   0.0000000   2.7928460   2.7928460   2.7928460   2.7928460
 AtZNuc=  14.0000000  14.0000000   1.0000000   1.0000000   1.0000000   1.0000000
 Leave Link  101 at Mon Apr 21 20:34:35 2025, MaxMem=   536870912 cpu:               3.2 elap:               0.4
 (Enter /home/szhao/Apps/g16/l103.exe)

 GradGradGradGradGradGradGradGradGradGradGradGradGradGradGradGradGradGrad
 Berny optimization.
 Initialization pass.
                           ----------------------------
                           !    Initial Parameters    !
                           ! (Angstroms and Degrees)  !
 --------------------------                            --------------------------
 ! Name  Definition              Value          Derivative Info.                !
 --------------------------------------------------------------------------------
 ! X1    R(1,-1)                -2.5125         Frozen                          !
 ! Y1    R(1,-2)                 0.0            Frozen                          !
 ! Z1    R(1,-3)                 0.0            Frozen                          !
 ! X2    R(2,-1)                 2.5125         Frozen                          !
 ! Y2    R(2,-2)                 0.0            Frozen                          !
 ! Z2    R(2,-3)                 0.0            Frozen                          !
 ! R1    R(1,3)                  1.4728         estimate D2E/DX2                !
 ! R2    R(1,5)                  1.4728         estimate D2E/DX2                !
 ! R3    R(2,4)                  1.4728         estimate D2E/DX2                !
 ! R4    R(2,6)                  1.4728         estimate D2E/DX2                !
 ! A1    A(2,1,3)              122.019          estimate D2E/DX2                !
 ! A2    A(2,1,5)              122.0192         estimate D2E/DX2                !
 ! A3    A(3,1,5)              115.9618         estimate D2E/DX2                !
 ! A4    A(1,2,4)              122.019          estimate D2E/DX2                !
 ! A5    A(1,2,6)              122.0192         estimate D2E/DX2                !
 ! A6    A(4,2,6)              115.9617         estimate D2E/DX2                !
 ! D1    D(3,1,2,4)            179.9641         estimate D2E/DX2                !
 ! D2    D(3,1,2,6)             -0.0424         estimate D2E/DX2                !
 ! D3    D(5,1,2,4)             -0.0424         estimate D2E/DX2                !
 ! D4    D(5,1,2,6)            179.951          estimate D2E/DX2                !
 --------------------------------------------------------------------------------
 Trust Radius=3.00D-01 FncErr=1.00D-07 GrdErr=1.00D-07 EigMax=2.50D+02 EigMin=1.00D-04
 Number of steps in this run=     30 maximum allowed number of steps=    100.
 GradGradGradGradGradGradGradGradGradGradGradGradGradGradGradGradGradGrad

 Leave Link  103 at Mon Apr 21 20:34:35 2025, MaxMem=   536870912 cpu:               0.8 elap:               0.2
 (Enter /home/szhao/Apps/g16/l202.exe)
                          Input orientation:                          
 ---------------------------------------------------------------------
 Center     Atomic      Atomic             Coordinates (Angstroms)
 Number     Number       Type             X           Y           Z
 ---------------------------------------------------------------------
      1         14           0       -2.512518    0.000000    0.000000
      2         14           0        2.512518    0.000000    0.000000
      3          1           0       -3.293412   -1.248769    0.000000
      4          1           0        3.293412    1.248768   -0.000783
      5          1           0       -3.293423    1.248777    0.000142
      6          1           0        3.293423   -1.248776    0.000925
 ---------------------------------------------------------------------
                    Distance matrix (angstroms):
                    1          2          3          4          5
     1  Si   0.000000
     2  Si   5.025036   0.000000
     3  H    1.472827   5.938708   0.000000
     4  H    5.938708   1.472827   7.044427   0.000000
     5  H    1.472839   5.938720   2.497546   6.586835   0.000000
     6  H    5.938720   1.472839   6.586835   2.497545   7.044452
                    6
     6  H    0.000000
 Symmetry turned off by external request.
 Stoichiometry    H4Si2
 Framework group  C2[X(H4Si2)]
 Deg. of freedom     7
 Full point group                 C2      NOp   2
 Rotational constants (GHZ):          80.3906046           1.2731604           1.2533115
 Leave Link  202 at Mon Apr 21 20:34:36 2025, MaxMem=   536870912 cpu:               0.3 elap:               0.1
 (Enter /home/szhao/Apps/g16/l301.exe)
 Standard basis: 6-311+G(d,p) (5D, 7F)
 Ernie: Thresh=  0.10000D-02 Tol=  0.10000D-05 Strict=F.
    84 basis functions,   132 primitive gaussians,    86 cartesian basis functions
    16 alpha electrons       16 beta electrons
       nuclear repulsion energy        46.4853823327 Hartrees.
 IExCor= 4336 DFT=T Ex+Corr=M062X ExCW=0 ScaHFX=  0.540000
 ScaDFX=  1.000000  1.000000  1.000000  1.000000 ScalE2=  1.000000  1.000000
 IRadAn=      7 IRanWt=     -1 IRanGd=            0 ICorTp=0 IEmpDi=  4
 NAtoms=    6 NActive=    6 NUniq=    6 SFac= 1.00D+00 NAtFMM=   60 NAOKFM=F Big=F
 Integral buffers will be    131072 words long.
 Raffenetti 2 integral format.
 Two-electron integral symmetry is turned off.
 Leave Link  301 at Mon Apr 21 20:34:36 2025, MaxMem=   536870912 cpu:               0.5 elap:               0.2
 (Enter /home/szhao/Apps/g16/l302.exe)
 NPDir=0 NMtPBC=     1 NCelOv=     1 NCel=       1 NClECP=     1 NCelD=      1
         NCelK=      1 NCelE2=     1 NClLst=     1 CellRange=     0.0.
 One-electron integrals computed using PRISM.
 NBasis=    84 RedAO= T EigKep=  1.60D-02  NBF=    84
 NBsUse=    84 1.00D-06 EigRej= -1.00D+00 NBFU=    84
 Precomputing XC quadrature grid using
 IXCGrd= 4 IRadAn=           7 IRanWt=          -1 IRanGd=           0 AccXCQ= 0.00D+00.
 Generated NRdTot=       0 NPtTot=           0 NUsed=           0 NTot=          32
 NSgBfM=    75    75    75    75    75 MxSgAt=     6 MxSgA2=     6.
 Leave Link  302 at Mon Apr 21 20:34:36 2025, MaxMem=   536870912 cpu:               2.0 elap:               0.3
 (Enter /home/szhao/Apps/g16/l303.exe)
 DipDrv:  MaxL=1.
 Leave Link  303 at Mon Apr 21 20:34:37 2025, MaxMem=   536870912 cpu:               1.0 elap:               0.2
 (Enter /home/szhao/Apps/g16/l401.exe)
 ExpMin= 3.31D-02 ExpMax= 6.94D+04 ExpMxC= 2.33D+03 IAcc=3 IRadAn=         7 AccDes= 0.00D+00
 Harris functional with IExCor= 1009 and IRadAn=       7 diagonalized for initial guess.
 HarFok:  IExCor= 1009 AccDes= 0.00D+00 IRadAn=         7 IDoV= 1 UseB2=F ITyADJ=14
 ICtDFT=  3500011 ScaDFX=  1.000000  1.000000  1.000000  1.000000
 FoFCou: FMM=F IPFlag=           0 FMFlag=      100000 FMFlg1=           0
         NFxFlg=           0 DoJE=T BraDBF=F KetDBF=T FulRan=T
         wScrn=  0.000000 ICntrl=       500 IOpCl=  0 I1Cent=   200000004 NGrid=           0
         NMat0=    1 NMatS0=      1 NMatT0=    0 NMatD0=    1 NMtDS0=    0 NMtDT0=    0
 Symmetry not used in FoFCou.
 Harris En= -580.835515975492    
 JPrj=0 DoOrth=F DoCkMO=F.
 Initial guess <Sx>= 0.0000 <Sy>= 0.0000 <Sz>= 0.0000 <S**2>= 0.0000 S= 0.0000
 Leave Link  401 at Mon Apr 21 20:34:37 2025, MaxMem=   536870912 cpu:               3.5 elap:               0.5
 (Enter /home/szhao/Apps/g16/l502.exe)
 Keep R1 and R2 ints in memory in canonical form, NReq=20057634.
 FoFCou: FMM=F IPFlag=           0 FMFlag=           0 FMFlg1=           0
         NFxFlg=           0 DoJE=F BraDBF=F KetDBF=F FulRan=T
         wScrn=  0.000000 ICntrl=       600 IOpCl=  0 I1Cent=           0 NGrid=           0
         NMat0=    1 NMatS0=   3570 NMatT0=    0 NMatD0=    1 NMtDS0=    0 NMtDT0=    0
 Symmetry not used in FoFCou.
 Two-electron integral symmetry not used.
 UHF open shell SCF:
 Using DIIS extrapolation, IDIIS=  1040.
 NGot=   536870912 LenX=   524106186 LenY=   524098349
 Requested convergence on RMS density matrix=1.00D-08 within 128 cycles.
 Requested convergence on MAX density matrix=1.00D-06.
 Requested convergence on             energy=1.00D-06.
 No special actions if energy rises.

 Cycle   1  Pass 1  IDiag  1:
 E= -581.121458932011    
 DIIS: error= 2.92D-02 at cycle   1 NSaved=   1.
 NSaved= 1 IEnMin= 1 EnMin= -581.121458932011     IErMin= 1 ErrMin= 2.92D-02
 ErrMax= 2.92D-02  0.00D+00 EMaxC= 1.00D-01 BMatC= 1.80D-01 BMatP= 1.80D-01
 IDIUse=3 WtCom= 7.08D-01 WtEn= 2.92D-01
 Coeff-Com:  0.100D+01
 Coeff-En:   0.100D+01
 Coeff:      0.100D+01
 Gap=     0.158 Goal=   None    Shift=    0.000
 Gap=     0.158 Goal=   None    Shift=    0.000
 GapD=    0.158 DampG=1.000 DampE=0.500 DampFc=0.5000 IDamp=-1.
 Damping current iteration by 5.00D-01
 RMSDP=2.39D-03 MaxDP=4.66D-02              OVMax= 4.14D-02

 Cycle   2  Pass 1  IDiag  1:
 E= -581.132653018562     Delta-E=       -0.011194086550 Rises=F Damp=T
 DIIS: error= 1.48D-02 at cycle   2 NSaved=   2.
 NSaved= 2 IEnMin= 2 EnMin= -581.132653018562     IErMin= 2 ErrMin= 1.48D-02
 ErrMax= 1.48D-02  0.00D+00 EMaxC= 1.00D-01 BMatC= 3.85D-02 BMatP= 1.80D-01
 IDIUse=3 WtCom= 8.52D-01 WtEn= 1.48D-01
 Coeff-Com: -0.743D+00 0.174D+01
 Coeff-En:   0.000D+00 0.100D+01
 Coeff:     -0.633D+00 0.163D+01
 Gap=     0.160 Goal=   None    Shift=    0.000
 Gap=     0.160 Goal=   None    Shift=    0.000
 RMSDP=1.10D-03 MaxDP=1.73D-02 DE=-1.12D-02 OVMax= 7.81D-03

 Cycle   3  Pass 1  IDiag  1:
 E= -581.143136293709     Delta-E=       -0.010483275147 Rises=F Damp=F
 DIIS: error= 8.77D-04 at cycle   3 NSaved=   3.
 NSaved= 3 IEnMin= 3 EnMin= -581.143136293709     IErMin= 3 ErrMin= 8.77D-04
 ErrMax= 8.77D-04  0.00D+00 EMaxC= 1.00D-01 BMatC= 3.30D-04 BMatP= 3.85D-02
 IDIUse=3 WtCom= 9.91D-01 WtEn= 8.77D-03
 Coeff-Com: -0.140D+00 0.272D+00 0.867D+00
 Coeff-En:   0.000D+00 0.000D+00 0.100D+01
 Coeff:     -0.139D+00 0.270D+00 0.868D+00
 Gap=     0.161 Goal=   None    Shift=    0.000
 Gap=     0.161 Goal=   None    Shift=    0.000
 RMSDP=1.05D-04 MaxDP=3.31D-03 DE=-1.05D-02 OVMax= 1.97D-03

 Cycle   4  Pass 1  IDiag  1:
 E= -581.143161798910     Delta-E=       -0.000025505201 Rises=F Damp=F
 DIIS: error= 4.89D-05 at cycle   4 NSaved=   4.
 NSaved= 4 IEnMin= 4 EnMin= -581.143161798910     IErMin= 4 ErrMin= 4.89D-05
 ErrMax= 4.89D-05  0.00D+00 EMaxC= 1.00D-01 BMatC= 9.38D-07 BMatP= 3.30D-04
 IDIUse=1 WtCom= 1.00D+00 WtEn= 0.00D+00
 Coeff-Com: -0.539D-02 0.854D-02 0.573D-01 0.940D+00
 Coeff:     -0.539D-02 0.854D-02 0.573D-01 0.940D+00
 Gap=     0.161 Goal=   None    Shift=    0.000
 Gap=     0.161 Goal=   None    Shift=    0.000
 RMSDP=1.09D-05 MaxDP=1.74D-04 DE=-2.55D-05 OVMax= 3.68D-04

 Cycle   5  Pass 1  IDiag  1:
 E= -581.143162180052     Delta-E=       -0.000000381142 Rises=F Damp=F
 DIIS: error= 1.10D-05 at cycle   5 NSaved=   5.
 NSaved= 5 IEnMin= 5 EnMin= -581.143162180052     IErMin= 5 ErrMin= 1.10D-05
 ErrMax= 1.10D-05  0.00D+00 EMaxC= 1.00D-01 BMatC= 2.32D-08 BMatP= 9.38D-07
 IDIUse=1 WtCom= 1.00D+00 WtEn= 0.00D+00
 Coeff-Com:  0.119D-02-0.202D-02-0.156D-01-0.163D+00 0.118D+01
 Coeff:      0.119D-02-0.202D-02-0.156D-01-0.163D+00 0.118D+01
 Gap=     0.161 Goal=   None    Shift=    0.000
 Gap=     0.161 Goal=   None    Shift=    0.000
 RMSDP=5.01D-06 MaxDP=9.52D-05 DE=-3.81D-07 OVMax= 1.48D-04

 Cycle   6  Pass 1  IDiag  1:
 E= -581.143162204491     Delta-E=       -0.000000024439 Rises=F Damp=F
 DIIS: error= 1.10D-06 at cycle   6 NSaved=   6.
 NSaved= 6 IEnMin= 6 EnMin= -581.143162204491     IErMin= 6 ErrMin= 1.10D-06
 ErrMax= 1.10D-06  0.00D+00 EMaxC= 1.00D-01 BMatC= 5.36D-10 BMatP= 2.32D-08
 IDIUse=1 WtCom= 1.00D+00 WtEn= 0.00D+00
 Coeff-Com:  0.321D-04-0.778D-04 0.127D-02 0.390D-02-0.111D+00 0.111D+01
 Coeff:      0.321D-04-0.778D-04 0.127D-02 0.390D-02-0.111D+00 0.111D+01
 Gap=     0.161 Goal=   None    Shift=    0.000
 Gap=     0.161 Goal=   None    Shift=    0.000
 RMSDP=8.40D-07 MaxDP=1.58D-05 DE=-2.44D-08 OVMax= 2.13D-05

 Cycle   7  Pass 1  IDiag  1:
 E= -581.143162205030     Delta-E=       -0.000000000540 Rises=F Damp=F
 DIIS: error= 2.16D-07 at cycle   7 NSaved=   7.
 NSaved= 7 IEnMin= 7 EnMin= -581.143162205030     IErMin= 7 ErrMin= 2.16D-07
 ErrMax= 2.16D-07  0.00D+00 EMaxC= 1.00D-01 BMatC= 1.47D-11 BMatP= 5.36D-10
 IDIUse=1 WtCom= 1.00D+00 WtEn= 0.00D+00
 Coeff-Com: -0.465D-04 0.848D-04 0.348D-03 0.527D-02-0.317D-01-0.823D-01
 Coeff-Com:  0.111D+01
 Coeff:     -0.465D-04 0.848D-04 0.348D-03 0.527D-02-0.317D-01-0.823D-01
 Coeff:      0.111D+01
 Gap=     0.161 Goal=   None    Shift=    0.000
 Gap=     0.161 Goal=   None    Shift=    0.000
 RMSDP=1.69D-07 MaxDP=3.12D-06 DE=-5.40D-10 OVMax= 4.01D-06

 Cycle   8  Pass 1  IDiag  1:
 E= -581.143162205047     Delta-E=       -0.000000000016 Rises=F Damp=F
 DIIS: error= 3.07D-08 at cycle   8 NSaved=   8.
 NSaved= 8 IEnMin= 8 EnMin= -581.143162205047     IErMin= 8 ErrMin= 3.07D-08
 ErrMax= 3.07D-08  0.00D+00 EMaxC= 1.00D-01 BMatC= 2.77D-13 BMatP= 1.47D-11
 IDIUse=1 WtCom= 1.00D+00 WtEn= 0.00D+00
 Coeff-Com: -0.887D-07 0.545D-06-0.331D-04 0.973D-04 0.258D-02-0.362D-01
 Coeff-Com:  0.633D-01 0.970D+00
 Coeff:     -0.887D-07 0.545D-06-0.331D-04 0.973D-04 0.258D-02-0.362D-01
 Coeff:      0.633D-01 0.970D+00
 Gap=     0.161 Goal=   None    Shift=    0.000
 Gap=     0.161 Goal=   None    Shift=    0.000
 RMSDP=1.03D-08 MaxDP=1.75D-07 DE=-1.64D-11 OVMax= 3.00D-07

 Cycle   9  Pass 1  IDiag  1:
 E= -581.143162205048     Delta-E=       -0.000000000002 Rises=F Damp=F
 DIIS: error= 2.35D-09 at cycle   9 NSaved=   9.
 NSaved= 9 IEnMin= 9 EnMin= -581.143162205048     IErMin= 9 ErrMin= 2.35D-09
 ErrMax= 2.35D-09  0.00D+00 EMaxC= 1.00D-01 BMatC= 2.12D-15 BMatP= 2.77D-13
 IDIUse=1 WtCom= 1.00D+00 WtEn= 0.00D+00
 Coeff-Com:  0.615D-06-0.120D-05-0.108D-05-0.515D-04 0.138D-03 0.362D-02
 Coeff-Com: -0.198D-01-0.277D-01 0.104D+01
 Coeff:      0.615D-06-0.120D-05-0.108D-05-0.515D-04 0.138D-03 0.362D-02
 Coeff:     -0.198D-01-0.277D-01 0.104D+01
 Gap=     0.161 Goal=   None    Shift=    0.000
 Gap=     0.161 Goal=   None    Shift=    0.000
 RMSDP=1.30D-09 MaxDP=3.58D-08 DE=-1.59D-12 OVMax= 2.01D-08

 SCF Done:  E(UM062X) =  -581.143162205     A.U. after    9 cycles
            NFock=  9  Conv=0.13D-08     -V/T= 2.0012
 <Sx>= 0.0000 <Sy>= 0.0000 <Sz>= 0.0000 <S**2>=-0.0000 S=-0.0000
 <L.S>=  0.00000000000    
 KE= 5.804463724353D+02 PE=-1.477579896019D+03 EE= 2.695049790455D+02
 Annihilation of the first spin contaminant:
 S**2 before annihilation    -0.0000,   after    -0.0000
 Leave Link  502 at Mon Apr 21 20:34:46 2025, MaxMem=   536870912 cpu:              62.0 elap:               8.2
 (Enter /home/szhao/Apps/g16/l601.exe)
 Copying SCF densities to generalized density rwf, IOpCl= 1 IROHF=0.

 **********************************************************************

            Population analysis using the SCF density.

 **********************************************************************

 Alpha  occ. eigenvalues --  -67.00412 -67.00412  -5.55322  -5.55321  -3.86580
 Alpha  occ. eigenvalues --   -3.86580  -3.86033  -3.86033  -3.85890  -3.85890
 Alpha  occ. eigenvalues --   -0.57816  -0.57781  -0.41739  -0.41728  -0.25281
 Alpha  occ. eigenvalues --   -0.23827
 Alpha virt. eigenvalues --   -0.07718  -0.07344   0.02392   0.03067   0.03298
 Alpha virt. eigenvalues --    0.04866   0.05329   0.06134   0.06432   0.08080
 Alpha virt. eigenvalues --    0.09340   0.09627   0.10258   0.11601   0.28590
 Alpha virt. eigenvalues --    0.28868   0.30520   0.31091   0.32185   0.32940
 Alpha virt. eigenvalues --    0.37606   0.40971   0.42182   0.46200   0.47055
 Alpha virt. eigenvalues --    0.47411   0.59349   0.59349   0.62526   0.62780
 Alpha virt. eigenvalues --    0.62824   0.63187   0.81250   0.81456   0.90095
 Alpha virt. eigenvalues --    0.90808   1.22229   1.22767   1.23711   1.23788
 Alpha virt. eigenvalues --    1.24600   1.24620   1.39587   1.40022   1.48760
 Alpha virt. eigenvalues --    1.48833   1.49041   1.49041   1.60866   1.60933
 Alpha virt. eigenvalues --    1.92089   1.92189   2.09667   2.11036   2.59187
 Alpha virt. eigenvalues --    2.62084   2.62730   2.63274   5.54338   5.54357
 Alpha virt. eigenvalues --   11.45681  11.46873  11.51411  11.53264  11.60611
 Alpha virt. eigenvalues --   11.61490 141.11714 141.11728
  Beta  occ. eigenvalues --  -67.00412 -67.00412  -5.55322  -5.55321  -3.86580
  Beta  occ. eigenvalues --   -3.86580  -3.86033  -3.86033  -3.85890  -3.85890
  Beta  occ. eigenvalues --   -0.57816  -0.57781  -0.41739  -0.41728  -0.25281
  Beta  occ. eigenvalues --   -0.23827
  Beta virt. eigenvalues --   -0.07718  -0.07344   0.02392   0.03067   0.03298
  Beta virt. eigenvalues --    0.04866   0.05329   0.06134   0.06432   0.08080
  Beta virt. eigenvalues --    0.09340   0.09627   0.10258   0.11601   0.28590
  Beta virt. eigenvalues --    0.28868   0.30520   0.31091   0.32185   0.32940
  Beta virt. eigenvalues --    0.37606   0.40971   0.42182   0.46200   0.47055
  Beta virt. eigenvalues --    0.47411   0.59349   0.59349   0.62526   0.62780
  Beta virt. eigenvalues --    0.62824   0.63187   0.81250   0.81456   0.90095
  Beta virt. eigenvalues --    0.90808   1.22229   1.22767   1.23711   1.23788
  Beta virt. eigenvalues --    1.24600   1.24620   1.39587   1.40022   1.48760
  Beta virt. eigenvalues --    1.48833   1.49041   1.49041   1.60866   1.60933
  Beta virt. eigenvalues --    1.92089   1.92189   2.09667   2.11036   2.59187
  Beta virt. eigenvalues --    2.62084   2.62730   2.63274   5.54338   5.54357
  Beta virt. eigenvalues --   11.45681  11.46873  11.51411  11.53264  11.60611
  Beta virt. eigenvalues --   11.61490 141.11714 141.11728
          Condensed to atoms (all electrons):
               1          2          3          4          5          6
     1  Si  13.331571  -0.059087   0.215339   0.002273   0.215341   0.002273
     2  Si  -0.059087  13.331571   0.002273   0.215339   0.002273   0.215341
     3  H    0.215339   0.002273   0.934687  -0.000001  -0.006152  -0.000002
     4  H    0.002273   0.215339  -0.000001   0.934687  -0.000002  -0.006152
     5  H    0.215341   0.002273  -0.006152  -0.000002   0.934686  -0.000001
     6  H    0.002273   0.215341  -0.000002  -0.006152  -0.000001   0.934686
          Atomic-Atomic Spin Densities.
               1          2          3          4          5          6
     1  Si  -0.000000  -0.000000  -0.000000  -0.000000   0.000000   0.000000
     2  Si  -0.000000   0.000000  -0.000000   0.000000  -0.000000  -0.000000
     3  H   -0.000000  -0.000000  -0.000000   0.000000   0.000000  -0.000000
     4  H   -0.000000   0.000000   0.000000   0.000000  -0.000000  -0.000000
     5  H    0.000000  -0.000000   0.000000  -0.000000  -0.000000  -0.000000
     6  H    0.000000  -0.000000  -0.000000  -0.000000  -0.000000   0.000000
 Mulliken charges and spin densities:
               1          2
     1  Si   0.292290  -0.000000
     2  Si   0.292290  -0.000000
     3  H   -0.146145  -0.000000
     4  H   -0.146145   0.000000
     5  H   -0.146146  -0.000000
     6  H   -0.146146   0.000000
 Sum of Mulliken charges =  -0.00000   0.00000
 Mulliken charges and spin densities with hydrogens summed into heavy atoms:
               1          2
     1  Si   0.000000  -0.000000
     2  Si  -0.000000   0.000000
 Electronic spatial extent (au):  <R**2>=            870.3789
 Charge=             -0.0000 electrons
 Dipole moment (field-independent basis, Debye):
    X=              0.0000    Y=              0.0000    Z=              0.0002  Tot=              0.0002
 Quadrupole moment (field-independent basis, Debye-Ang):
   XX=            -27.0455   YY=            -31.8985   ZZ=            -24.3910
   XY=              0.0001   XZ=             -0.0000   YZ=              0.0024
 Traceless Quadrupole moment (field-independent basis, Debye-Ang):
   XX=              0.7329   YY=             -4.1202   ZZ=              3.3873
   XY=              0.0001   XZ=             -0.0000   YZ=              0.0024
 Octapole moment (field-independent basis, Debye-Ang**2):
  XXX=              0.0000  YYY=              0.0000  ZZZ=              0.0001  XYY=              0.0000
  XXY=              0.0000  XXZ=             -0.0051  XZZ=             -0.0000  YZZ=              0.0000
  YYZ=             -0.0004  XYZ=              0.0088
 Hexadecapole moment (field-independent basis, Debye-Ang**3):
 XXXX=          -1432.7585 YYYY=            -93.5875 ZZZZ=            -34.2376 XXXY=              0.0020
 XXXZ=             -0.0000 YYYX=              0.0007 YYYZ=              0.0095 ZZZX=             -0.0000
 ZZZY=              0.0091 XXYY=           -259.7070 XXZZ=           -174.9247 YYZZ=            -21.1261
 XXYZ=              0.0266 YYXZ=             -0.0000 ZZXY=              0.0003
 N-N= 4.648538233272D+01 E-N=-1.477579896234D+03  KE= 5.804463724353D+02
                          Isotropic Fermi Contact Couplings
        Atom                 a.u.       MegaHertz       Gauss      10(-4) cm-1
     1  Si(29)             0.00000      -0.00000      -0.00000      -0.00000
     2  Si(29)             0.00000      -0.00000      -0.00000      -0.00000
     3  H(1)               0.00000       0.00000       0.00000       0.00000
     4  H(1)              -0.00000      -0.00000      -0.00000      -0.00000
     5  H(1)               0.00000       0.00000       0.00000       0.00000
     6  H(1)              -0.00000      -0.00000      -0.00000      -0.00000
 --------------------------------------------------------
       Center         ----  Spin Dipole Couplings  ----
                      3XX-RR        3YY-RR        3ZZ-RR
 --------------------------------------------------------
     1   Atom        0.000000      0.000000      0.000000
     2   Atom        0.000000      0.000000      0.000000
     3   Atom        0.000000      0.000000      0.000000
     4   Atom        0.000000      0.000000      0.000000
     5   Atom        0.000000      0.000000      0.000000
     6   Atom        0.000000      0.000000      0.000000
 --------------------------------------------------------
                        XY            XZ            YZ
 --------------------------------------------------------
     1   Atom        0.000000      0.000000      0.000000
     2   Atom        0.000000      0.000000      0.000000
     3   Atom        0.000000      0.000000      0.000000
     4   Atom        0.000000      0.000000      0.000000
     5   Atom        0.000000      0.000000      0.000000
     6   Atom        0.000000      0.000000      0.000000
 --------------------------------------------------------


 ---------------------------------------------------------------------------------
              Anisotropic Spin Dipole Couplings in Principal Axis System
 ---------------------------------------------------------------------------------

       Atom             a.u.   MegaHertz   Gauss  10(-4) cm-1        Axes

              Baa     0.0000    -0.000    -0.000    -0.000  1.0000  0.0000  0.0000
     1 Si(29) Bbb     0.0000    -0.000    -0.000    -0.000 -0.0000  1.0000  0.0000
              Bcc     0.0000    -0.000    -0.000    -0.000  0.0000  0.0000  1.0000
 
              Baa     0.0000    -0.000    -0.000    -0.000  1.0000  0.0000  0.0000
     2 Si(29) Bbb     0.0000    -0.000    -0.000    -0.000 -0.0000  1.0000  0.0000
              Bcc     0.0000    -0.000    -0.000    -0.000  0.0000  0.0000  1.0000
 
              Baa     0.0000     0.000     0.000     0.000  1.0000  0.0000  0.0000
     3 H(1)   Bbb     0.0000     0.000     0.000     0.000 -0.0000  1.0000  0.0000
              Bcc     0.0000     0.000     0.000     0.000  0.0000  0.0000  1.0000
 
              Baa     0.0000     0.000     0.000     0.000  1.0000  0.0000  0.0000
     4 H(1)   Bbb     0.0000     0.000     0.000     0.000 -0.0000  1.0000  0.0000
              Bcc     0.0000     0.000     0.000     0.000  0.0000  0.0000  1.0000
 
              Baa     0.0000     0.000     0.000     0.000  1.0000  0.0000  0.0000
     5 H(1)   Bbb     0.0000     0.000     0.000     0.000 -0.0000  1.0000  0.0000
              Bcc     0.0000     0.000     0.000     0.000  0.0000  0.0000  1.0000
 
              Baa     0.0000     0.000     0.000     0.000  1.0000  0.0000  0.0000
     6 H(1)   Bbb     0.0000     0.000     0.000     0.000 -0.0000  1.0000  0.0000
              Bcc     0.0000     0.000     0.000     0.000  0.0000  0.0000  1.0000
 

 ---------------------------------------------------------------------------------

 No NMR shielding tensors so no spin-rotation constants.
 Leave Link  601 at Mon Apr 21 20:34:46 2025, MaxMem=   536870912 cpu:               1.1 elap:               0.2
 (Enter /home/szhao/Apps/g16/l701.exe)
 ... and contract with generalized density number  0.
 Compute integral first derivatives.
 Leave Link  701 at Mon Apr 21 20:34:46 2025, MaxMem=   536870912 cpu:               1.0 elap:               0.2
 (Enter /home/szhao/Apps/g16/l702.exe)
 L702 exits ... SP integral derivatives will be done elsewhere.
 Leave Link  702 at Mon Apr 21 20:34:47 2025, MaxMem=   536870912 cpu:               0.9 elap:               0.2
 (Enter /home/szhao/Apps/g16/l703.exe)
 Integral derivatives from FoFJK, PRISM(SPDF).
 Compute integral first derivatives, UseDBF=F ICtDFT=           0.
 Calling FoFJK, ICntrl=      2127 FMM=F ISym2X=0 I1Cent= 0 IOpClX= 1 NMat=1 NMatS=1 NMatT=0.
 FoFJK:  IHMeth= 1 ICntrl=    2127 DoSepK=F KAlg= 0 I1Cent=           0 FoldK=F
 IRaf=         0 NMat=       1 IRICut=       1 DoRegI=T DoRafI=F ISym2E= 0 IDoP0=0 IntGTp=1.
 FoFCou: FMM=F IPFlag=           0 FMFlag=      100000 FMFlg1=         800
         NFxFlg=           0 DoJE=F BraDBF=F KetDBF=F FulRan=T
         wScrn=  0.000000 ICntrl=      2127 IOpCl=  1 I1Cent=           0 NGrid=           0
         NMat0=    1 NMatS0=      1 NMatT0=    0 NMatD0=    1 NMtDS0=    0 NMtDT0=    0
 Symmetry not used in FoFCou.
 Leave Link  703 at Mon Apr 21 20:34:48 2025, MaxMem=   536870912 cpu:               8.7 elap:               1.1
 (Enter /home/szhao/Apps/g16/l716.exe)
 Dipole        = 4.93001600D-07 7.58238645D-08 8.30561244D-05
 -------------------------------------------------------------------
 Center     Atomic                   Forces (Hartrees/Bohr)
 Number     Number              X              Y              Z
 -------------------------------------------------------------------
      1       14          -0.000000000   -0.000000000   -0.000000000
      2       14          -0.000000000   -0.000000000   -0.000000000
      3        1          -0.027495945    0.000278853    0.000002547
      4        1           0.027496052   -0.000278658    0.000002778
      5        1          -0.027493464   -0.000282592    0.000002533
      6        1           0.027493551    0.000282428    0.000002300
 -------------------------------------------------------------------
 Cartesian Forces:  Max     0.027496052 RMS     0.012961826
 Leave Link  716 at Mon Apr 21 20:34:49 2025, MaxMem=   536870912 cpu:               1.4 elap:               0.6
 (Enter /home/szhao/Apps/g16/l103.exe)

 GradGradGradGradGradGradGradGradGradGradGradGradGradGradGradGradGradGrad
 Berny optimization.
 FormGI is forming the generalized inverse of G from B-inverse, IUseBI=4.
 Internal  Forces:  Max     0.054989602 RMS     0.025055138
 Search for a local minimum.
 Step number   1 out of a maximum of   30
 All quantities printed in internal units (Hartrees-Bohrs-Radians)
 RMS Force = .21560D-01 SwitMx=.10000D-02 MixMth= 1
 Mixed Optimization -- RFO/linear search
 Second derivative matrix not updated -- first step.
 The second derivative matrix:
                          X1        Y1        Z1        X2        Y2
           X1           0.50000
           Y1           0.00000   0.50000
           Z1           0.00000   0.00000   0.50000
           X2           0.00000   0.00000   0.00000   0.50000
           Y2           0.00000   0.00000   0.00000   0.00000   0.50000
           Z2           0.00000   0.00000   0.00000   0.00000   0.00000
           R1           0.00000   0.00000   0.00000   0.00000   0.00000
           R2           0.00000   0.00000   0.00000   0.00000   0.00000
           R3           0.00000   0.00000   0.00000   0.00000   0.00000
           R4           0.00000   0.00000   0.00000   0.00000   0.00000
           A1           0.00000   0.00000   0.00000   0.00000   0.00000
           A2           0.00000   0.00000   0.00000   0.00000   0.00000
           A3           0.00000   0.00000   0.00000   0.00000   0.00000
           A4           0.00000   0.00000   0.00000   0.00000   0.00000
           A5           0.00000   0.00000   0.00000   0.00000   0.00000
           A6           0.00000   0.00000   0.00000   0.00000   0.00000
           D1           0.00000   0.00000   0.00000   0.00000   0.00000
           D2           0.00000   0.00000   0.00000   0.00000   0.00000
           D3           0.00000   0.00000   0.00000   0.00000   0.00000
           D4           0.00000   0.00000   0.00000   0.00000   0.00000
                          Z2        R1        R2        R3        R4
           Z2           0.50000
           R1           0.00000   0.18116
           R2           0.00000   0.00000   0.18115
           R3           0.00000   0.00000   0.00000   0.18116
           R4           0.00000   0.00000   0.00000   0.00000   0.18115
           A1           0.00000   0.00000   0.00000   0.00000   0.00000
           A2           0.00000   0.00000   0.00000   0.00000   0.00000
           A3           0.00000   0.00000   0.00000   0.00000   0.00000
           A4           0.00000   0.00000   0.00000   0.00000   0.00000
           A5           0.00000   0.00000   0.00000   0.00000   0.00000
           A6           0.00000   0.00000   0.00000   0.00000   0.00000
           D1           0.00000   0.00000   0.00000   0.00000   0.00000
           D2           0.00000   0.00000   0.00000   0.00000   0.00000
           D3           0.00000   0.00000   0.00000   0.00000   0.00000
           D4           0.00000   0.00000   0.00000   0.00000   0.00000
                          A1        A2        A3        A4        A5
           A1           0.16000
           A2           0.00000   0.16000
           A3           0.00000   0.00000   0.16000
           A4           0.00000   0.00000   0.00000   0.16000
           A5           0.00000   0.00000   0.00000   0.00000   0.16000
           A6           0.00000   0.00000   0.00000   0.00000   0.00000
           D1           0.00000   0.00000   0.00000   0.00000   0.00000
           D2           0.00000   0.00000   0.00000   0.00000   0.00000
           D3           0.00000   0.00000   0.00000   0.00000   0.00000
           D4           0.00000   0.00000   0.00000   0.00000   0.00000
                          A6        D1        D2        D3        D4
           A6           0.16000
           D1           0.00000   0.00230
           D2           0.00000   0.00000   0.00230
           D3           0.00000   0.00000   0.00000   0.00230
           D4           0.00000   0.00000   0.00000   0.00000   0.00230
 ITU=  0
     Eigenvalues ---    0.00230   0.00230   0.00230   0.16000   0.16000
     Eigenvalues ---    0.16000   0.16000   0.18115   0.18115   0.18116
     Eigenvalues ---    0.181161000.000001000.000001000.000001000.00000
     Eigenvalues --- 1000.000001000.000001000.000001000.000001000.00000
 RFO step:  Lambda=-3.32535208D-02 EMin= 2.30000000D-03
 Linear search not attempted -- first point.
 Maximum step size (   0.300) exceeded in Quadratic search.
    -- Step size scaled by   0.727
 Iteration  1 RMS(Cart)=  0.10358006 RMS(Int)=  0.00422695
 Iteration  2 RMS(Cart)=  0.00472453 RMS(Int)=  0.00000573
 Iteration  3 RMS(Cart)=  0.00000864 RMS(Int)=  0.00000000
 Iteration  4 RMS(Cart)=  0.00000000 RMS(Int)=  0.00000000
 ITry= 1 IFail=0 DXMaxC= 2.17D-01 DCOld= 1.00D+10 DXMaxT= 3.00D-01 DXLimC= 3.00D+00 Rises=F
 Variable       Old X    -DE/DX   Delta X   Delta X   Delta X     New X
                                 (Linear)    (Quad)   (Total)
    X1       -4.74797  -0.05499   0.00000   0.00000   0.00000  -4.74797
    Y1        0.00000  -0.00000   0.00000   0.00000   0.00000   0.00000
    Z1        0.00000   0.00001   0.00000   0.00000   0.00000   0.00000
    X2        4.74797   0.05499   0.00000   0.00000   0.00000   4.74797
    Y2        0.00000   0.00000   0.00000   0.00000   0.00000   0.00000
    Z2        0.00000   0.00001   0.00000   0.00000   0.00000   0.00000
    R1        2.78324   0.01434   0.00000   0.04865   0.04865   2.83189
    R2        2.78326   0.01434   0.00000   0.04864   0.04864   2.83190
    R3        2.78324   0.01434   0.00000   0.04865   0.04865   2.83189
    R4        2.78326   0.01434   0.00000   0.04864   0.04864   2.83190
    A1        2.12963   0.02177   0.00000   0.08192   0.08192   2.21156
    A2        2.12964   0.02177   0.00000   0.08192   0.08192   2.21156
    A3        2.02391  -0.04353   0.00000  -0.16384  -0.16384   1.86007
    A4        2.12963   0.02177   0.00000   0.08192   0.08192   2.21156
    A5        2.12964   0.02177   0.00000   0.08192   0.08192   2.21156
    A6        2.02391  -0.04353   0.00000  -0.16384  -0.16384   1.86007
    D1        3.14097   0.00000   0.00000   0.00004   0.00004   3.14101
    D2       -0.00074   0.00000   0.00000   0.00000   0.00000  -0.00074
    D3       -0.00074   0.00000   0.00000   0.00000   0.00000  -0.00074
    D4        3.14074  -0.00000   0.00000  -0.00004  -0.00004   3.14070
         Item               Value     Threshold  Converged?
 Maximum Force            0.043532     0.000450     NO 
 RMS     Force            0.021560     0.000300     NO 
 Maximum Displacement     0.217242     0.001800     NO 
 RMS     Displacement     0.105103     0.001200     NO 
 Predicted change in Energy=-1.688729D-02
 Lowest energy point so far.  Saving SCF results.
 GradGradGradGradGradGradGradGradGradGradGradGradGradGradGradGradGradGrad

 Leave Link  103 at Mon Apr 21 20:34:50 2025, MaxMem=   536870912 cpu:               1.5 elap:               0.3
 (Enter /home/szhao/Apps/g16/l202.exe)
                          Input orientation:                          
 ---------------------------------------------------------------------
 Center     Atomic      Atomic             Coordinates (Angstroms)
 Number     Number       Type             X           Y           Z
 ---------------------------------------------------------------------
      1         14           0       -2.512518    0.000000    0.000000
      2         14           0        2.512518    0.000000    0.000000
      3          1           0       -3.408371   -1.201320    0.000008
      4          1           0        3.408371    1.201320   -0.000710
      5          1           0       -3.408379    1.201321    0.000180
      6          1           0        3.408379   -1.201320    0.000897
 ---------------------------------------------------------------------
                    Distance matrix (angstroms):
                    1          2          3          4          5
     1  Si   0.000000
     2  Si   5.025036   0.000000
     3  H    1.498574   6.041531   0.000000
     4  H    6.041531   1.498574   7.227770   0.000000
     5  H    1.498578   6.041539   2.402641   6.816750   0.000000
     6  H    6.041538   1.498578   6.816750   2.402640   7.227784
                    6
     6  H    0.000000
 Symmetry turned off by external request.
 Stoichiometry    H4Si2
 Framework group  C1[X(H4Si2)]
 Deg. of freedom    12
 Full point group                 C1      NOp   1
 Rotational constants (GHZ):          86.8669158           1.2632763           1.2451682
 Leave Link  202 at Mon Apr 21 20:34:50 2025, MaxMem=   536870912 cpu:               0.2 elap:               0.2
 (Enter /home/szhao/Apps/g16/l301.exe)
 Standard basis: 6-311+G(d,p) (5D, 7F)
 Ernie: Thresh=  0.10000D-02 Tol=  0.10000D-05 Strict=F.
    84 basis functions,   132 primitive gaussians,    86 cartesian basis functions
    16 alpha electrons       16 beta electrons
       nuclear repulsion energy        46.0623320903 Hartrees.
 IExCor= 4336 DFT=T Ex+Corr=M062X ExCW=0 ScaHFX=  0.540000
 ScaDFX=  1.000000  1.000000  1.000000  1.000000 ScalE2=  1.000000  1.000000
 IRadAn=      7 IRanWt=     -1 IRanGd=            0 ICorTp=0 IEmpDi=  4
 NAtoms=    6 NActive=    6 NUniq=    6 SFac= 1.00D+00 NAtFMM=   60 NAOKFM=F Big=F
 Integral buffers will be    131072 words long.
 Raffenetti 2 integral format.
 Two-electron integral symmetry is turned off.
 Leave Link  301 at Mon Apr 21 20:34:51 2025, MaxMem=   536870912 cpu:               0.5 elap:               0.3
 (Enter /home/szhao/Apps/g16/l302.exe)
 NPDir=0 NMtPBC=     1 NCelOv=     1 NCel=       1 NClECP=     1 NCelD=      1
         NCelK=      1 NCelE2=     1 NClLst=     1 CellRange=     0.0.
 One-electron integrals computed using PRISM.
 NBasis=    84 RedAO= T EigKep=  1.54D-02  NBF=    84
 NBsUse=    84 1.00D-06 EigRej= -1.00D+00 NBFU=    84
 Precomputing XC quadrature grid using
 IXCGrd= 4 IRadAn=           7 IRanWt=          -1 IRanGd=           0 AccXCQ= 0.00D+00.
 Generated NRdTot=       0 NPtTot=           0 NUsed=           0 NTot=          32
 NSgBfM=    76    75    76    76    76 MxSgAt=     6 MxSgA2=     6.
 Leave Link  302 at Mon Apr 21 20:34:51 2025, MaxMem=   536870912 cpu:               2.1 elap:               0.4
 (Enter /home/szhao/Apps/g16/l303.exe)
 DipDrv:  MaxL=1.
 Leave Link  303 at Mon Apr 21 20:34:52 2025, MaxMem=   536870912 cpu:               0.9 elap:               0.2
 (Enter /home/szhao/Apps/g16/l401.exe)
 Initial guess from the checkpoint file:  "opt.chk"
 B after Tr=     0.000000    0.000000    0.000005
         Rot=    1.000000   -0.000007   -0.000000   -0.000000 Ang=  -0.00 deg.
 Guess basis will be translated and rotated to current coordinates.
 JPrj=2 DoOrth=T DoCkMO=T.
 Initial guess <Sx>= 0.0000 <Sy>= 0.0000 <Sz>= 0.0000 <S**2>=-0.0000 S=-0.0000
 Generating alternative initial guess.
 ExpMin= 3.31D-02 ExpMax= 6.94D+04 ExpMxC= 2.33D+03 IAcc=3 IRadAn=         5 AccDes= 0.00D+00
 Harris functional with IExCor= 1009 and IRadAn=       5 diagonalized for initial guess.
 HarFok:  IExCor= 1009 AccDes= 0.00D+00 IRadAn=         5 IDoV= 1 UseB2=F ITyADJ=14
 ICtDFT=  3500011 ScaDFX=  1.000000  1.000000  1.000000  1.000000
 FoFCou: FMM=F IPFlag=           0 FMFlag=      100000 FMFlg1=           0
         NFxFlg=           0 DoJE=T BraDBF=F KetDBF=T FulRan=T
         wScrn=  0.000000 ICntrl=       500 IOpCl=  0 I1Cent=   200000004 NGrid=           0
         NMat0=    1 NMatS0=      1 NMatT0=    0 NMatD0=    1 NMtDS0=    0 NMtDT0=    0
 Symmetry not used in FoFCou.
 Harris En= -580.852713351371    
 Leave Link  401 at Mon Apr 21 20:34:53 2025, MaxMem=   536870912 cpu:               2.8 elap:               0.4
 (Enter /home/szhao/Apps/g16/l502.exe)
 Keep R1 and R2 ints in memory in canonical form, NReq=20057634.
 FoFCou: FMM=F IPFlag=           0 FMFlag=           0 FMFlg1=           0
         NFxFlg=           0 DoJE=F BraDBF=F KetDBF=F FulRan=T
         wScrn=  0.000000 ICntrl=       600 IOpCl=  0 I1Cent=           0 NGrid=           0
         NMat0=    1 NMatS0=   3570 NMatT0=    0 NMatD0=    1 NMtDS0=    0 NMtDT0=    0
 Symmetry not used in FoFCou.
 Two-electron integral symmetry not used.
 UHF open shell SCF:
 Using DIIS extrapolation, IDIIS=  1040.
 NGot=   536870912 LenX=   524106186 LenY=   524098349
 Requested convergence on RMS density matrix=1.00D-08 within 128 cycles.
 Requested convergence on MAX density matrix=1.00D-06.
 Requested convergence on             energy=1.00D-06.
 No special actions if energy rises.

 Cycle   1  Pass 1  IDiag  1:
 E= -581.161260683414    
 DIIS: error= 3.92D-03 at cycle   1 NSaved=   1.
 NSaved= 1 IEnMin= 1 EnMin= -581.161260683414     IErMin= 1 ErrMin= 3.92D-03
 ErrMax= 3.92D-03  0.00D+00 EMaxC= 1.00D-01 BMatC= 3.45D-03 BMatP= 3.45D-03
 IDIUse=3 WtCom= 9.61D-01 WtEn= 3.92D-02
 Coeff-Com:  0.100D+01
 Coeff-En:   0.100D+01
 Coeff:      0.100D+01
 Gap=     0.490 Goal=   None    Shift=    0.000
 Gap=     0.490 Goal=   None    Shift=    0.000
 GapD=    0.490 DampG=2.000 DampE=1.000 DampFc=2.0000 IDamp=-1.
 RMSDP=5.04D-04 MaxDP=5.94D-03              OVMax= 1.50D-02

 Cycle   2  Pass 1  IDiag  1:
 E= -581.162661209069     Delta-E=       -0.001400525656 Rises=F Damp=F
 DIIS: error= 4.38D-04 at cycle   2 NSaved=   2.
 NSaved= 2 IEnMin= 2 EnMin= -581.162661209069     IErMin= 2 ErrMin= 4.38D-04
 ErrMax= 4.38D-04  0.00D+00 EMaxC= 1.00D-01 BMatC= 8.08D-05 BMatP= 3.45D-03
 IDIUse=3 WtCom= 9.96D-01 WtEn= 4.38D-03
 Coeff-Com: -0.581D-01 0.106D+01
 Coeff-En:   0.000D+00 0.100D+01
 Coeff:     -0.579D-01 0.106D+01
 Gap=     0.175 Goal=   None    Shift=    0.000
 Gap=     0.175 Goal=   None    Shift=    0.000
 RMSDP=1.71D-04 MaxDP=4.63D-03 DE=-1.40D-03 OVMax= 3.96D-03

 Cycle   3  Pass 1  IDiag  1:
 E= -581.162713103629     Delta-E=       -0.000051894559 Rises=F Damp=F
 DIIS: error= 1.48D-04 at cycle   3 NSaved=   3.
 NSaved= 3 IEnMin= 3 EnMin= -581.162713103629     IErMin= 3 ErrMin= 1.48D-04
 ErrMax= 1.48D-04  0.00D+00 EMaxC= 1.00D-01 BMatC= 1.01D-05 BMatP= 8.08D-05
 IDIUse=3 WtCom= 9.99D-01 WtEn= 1.48D-03
 Coeff-Com: -0.294D-01 0.217D+00 0.812D+00
 Coeff-En:   0.000D+00 0.000D+00 0.100D+01
 Coeff:     -0.294D-01 0.217D+00 0.812D+00
 Gap=     0.175 Goal=   None    Shift=    0.000
 Gap=     0.175 Goal=   None    Shift=    0.000
 RMSDP=3.25D-05 MaxDP=4.84D-04 DE=-5.19D-05 OVMax= 9.19D-04

 Cycle   4  Pass 1  IDiag  1:
 E= -581.162716013920     Delta-E=       -0.000002910291 Rises=F Damp=F
 DIIS: error= 3.49D-05 at cycle   4 NSaved=   4.
 NSaved= 4 IEnMin= 4 EnMin= -581.162716013920     IErMin= 4 ErrMin= 3.49D-05
 ErrMax= 3.49D-05  0.00D+00 EMaxC= 1.00D-01 BMatC= 4.30D-07 BMatP= 1.01D-05
 IDIUse=1 WtCom= 1.00D+00 WtEn= 0.00D+00
 Coeff-Com:  0.247D-02-0.651D-01 0.457D-01 0.102D+01
 Coeff:      0.247D-02-0.651D-01 0.457D-01 0.102D+01
 Gap=     0.175 Goal=   None    Shift=    0.000
 Gap=     0.175 Goal=   None    Shift=    0.000
 RMSDP=1.87D-05 MaxDP=5.42D-04 DE=-2.91D-06 OVMax= 3.70D-04

 Cycle   5  Pass 1  IDiag  1:
 E= -581.162716250721     Delta-E=       -0.000000236801 Rises=F Damp=F
 DIIS: error= 5.53D-06 at cycle   5 NSaved=   5.
 NSaved= 5 IEnMin= 5 EnMin= -581.162716250721     IErMin= 5 ErrMin= 5.53D-06
 ErrMax= 5.53D-06  0.00D+00 EMaxC= 1.00D-01 BMatC= 5.99D-09 BMatP= 4.30D-07
 IDIUse=1 WtCom= 1.00D+00 WtEn= 0.00D+00
 Coeff-Com:  0.875D-03-0.957D-02-0.446D-02 0.415D-01 0.972D+00
 Coeff:      0.875D-03-0.957D-02-0.446D-02 0.415D-01 0.972D+00
 Gap=     0.175 Goal=   None    Shift=    0.000
 Gap=     0.175 Goal=   None    Shift=    0.000
 RMSDP=3.45D-06 MaxDP=1.07D-04 DE=-2.37D-07 OVMax= 5.60D-05

 Cycle   6  Pass 1  IDiag  1:
 E= -581.162716255569     Delta-E=       -0.000000004848 Rises=F Damp=F
 DIIS: error= 1.05D-06 at cycle   6 NSaved=   6.
 NSaved= 6 IEnMin= 6 EnMin= -581.162716255569     IErMin= 6 ErrMin= 1.05D-06
 ErrMax= 1.05D-06  0.00D+00 EMaxC= 1.00D-01 BMatC= 2.55D-10 BMatP= 5.99D-09
 IDIUse=1 WtCom= 1.00D+00 WtEn= 0.00D+00
 Coeff-Com: -0.137D-03 0.297D-02-0.294D-02-0.364D-01 0.645D-02 0.103D+01
 Coeff:     -0.137D-03 0.297D-02-0.294D-02-0.364D-01 0.645D-02 0.103D+01
 Gap=     0.175 Goal=   None    Shift=    0.000
 Gap=     0.175 Goal=   None    Shift=    0.000
 RMSDP=6.91D-07 MaxDP=1.90D-05 DE=-4.85D-09 OVMax= 1.09D-05

 Cycle   7  Pass 1  IDiag  1:
 E= -581.162716255762     Delta-E=       -0.000000000193 Rises=F Damp=F
 DIIS: error= 1.29D-07 at cycle   7 NSaved=   7.
 NSaved= 7 IEnMin= 7 EnMin= -581.162716255762     IErMin= 7 ErrMin= 1.29D-07
 ErrMax= 1.29D-07  0.00D+00 EMaxC= 1.00D-01 BMatC= 3.57D-12 BMatP= 2.55D-10
 IDIUse=1 WtCom= 1.00D+00 WtEn= 0.00D+00
 Coeff-Com: -0.203D-05-0.952D-04 0.262D-03 0.172D-02-0.114D-01-0.149D+00
 Coeff-Com:  0.116D+01
 Coeff:     -0.203D-05-0.952D-04 0.262D-03 0.172D-02-0.114D-01-0.149D+00
 Coeff:      0.116D+01
 Gap=     0.175 Goal=   None    Shift=    0.000
 Gap=     0.175 Goal=   None    Shift=    0.000
 RMSDP=1.22D-07 MaxDP=3.67D-06 DE=-1.93D-10 OVMax= 1.78D-06

 Cycle   8  Pass 1  IDiag  1:
 E= -581.162716255766     Delta-E=       -0.000000000004 Rises=F Damp=F
 DIIS: error= 1.24D-08 at cycle   8 NSaved=   8.
 NSaved= 8 IEnMin= 8 EnMin= -581.162716255766     IErMin= 8 ErrMin= 1.24D-08
 ErrMax= 1.24D-08  0.00D+00 EMaxC= 1.00D-01 BMatC= 4.91D-14 BMatP= 3.57D-12
 IDIUse=1 WtCom= 1.00D+00 WtEn= 0.00D+00
 Coeff-Com:  0.172D-05-0.240D-04-0.761D-05 0.366D-03 0.814D-03-0.334D-02
 Coeff-Com: -0.439D-01 0.105D+01
 Coeff:      0.172D-05-0.240D-04-0.761D-05 0.366D-03 0.814D-03-0.334D-02
 Coeff:     -0.439D-01 0.105D+01
 Gap=     0.175 Goal=   None    Shift=    0.000
 Gap=     0.175 Goal=   None    Shift=    0.000
 RMSDP=4.19D-09 MaxDP=1.05D-07 DE=-4.21D-12 OVMax= 1.16D-07

 SCF Done:  E(UM062X) =  -581.162716256     A.U. after    8 cycles
            NFock=  8  Conv=0.42D-08     -V/T= 2.0014
 <Sx>= 0.0000 <Sy>= 0.0000 <Sz>= 0.0000 <S**2>=-0.0000 S=-0.0000
 <L.S>=  0.00000000000    
 KE= 5.803679912820D+02 PE=-1.476639202664D+03 EE= 2.690461630359D+02
 Annihilation of the first spin contaminant:
 S**2 before annihilation    -0.0000,   after    -0.0000
 Leave Link  502 at Mon Apr 21 20:35:00 2025, MaxMem=   536870912 cpu:              53.1 elap:               7.1
 (Enter /home/szhao/Apps/g16/l701.exe)
 ... and contract with generalized density number  0.
 Compute integral first derivatives.
 Leave Link  701 at Mon Apr 21 20:35:01 2025, MaxMem=   536870912 cpu:               1.3 elap:               0.2
 (Enter /home/szhao/Apps/g16/l702.exe)
 L702 exits ... SP integral derivatives will be done elsewhere.
 Leave Link  702 at Mon Apr 21 20:35:01 2025, MaxMem=   536870912 cpu:               0.5 elap:               0.1
 (Enter /home/szhao/Apps/g16/l703.exe)
 Integral derivatives from FoFJK, PRISM(SPDF).
 Compute integral first derivatives, UseDBF=F ICtDFT=           0.
 Calling FoFJK, ICntrl=      2127 FMM=F ISym2X=0 I1Cent= 0 IOpClX= 1 NMat=1 NMatS=1 NMatT=0.
 FoFJK:  IHMeth= 1 ICntrl=    2127 DoSepK=F KAlg= 0 I1Cent=           0 FoldK=F
 IRaf=         0 NMat=       1 IRICut=       1 DoRegI=T DoRafI=F ISym2E= 0 IDoP0=0 IntGTp=1.
 FoFCou: FMM=F IPFlag=           0 FMFlag=      100000 FMFlg1=         800
         NFxFlg=           0 DoJE=F BraDBF=F KetDBF=F FulRan=T
         wScrn=  0.000000 ICntrl=      2127 IOpCl=  1 I1Cent=           0 NGrid=           0
         NMat0=    1 NMatS0=      1 NMatT0=    0 NMatD0=    1 NMtDS0=    0 NMtDT0=    0
 Symmetry not used in FoFCou.
 Leave Link  703 at Mon Apr 21 20:35:03 2025, MaxMem=   536870912 cpu:              10.4 elap:               1.4
 (Enter /home/szhao/Apps/g16/l716.exe)
 Dipole        = 1.30107642D-07 3.65662998D-08 6.23905527D-05
 -------------------------------------------------------------------
 Center     Atomic                   Forces (Hartrees/Bohr)
 Number     Number              X              Y              Z
 -------------------------------------------------------------------
      1       14          -0.000000000   -0.000000000   -0.000000000
      2       14          -0.000000000   -0.000000000   -0.000000000
      3        1          -0.015188741    0.004443828    0.000001921
      4        1           0.015188779   -0.004443755    0.000004659
      5        1          -0.015187793   -0.004445071    0.000001300
      6        1           0.015187825    0.004445008   -0.000001440
 -------------------------------------------------------------------
 Cartesian Forces:  Max     0.015188779 RMS     0.007460069
 Leave Link  716 at Mon Apr 21 20:35:03 2025, MaxMem=   536870912 cpu:               0.5 elap:               0.2
 (Enter /home/szhao/Apps/g16/l103.exe)

 GradGradGradGradGradGradGradGradGradGradGradGradGradGradGradGradGradGrad
 Berny optimization.
 Using GEDIIS/GDIIS optimizer.
 FormGI is forming the generalized inverse of G from B-inverse, IUseBI=4.
 Internal  Forces:  Max     0.030376604 RMS     0.014696361
 Search for a local minimum.
 Step number   2 out of a maximum of   30
 All quantities printed in internal units (Hartrees-Bohrs-Radians)
 RMS Force = .13294D-01 SwitMx=.10000D-02 MixMth= 1
 Mixed Optimization -- RFO/linear search
 Update second derivatives using D2CorX and points    1    2
 DE= -1.96D-02 DEPred=-1.69D-02 R= 1.16D+00
 TightC=F SS=  1.41D+00  RLast= 3.00D-01 DXNew= 5.0454D-01 9.0000D-01
 Trust test= 1.16D+00 RLast= 3.00D-01 DXMaxT set to 5.05D-01
 The second derivative matrix:
                          X1        Y1        Z1        X2        Y2
           X1           0.56479
           Y1           0.00001   0.50000
           Z1          -0.00000  -0.00000   0.50000
           X2          -0.06479  -0.00001   0.00000   0.56479
           Y2          -0.00001  -0.00000   0.00000   0.00001   0.50000
           Z2          -0.00000  -0.00000   0.00000   0.00000   0.00000
           R1          -0.02323  -0.00000   0.00000   0.02323   0.00000
           R2          -0.02322  -0.00000   0.00000   0.02322   0.00000
           R3          -0.02323  -0.00000   0.00000   0.02323   0.00000
           R4          -0.02322  -0.00000   0.00000   0.02322   0.00000
           A1          -0.02044  -0.00000   0.00000   0.02044   0.00000
           A2          -0.02044  -0.00000   0.00000   0.02044   0.00000
           A3           0.04088   0.00000  -0.00000  -0.04088  -0.00000
           A4          -0.02044  -0.00000   0.00000   0.02044   0.00000
           A5          -0.02044  -0.00000   0.00000   0.02044   0.00000
           A6           0.04088   0.00000  -0.00000  -0.04088  -0.00000
           D1          -0.00000  -0.00000   0.00000   0.00000   0.00000
           D2           0.00000   0.00000  -0.00000  -0.00000  -0.00000
           D3           0.00000   0.00000  -0.00000  -0.00000  -0.00000
           D4           0.00000   0.00000  -0.00000  -0.00000  -0.00000
                          Z2        R1        R2        R3        R4
           Z2           0.50000
           R1           0.00000   0.18416
           R2           0.00000   0.00301   0.18416
           R3           0.00000   0.00301   0.00301   0.18416
           R4           0.00000   0.00301   0.00301   0.00301   0.18416
           A1           0.00000  -0.00058  -0.00058  -0.00058  -0.00058
           A2           0.00000  -0.00058  -0.00058  -0.00058  -0.00058
           A3          -0.00000   0.00117   0.00117   0.00117   0.00117
           A4           0.00000  -0.00058  -0.00058  -0.00058  -0.00058
           A5           0.00000  -0.00058  -0.00058  -0.00058  -0.00058
           A6          -0.00000   0.00117   0.00117   0.00117   0.00117
           D1           0.00000   0.00000   0.00000   0.00000   0.00000
           D2          -0.00000  -0.00000  -0.00000  -0.00000  -0.00000
           D3          -0.00000  -0.00000  -0.00000  -0.00000  -0.00000
           D4          -0.00000  -0.00000  -0.00000  -0.00000  -0.00000
                          A1        A2        A3        A4        A5
           A1           0.15468
           A2          -0.00532   0.15468
           A3           0.01064   0.01064   0.13872
           A4          -0.00532  -0.00532   0.01064   0.15468
           A5          -0.00532  -0.00532   0.01064  -0.00532   0.15468
           A6           0.01064   0.01064  -0.02128   0.01064   0.01064
           D1           0.00000   0.00000  -0.00000   0.00000   0.00000
           D2          -0.00000  -0.00000   0.00000  -0.00000  -0.00000
           D3          -0.00000  -0.00000   0.00000  -0.00000  -0.00000
           D4          -0.00000  -0.00000   0.00000  -0.00000  -0.00000
                          A6        D1        D2        D3        D4
           A6           0.13872
           D1          -0.00000   0.00230
           D2           0.00000  -0.00000   0.00230
           D3           0.00000  -0.00000   0.00000   0.00230
           D4           0.00000  -0.00000   0.00000   0.00000   0.00230
 ITU=  1  0
 Use linear search instead of GDIIS.
     Eigenvalues ---    0.00230   0.00230   0.00230   0.09600   0.16000
     Eigenvalues ---    0.16000   0.16000   0.18115   0.18115   0.18116
     Eigenvalues ---    0.193351000.000001000.000001000.000001000.00000
     Eigenvalues --- 1000.000001000.000001000.000001000.000001000.00000
 RFO step:  Lambda=-1.63124915D-03 EMin= 2.30000000D-03
 Quartic linear search produced a step of  1.48671.
 Iteration  1 RMS(Cart)=  0.14193407 RMS(Int)=  0.02251946
 Iteration  2 RMS(Cart)=  0.03603893 RMS(Int)=  0.00049913
 Iteration  3 RMS(Cart)=  0.00052408 RMS(Int)=  0.00000005
 Iteration  4 RMS(Cart)=  0.00000008 RMS(Int)=  0.00000000
 ITry= 1 IFail=0 DXMaxC= 3.17D-01 DCOld= 1.00D+10 DXMaxT= 5.05D-01 DXLimC= 3.00D+00 Rises=F
 Variable       Old X    -DE/DX   Delta X   Delta X   Delta X     New X
                                 (Linear)    (Quad)   (Total)
    X1       -4.74797  -0.03038   0.00000   0.00000   0.00000  -4.74797
    Y1        0.00000  -0.00000   0.00000   0.00000   0.00000   0.00000
    Z1        0.00000   0.00000   0.00000   0.00000   0.00000   0.00000
    X2        4.74797   0.03038   0.00000   0.00000   0.00000   4.74797
    Y2        0.00000   0.00000   0.00000   0.00000   0.00000   0.00000
    Z2        0.00000   0.00000   0.00000   0.00000   0.00000   0.00000
    R1        2.83189   0.00552   0.07233  -0.04107   0.03127   2.86316
    R2        2.83190   0.00552   0.07231  -0.04105   0.03126   2.86316
    R3        2.83189   0.00552   0.07234  -0.04107   0.03127   2.86316
    R4        2.83190   0.00552   0.07231  -0.04105   0.03126   2.86316
    A1        2.21156   0.01400   0.12179   0.01543   0.13722   2.34878
    A2        2.21156   0.01400   0.12179   0.01543   0.13722   2.34878
    A3        1.86007  -0.02800  -0.24359  -0.03085  -0.27444   1.58563
    A4        2.21156   0.01400   0.12179   0.01543   0.13722   2.34878
    A5        2.21156   0.01400   0.12179   0.01543   0.13722   2.34878
    A6        1.86007  -0.02800  -0.24359  -0.03085  -0.27444   1.58563
    D1        3.14101   0.00000   0.00006   0.00008   0.00014   3.14115
    D2       -0.00074   0.00000   0.00000   0.00002   0.00002  -0.00072
    D3       -0.00074   0.00000   0.00000   0.00002   0.00002  -0.00072
    D4        3.14070  -0.00000  -0.00006  -0.00005  -0.00011   3.14059
         Item               Value     Threshold  Converged?
 Maximum Force            0.028003     0.000450     NO 
 RMS     Force            0.013294     0.000300     NO 
 Maximum Displacement     0.316568     0.001800     NO 
 RMS     Displacement     0.175163     0.001200     NO 
 Predicted change in Energy=-1.262320D-02
 Lowest energy point so far.  Saving SCF results.
 GradGradGradGradGradGradGradGradGradGradGradGradGradGradGradGradGradGrad

 Leave Link  103 at Mon Apr 21 20:35:04 2025, MaxMem=   536870912 cpu:               1.3 elap:               0.3
 (Enter /home/szhao/Apps/g16/l202.exe)
                          Input orientation:                          
 ---------------------------------------------------------------------
 Center     Atomic      Atomic             Coordinates (Angstroms)
 Number     Number       Type             X           Y           Z
 ---------------------------------------------------------------------
      1         14           0       -2.512518    0.000000    0.000000
      2         14           0        2.512518    0.000000    0.000000
      3          1           0       -3.575892   -1.079270    0.000052
      4          1           0        3.575892    1.079270   -0.000531
      5          1           0       -3.575897    1.079267    0.000251
      6          1           0        3.575897   -1.079267    0.000833
 ---------------------------------------------------------------------
                    Distance matrix (angstroms):
                    1          2          3          4          5
     1  Si   0.000000
     2  Si   5.025036   0.000000
     3  H    1.515120   6.183329   0.000000
     4  H    6.183329   1.515120   7.470429   0.000000
     5  H    1.515121   6.183334   2.158537   7.151789   0.000000
     6  H    6.183334   1.515121   7.151789   2.158537   7.470437
                    6
     6  H    0.000000
 Symmetry turned off by external request.
 Stoichiometry    H4Si2
 Framework group  C1[X(H4Si2)]
 Deg. of freedom    12
 Full point group                 C1      NOp   1
 Rotational constants (GHZ):         107.6249440           1.2485558           1.2342375
 Leave Link  202 at Mon Apr 21 20:35:04 2025, MaxMem=   536870912 cpu:               0.2 elap:               0.2
 (Enter /home/szhao/Apps/g16/l301.exe)
 Standard basis: 6-311+G(d,p) (5D, 7F)
 Ernie: Thresh=  0.10000D-02 Tol=  0.10000D-05 Strict=F.
    84 basis functions,   132 primitive gaussians,    86 cartesian basis functions
    16 alpha electrons       16 beta electrons
       nuclear repulsion energy        45.7717013153 Hartrees.
 IExCor= 4336 DFT=T Ex+Corr=M062X ExCW=0 ScaHFX=  0.540000
 ScaDFX=  1.000000  1.000000  1.000000  1.000000 ScalE2=  1.000000  1.000000
 IRadAn=      7 IRanWt=     -1 IRanGd=            0 ICorTp=0 IEmpDi=  4
 NAtoms=    6 NActive=    6 NUniq=    6 SFac= 1.00D+00 NAtFMM=   60 NAOKFM=F Big=F
 Integral buffers will be    131072 words long.
 Raffenetti 2 integral format.
 Two-electron integral symmetry is turned off.
 Leave Link  301 at Mon Apr 21 20:35:05 2025, MaxMem=   536870912 cpu:               0.4 elap:               0.2
 (Enter /home/szhao/Apps/g16/l302.exe)
 NPDir=0 NMtPBC=     1 NCelOv=     1 NCel=       1 NClECP=     1 NCelD=      1
         NCelK=      1 NCelE2=     1 NClLst=     1 CellRange=     0.0.
 One-electron integrals computed using PRISM.
 NBasis=    84 RedAO= T EigKep=  1.30D-02  NBF=    84
 NBsUse=    84 1.00D-06 EigRej= -1.00D+00 NBFU=    84
 Precomputing XC quadrature grid using
 IXCGrd= 4 IRadAn=           7 IRanWt=          -1 IRanGd=           0 AccXCQ= 0.00D+00.
 Generated NRdTot=       0 NPtTot=           0 NUsed=           0 NTot=          32
 NSgBfM=    76    76    76    76    76 MxSgAt=     6 MxSgA2=     6.
 Leave Link  302 at Mon Apr 21 20:35:06 2025, MaxMem=   536870912 cpu:               1.8 elap:               0.3
 (Enter /home/szhao/Apps/g16/l303.exe)
 DipDrv:  MaxL=1.
 Leave Link  303 at Mon Apr 21 20:35:06 2025, MaxMem=   536870912 cpu:               1.5 elap:               0.2
 (Enter /home/szhao/Apps/g16/l401.exe)
 Initial guess from the checkpoint file:  "opt.chk"
 B after Tr=    -0.000000    0.000000    0.000014
         Rot=    1.000000   -0.000014    0.000000   -0.000000 Ang=  -0.00 deg.
 Guess basis will be translated and rotated to current coordinates.
 JPrj=2 DoOrth=T DoCkMO=T.
 Initial guess <Sx>= 0.0000 <Sy>= 0.0000 <Sz>= 0.0000 <S**2>=-0.0000 S=-0.0000
 Generating alternative initial guess.
 ExpMin= 3.31D-02 ExpMax= 6.94D+04 ExpMxC= 2.33D+03 IAcc=3 IRadAn=         5 AccDes= 0.00D+00
 Harris functional with IExCor= 1009 and IRadAn=       5 diagonalized for initial guess.
 HarFok:  IExCor= 1009 AccDes= 0.00D+00 IRadAn=         5 IDoV= 1 UseB2=F ITyADJ=14
 ICtDFT=  3500011 ScaDFX=  1.000000  1.000000  1.000000  1.000000
 FoFCou: FMM=F IPFlag=           0 FMFlag=      100000 FMFlg1=           0
         NFxFlg=           0 DoJE=T BraDBF=F KetDBF=T FulRan=T
         wScrn=  0.000000 ICntrl=       500 IOpCl=  0 I1Cent=   200000004 NGrid=           0
         NMat0=    1 NMatS0=      1 NMatT0=    0 NMatD0=    1 NMtDS0=    0 NMtDT0=    0
 Symmetry not used in FoFCou.
 Harris En= -580.867118007960    
 Leave Link  401 at Mon Apr 21 20:35:07 2025, MaxMem=   536870912 cpu:               3.2 elap:               0.5
 (Enter /home/szhao/Apps/g16/l502.exe)
 Keep R1 and R2 ints in memory in canonical form, NReq=20057634.
 FoFCou: FMM=F IPFlag=           0 FMFlag=           0 FMFlg1=           0
         NFxFlg=           0 DoJE=F BraDBF=F KetDBF=F FulRan=T
         wScrn=  0.000000 ICntrl=       600 IOpCl=  0 I1Cent=           0 NGrid=           0
         NMat0=    1 NMatS0=   3570 NMatT0=    0 NMatD0=    1 NMtDS0=    0 NMtDT0=    0
 Symmetry not used in FoFCou.
 Two-electron integral symmetry not used.
 UHF open shell SCF:
 Using DIIS extrapolation, IDIIS=  1040.
 NGot=   536870912 LenX=   524106186 LenY=   524098349
 Requested convergence on RMS density matrix=1.00D-08 within 128 cycles.
 Requested convergence on MAX density matrix=1.00D-06.
 Requested convergence on             energy=1.00D-06.
 No special actions if energy rises.

 Cycle   1  Pass 1  IDiag  1:
 E= -581.171010059140    
 DIIS: error= 5.92D-03 at cycle   1 NSaved=   1.
 NSaved= 1 IEnMin= 1 EnMin= -581.171010059140     IErMin= 1 ErrMin= 5.92D-03
 ErrMax= 5.92D-03  0.00D+00 EMaxC= 1.00D-01 BMatC= 8.09D-03 BMatP= 8.09D-03
 IDIUse=3 WtCom= 9.41D-01 WtEn= 5.92D-02
 Coeff-Com:  0.100D+01
 Coeff-En:   0.100D+01
 Coeff:      0.100D+01
 Gap=     0.504 Goal=   None    Shift=    0.000
 Gap=     0.504 Goal=   None    Shift=    0.000
 GapD=    0.504 DampG=2.000 DampE=1.000 DampFc=2.0000 IDamp=-1.
 RMSDP=7.32D-04 MaxDP=8.44D-03              OVMax= 2.16D-02

 Cycle   2  Pass 1  IDiag  1:
 E= -581.174456691488     Delta-E=       -0.003446632348 Rises=F Damp=F
 DIIS: error= 6.67D-04 at cycle   2 NSaved=   2.
 NSaved= 2 IEnMin= 2 EnMin= -581.174456691488     IErMin= 2 ErrMin= 6.67D-04
 ErrMax= 6.67D-04  0.00D+00 EMaxC= 1.00D-01 BMatC= 1.82D-04 BMatP= 8.09D-03
 IDIUse=3 WtCom= 9.93D-01 WtEn= 6.67D-03
 Coeff-Com: -0.641D-01 0.106D+01
 Coeff-En:   0.000D+00 0.100D+01
 Coeff:     -0.636D-01 0.106D+01
 Gap=     0.195 Goal=   None    Shift=    0.000
 Gap=     0.195 Goal=   None    Shift=    0.000
 RMSDP=2.31D-04 MaxDP=5.65D-03 DE=-3.45D-03 OVMax= 5.55D-03

 Cycle   3  Pass 1  IDiag  1:
 E= -581.174577030941     Delta-E=       -0.000120339453 Rises=F Damp=F
 DIIS: error= 2.17D-04 at cycle   3 NSaved=   3.
 NSaved= 3 IEnMin= 3 EnMin= -581.174577030941     IErMin= 3 ErrMin= 2.17D-04
 ErrMax= 2.17D-04  0.00D+00 EMaxC= 1.00D-01 BMatC= 2.03D-05 BMatP= 1.82D-04
 IDIUse=3 WtCom= 9.98D-01 WtEn= 2.17D-03
 Coeff-Com: -0.274D-01 0.201D+00 0.827D+00
 Coeff-En:   0.000D+00 0.000D+00 0.100D+01
 Coeff:     -0.274D-01 0.200D+00 0.827D+00
 Gap=     0.195 Goal=   None    Shift=    0.000
 Gap=     0.195 Goal=   None    Shift=    0.000
 RMSDP=4.17D-05 MaxDP=8.05D-04 DE=-1.20D-04 OVMax= 1.29D-03

 Cycle   4  Pass 1  IDiag  1:
 E= -581.174583773510     Delta-E=       -0.000006742568 Rises=F Damp=F
 DIIS: error= 6.14D-05 at cycle   4 NSaved=   4.
 NSaved= 4 IEnMin= 4 EnMin= -581.174583773510     IErMin= 4 ErrMin= 6.14D-05
 ErrMax= 6.14D-05  0.00D+00 EMaxC= 1.00D-01 BMatC= 1.28D-06 BMatP= 2.03D-05
 IDIUse=1 WtCom= 1.00D+00 WtEn= 0.00D+00
 Coeff-Com:  0.203D-02-0.628D-01 0.105D+00 0.956D+00
 Coeff:      0.203D-02-0.628D-01 0.105D+00 0.956D+00
 Gap=     0.195 Goal=   None    Shift=    0.000
 Gap=     0.195 Goal=   None    Shift=    0.000
 RMSDP=1.80D-05 MaxDP=4.47D-04 DE=-6.74D-06 OVMax= 4.32D-04

 Cycle   5  Pass 1  IDiag  1:
 E= -581.174584213395     Delta-E=       -0.000000439885 Rises=F Damp=F
 DIIS: error= 8.90D-06 at cycle   5 NSaved=   5.
 NSaved= 5 IEnMin= 5 EnMin= -581.174584213395     IErMin= 5 ErrMin= 8.90D-06
 ErrMax= 8.90D-06  0.00D+00 EMaxC= 1.00D-01 BMatC= 1.77D-08 BMatP= 1.28D-06
 IDIUse=1 WtCom= 1.00D+00 WtEn= 0.00D+00
 Coeff-Com:  0.939D-03-0.131D-01 0.756D-02 0.787D-01 0.926D+00
 Coeff:      0.939D-03-0.131D-01 0.756D-02 0.787D-01 0.926D+00
 Gap=     0.195 Goal=   None    Shift=    0.000
 Gap=     0.195 Goal=   None    Shift=    0.000
 RMSDP=3.63D-06 MaxDP=1.02D-04 DE=-4.40D-07 OVMax= 6.54D-05

 Cycle   6  Pass 1  IDiag  1:
 E= -581.174584222936     Delta-E=       -0.000000009541 Rises=F Damp=F
 DIIS: error= 9.08D-07 at cycle   6 NSaved=   6.
 NSaved= 6 IEnMin= 6 EnMin= -581.174584222936     IErMin= 6 ErrMin= 9.08D-07
 ErrMax= 9.08D-07  0.00D+00 EMaxC= 1.00D-01 BMatC= 2.66D-10 BMatP= 1.77D-08
 IDIUse=1 WtCom= 1.00D+00 WtEn= 0.00D+00
 Coeff-Com: -0.571D-04 0.169D-02-0.321D-02-0.216D-01 0.126D-01 0.101D+01
 Coeff:     -0.571D-04 0.169D-02-0.321D-02-0.216D-01 0.126D-01 0.101D+01
 Gap=     0.195 Goal=   None    Shift=    0.000
 Gap=     0.195 Goal=   None    Shift=    0.000
 RMSDP=6.04D-07 MaxDP=1.27D-05 DE=-9.54D-09 OVMax= 1.23D-05

 Cycle   7  Pass 1  IDiag  1:
 E= -581.174584223154     Delta-E=       -0.000000000218 Rises=F Damp=F
 DIIS: error= 1.62D-07 at cycle   7 NSaved=   7.
 NSaved= 7 IEnMin= 7 EnMin= -581.174584223154     IErMin= 7 ErrMin= 1.62D-07
 ErrMax= 1.62D-07  0.00D+00 EMaxC= 1.00D-01 BMatC= 3.94D-12 BMatP= 2.66D-10
 IDIUse=1 WtCom= 1.00D+00 WtEn= 0.00D+00
 Coeff-Com: -0.602D-05 0.254D-04 0.891D-04 0.526D-03-0.134D-01-0.119D+00
 Coeff-Com:  0.113D+01
 Coeff:     -0.602D-05 0.254D-04 0.891D-04 0.526D-03-0.134D-01-0.119D+00
 Coeff:      0.113D+01
 Gap=     0.195 Goal=   None    Shift=    0.000
 Gap=     0.195 Goal=   None    Shift=    0.000
 RMSDP=1.35D-07 MaxDP=3.47D-06 DE=-2.18D-10 OVMax= 2.41D-06

 Cycle   8  Pass 1  IDiag  1:
 E= -581.174584223158     Delta-E=       -0.000000000004 Rises=F Damp=F
 DIIS: error= 1.01D-08 at cycle   8 NSaved=   8.
 NSaved= 8 IEnMin= 8 EnMin= -581.174584223158     IErMin= 8 ErrMin= 1.01D-08
 ErrMax= 1.01D-08  0.00D+00 EMaxC= 1.00D-01 BMatC= 4.81D-14 BMatP= 3.94D-12
 IDIUse=1 WtCom= 1.00D+00 WtEn= 0.00D+00
 Coeff-Com:  0.842D-06-0.235D-04 0.449D-04 0.260D-03 0.725D-03-0.103D-01
 Coeff-Com: -0.232D-01 0.103D+01
 Coeff:      0.842D-06-0.235D-04 0.449D-04 0.260D-03 0.725D-03-0.103D-01
 Coeff:     -0.232D-01 0.103D+01
 Gap=     0.195 Goal=   None    Shift=    0.000
 Gap=     0.195 Goal=   None    Shift=    0.000
 RMSDP=7.70D-09 MaxDP=2.35D-07 DE=-4.32D-12 OVMax= 1.44D-07

 SCF Done:  E(UM062X) =  -581.174584223     A.U. after    8 cycles
            NFock=  8  Conv=0.77D-08     -V/T= 2.0015
 <Sx>= 0.0000 <Sy>= 0.0000 <Sz>= 0.0000 <S**2>=-0.0000 S=-0.0000
 <L.S>=  0.00000000000    
 KE= 5.803275375374D+02 PE=-1.475985532365D+03 EE= 2.687117092893D+02
 Annihilation of the first spin contaminant:
 S**2 before annihilation    -0.0000,   after     0.0000
 Leave Link  502 at Mon Apr 21 20:35:15 2025, MaxMem=   536870912 cpu:              59.0 elap:               7.9
 (Enter /home/szhao/Apps/g16/l701.exe)
 ... and contract with generalized density number  0.
 Compute integral first derivatives.
 Leave Link  701 at Mon Apr 21 20:35:15 2025, MaxMem=   536870912 cpu:               1.3 elap:               0.2
 (Enter /home/szhao/Apps/g16/l702.exe)
 L702 exits ... SP integral derivatives will be done elsewhere.
 Leave Link  702 at Mon Apr 21 20:35:16 2025, MaxMem=   536870912 cpu:               0.8 elap:               0.2
 (Enter /home/szhao/Apps/g16/l703.exe)
 Integral derivatives from FoFJK, PRISM(SPDF).
 Compute integral first derivatives, UseDBF=F ICtDFT=           0.
 Calling FoFJK, ICntrl=      2127 FMM=F ISym2X=0 I1Cent= 0 IOpClX= 1 NMat=1 NMatS=1 NMatT=0.
 FoFJK:  IHMeth= 1 ICntrl=    2127 DoSepK=F KAlg= 0 I1Cent=           0 FoldK=F
 IRaf=         0 NMat=       1 IRICut=       1 DoRegI=T DoRafI=F ISym2E= 0 IDoP0=0 IntGTp=1.
 FoFCou: FMM=F IPFlag=           0 FMFlag=      100000 FMFlg1=         800
         NFxFlg=           0 DoJE=F BraDBF=F KetDBF=F FulRan=T
         wScrn=  0.000000 ICntrl=      2127 IOpCl=  1 I1Cent=           0 NGrid=           0
         NMat0=    1 NMatS0=      1 NMatT0=    0 NMatD0=    1 NMtDS0=    0 NMtDT0=    0
 Symmetry not used in FoFCou.
 Leave Link  703 at Mon Apr 21 20:35:17 2025, MaxMem=   536870912 cpu:              10.5 elap:               1.4
 (Enter /home/szhao/Apps/g16/l716.exe)
 Dipole        = 1.99196863D-08 1.05167421D-08 2.34484312D-05
 -------------------------------------------------------------------
 Center     Atomic                   Forces (Hartrees/Bohr)
 Number     Number              X              Y              Z
 -------------------------------------------------------------------
      1       14          -0.000000000   -0.000000000   -0.000000000
      2       14          -0.000000000   -0.000000000   -0.000000000
      3        1          -0.000526131   -0.001042068   -0.000000041
      4        1           0.000526138    0.001042078   -0.000000624
      5        1          -0.000525910    0.001041833    0.000000204
      6        1           0.000525915   -0.001041841    0.000000787
 -------------------------------------------------------------------
 Cartesian Forces:  Max     0.001042078 RMS     0.000550227
 Leave Link  716 at Mon Apr 21 20:35:18 2025, MaxMem=   536870912 cpu:               0.8 elap:               0.2
 (Enter /home/szhao/Apps/g16/l103.exe)

 GradGradGradGradGradGradGradGradGradGradGradGradGradGradGradGradGradGrad
 Berny optimization.
 Using GEDIIS/GDIIS optimizer.
 FormGI is forming the generalized inverse of G from B-inverse, IUseBI=4.
 Internal  Forces:  Max     0.001111573 RMS     0.000653617
 Search for a local minimum.
 Step number   3 out of a maximum of   30
 All quantities printed in internal units (Hartrees-Bohrs-Radians)
 RMS Force = .67245D-03 SwitMx=.10000D-02 MixMth= 2
 Mixed Optimization -- En-DIIS/RFO-DIIS
 Update second derivatives using D2CorX and points    2    3
 DE= -1.19D-02 DEPred=-1.26D-02 R= 9.40D-01
 TightC=F SS=  1.41D+00  RLast= 4.79D-01 DXNew= 8.4853D-01 1.4383D+00
 Trust test= 9.40D-01 RLast= 4.79D-01 DXMaxT set to 8.49D-01
 The second derivative matrix:
                          X1        Y1        Z1        X2        Y2
           X1           0.54028
           Y1           0.00000   0.50000
           Z1          -0.00000  -0.00000   0.50000
           X2          -0.04028  -0.00000   0.00000   0.54028
           Y2          -0.00000  -0.00000   0.00000   0.00000   0.50000
           Z2          -0.00000  -0.00000   0.00000   0.00000   0.00000
           R1          -0.02023  -0.00000   0.00000   0.02023   0.00000
           R2          -0.02022  -0.00000   0.00000   0.02022   0.00000
           R3          -0.02023  -0.00000   0.00000   0.02023   0.00000
           R4          -0.02022  -0.00000   0.00000   0.02022   0.00000
           A1          -0.01627  -0.00000   0.00000   0.01627   0.00000
           A2          -0.01627  -0.00000   0.00000   0.01627   0.00000
           A3           0.03254   0.00000  -0.00000  -0.03254  -0.00000
           A4          -0.01627  -0.00000   0.00000   0.01627   0.00000
           A5          -0.01627  -0.00000   0.00000   0.01627   0.00000
           A6           0.03254   0.00000  -0.00000  -0.03254  -0.00000
           D1          -0.00000  -0.00000   0.00000   0.00000   0.00000
           D2          -0.00000   0.00000   0.00000   0.00000  -0.00000
           D3          -0.00000   0.00000   0.00000   0.00000  -0.00000
           D4           0.00000   0.00000  -0.00000  -0.00000  -0.00000
                          Z2        R1        R2        R3        R4
           Z2           0.50000
           R1           0.00000   0.18381
           R2           0.00000   0.00265   0.18380
           R3           0.00000   0.00265   0.00265   0.18381
           R4           0.00000   0.00265   0.00265   0.00265   0.18380
           A1           0.00000  -0.00097  -0.00097  -0.00097  -0.00097
           A2           0.00000  -0.00097  -0.00097  -0.00097  -0.00097
           A3          -0.00000   0.00193   0.00193   0.00193   0.00193
           A4           0.00000  -0.00097  -0.00097  -0.00097  -0.00097
           A5           0.00000  -0.00097  -0.00097  -0.00097  -0.00097
           A6          -0.00000   0.00193   0.00193   0.00193   0.00193
           D1           0.00000   0.00000   0.00000   0.00000   0.00000
           D2           0.00000  -0.00000  -0.00000  -0.00000  -0.00000
           D3           0.00000  -0.00000  -0.00000  -0.00000  -0.00000
           D4          -0.00000  -0.00000  -0.00000  -0.00000  -0.00000
                          A1        A2        A3        A4        A5
           A1           0.15545
           A2          -0.00455   0.15545
           A3           0.00910   0.00910   0.14180
           A4          -0.00455  -0.00455   0.00910   0.15545
           A5          -0.00455  -0.00455   0.00910  -0.00455   0.15545
           A6           0.00910   0.00910  -0.01820   0.00910   0.00910
           D1           0.00000   0.00000  -0.00000   0.00000   0.00000
           D2           0.00000   0.00000  -0.00000   0.00000   0.00000
           D3           0.00000   0.00000  -0.00000   0.00000   0.00000
           D4          -0.00000  -0.00000   0.00000  -0.00000  -0.00000
                          A6        D1        D2        D3        D4
           A6           0.14180
           D1          -0.00000   0.00230
           D2          -0.00000   0.00000   0.00230
           D3          -0.00000   0.00000   0.00000   0.00230
           D4           0.00000  -0.00000  -0.00000  -0.00000   0.00230
 ITU=  1  1  0
 Use linear search instead of GDIIS.
     Eigenvalues ---    0.00230   0.00230   0.00230   0.10488   0.16000
     Eigenvalues ---    0.16000   0.16000   0.18115   0.18115   0.18116
     Eigenvalues ---    0.192271000.000001000.000001000.000001000.00000
     Eigenvalues --- 1000.000001000.000001000.000001000.000001000.00000
 RFO step:  Lambda=-2.99061121D-05 EMin= 2.30000000D-03
 Quartic linear search produced a step of -0.01660.
 Iteration  1 RMS(Cart)=  0.00449348 RMS(Int)=  0.00000690
 Iteration  2 RMS(Cart)=  0.00000969 RMS(Int)=  0.00000000
 Iteration  3 RMS(Cart)=  0.00000000 RMS(Int)=  0.00000000
 ITry= 1 IFail=0 DXMaxC= 9.86D-03 DCOld= 1.00D+10 DXMaxT= 8.49D-01 DXLimC= 3.00D+00 Rises=F
 Variable       Old X    -DE/DX   Delta X   Delta X   Delta X     New X
                                 (Linear)    (Quad)   (Total)
    X1       -4.74797  -0.00105   0.00000   0.00000   0.00000  -4.74797
    Y1        0.00000  -0.00000   0.00000   0.00000   0.00000   0.00000
    Z1        0.00000   0.00000   0.00000   0.00000   0.00000   0.00000
    X2        4.74797   0.00105   0.00000   0.00000   0.00000   4.74797
    Y2        0.00000   0.00000   0.00000   0.00000   0.00000   0.00000
    Z2        0.00000   0.00000   0.00000   0.00000   0.00000   0.00000
    R1        2.86316   0.00111  -0.00052   0.00615   0.00563   2.86880
    R2        2.86316   0.00111  -0.00052   0.00615   0.00563   2.86880
[...]
           R3           0.00001  -0.00379  -0.00379   0.17736
           R4           0.00001  -0.00379  -0.00379  -0.00379   0.17736
           A1           0.00000  -0.00086  -0.00086  -0.00086  -0.00086
           A2           0.00000  -0.00086  -0.00087  -0.00086  -0.00087
           A3          -0.00000   0.00173   0.00173   0.00173   0.00173
           A4           0.00000  -0.00086  -0.00086  -0.00086  -0.00086
           A5           0.00000  -0.00086  -0.00087  -0.00086  -0.00087
           A6          -0.00000   0.00173   0.00173   0.00173   0.00173
           D1          -0.00000   0.00000   0.00000   0.00000   0.00000
           D2           0.00000   0.00000   0.00000   0.00000   0.00000
           D3           0.00000   0.00000   0.00000   0.00000   0.00000
           D4           0.00000   0.00000   0.00000   0.00000   0.00000
                          A1        A2        A3        A4        A5
           A1           0.15600
           A2          -0.00400   0.15600
           A3           0.00800   0.00800   0.14400
           A4          -0.00400  -0.00400   0.00800   0.15600
           A5          -0.00400  -0.00400   0.00800  -0.00400   0.15600
           A6           0.00800   0.00800  -0.01600   0.00800   0.00800
           D1           0.00000   0.00000  -0.00000   0.00000   0.00000
           D2          -0.00000  -0.00000   0.00000  -0.00000  -0.00000
           D3          -0.00000  -0.00000   0.00000  -0.00000  -0.00000
           D4          -0.00000  -0.00000   0.00000  -0.00000  -0.00000
                          A6        D1        D2        D3        D4
           A6           0.14400
           D1          -0.00000   0.00230
           D2           0.00000  -0.00000   0.00230
           D3           0.00000  -0.00000  -0.00000   0.00230
           D4           0.00000  -0.00000  -0.00000  -0.00000   0.00230
 ITU=  1  1  1  0
     Eigenvalues ---    0.00230   0.00230   0.00230   0.11133   0.16000
     Eigenvalues ---    0.16000   0.16000   0.16665   0.18115   0.18115
     Eigenvalues ---    0.181161000.000001000.000001000.000001000.00000
     Eigenvalues --- 1000.000001000.000001000.000001000.000001000.00000
 En-DIIS/RFO-DIIS/Sim-DIIS IScMMF=       -3 using points:     4    3
 RFO step:  Lambda=-5.20898651D-07.
 NNeg= 0 NGDIIS= 2 SimSw=  2.50D-01 Rises=F DC= -2.00D-05 SmlDif=  1.00D-05
 NRisDI= 0 DoIntr=F SqrtH=F CThrHd= 10.0 CDAdj=  3.0
 RMS Error=  0.3993316793D-03 NUsed= 2 OKEnD=T EnDIS=F
 InvSVX:  RCond= 5.71D-05 Info=           0 Equed=N FErr=  1.16D-15 BErr=  5.16D-17
 DidBck=F Rises=F RFO-DIIS coefs:    1.07664   -0.07664
 Iteration  1 RMS(Cart)=  0.00040566 RMS(Int)=  0.00000002
 Iteration  2 RMS(Cart)=  0.00000003 RMS(Int)=  0.00000000
 ITry= 1 IFail=0 DXMaxC= 7.62D-04 DCOld= 1.00D+10 DXMaxT= 8.49D-01 DXLimC= 3.00D+00 Rises=F
 Variable       Old X    -DE/DX   Delta X   Delta X   Delta X     New X
                                 (Linear)    (Quad)   (Total)
    X1       -4.74797  -0.00021   0.00000   0.00000   0.00000  -4.74797
    Y1        0.00000  -0.00000   0.00000   0.00000   0.00000   0.00000
    Z1        0.00000   0.00000   0.00000   0.00000   0.00000   0.00000
    X2        4.74797   0.00021   0.00000   0.00000   0.00000   4.74797
    Y2        0.00000   0.00000   0.00000   0.00000   0.00000   0.00000
    Z2        0.00000   0.00000   0.00000   0.00000   0.00000   0.00000
    R1        2.86880   0.00015   0.00043   0.00045   0.00088   2.86968
    R2        2.86880   0.00015   0.00043   0.00045   0.00088   2.86968
    R3        2.86880   0.00015   0.00043   0.00045   0.00088   2.86968
    R4        2.86880   0.00015   0.00043   0.00045   0.00088   2.86968
    A1        2.34587   0.00000  -0.00022   0.00029   0.00007   2.34594
    A2        2.34587   0.00000  -0.00022   0.00029   0.00007   2.34594
    A3        1.59144  -0.00001   0.00045  -0.00058  -0.00014   1.59130
    A4        2.34587   0.00000  -0.00022   0.00029   0.00007   2.34594
    A5        2.34587   0.00000  -0.00022   0.00029   0.00007   2.34594
    A6        1.59144  -0.00001   0.00045  -0.00058  -0.00014   1.59130
    D1        3.14113  -0.00000  -0.00000  -0.00001  -0.00001   3.14112
    D2       -0.00074  -0.00000  -0.00000  -0.00002  -0.00002  -0.00076
    D3       -0.00074  -0.00000  -0.00000  -0.00002  -0.00002  -0.00076
    D4        3.14058  -0.00000  -0.00000  -0.00003  -0.00003   3.14055
         Item               Value     Threshold  Converged?
 Maximum Force            0.000146     0.000450     YES
 RMS     Force            0.000078     0.000300     YES
 Maximum Displacement     0.000762     0.001800     YES
 RMS     Displacement     0.000406     0.001200     YES
 Predicted change in Energy=-2.604052D-07
 Optimization completed.
    -- Stationary point found.
                           ----------------------------
                           !   Optimized Parameters   !
                           ! (Angstroms and Degrees)  !
 --------------------------                            --------------------------
 ! Name  Definition              Value          Derivative Info.                !
 --------------------------------------------------------------------------------
 ! X1    R(1,-1)                -2.5125         -DE/DX =   -0.0002              !
 ! Y1    R(1,-2)                 0.0            -DE/DX =    0.0                 !
 ! Z1    R(1,-3)                 0.0            -DE/DX =    0.0                 !
 ! X2    R(2,-1)                 2.5125         -DE/DX =    0.0002              !
 ! Y2    R(2,-2)                 0.0            -DE/DX =    0.0                 !
 ! Z2    R(2,-3)                 0.0            -DE/DX =    0.0                 !
 ! R1    R(1,3)                  1.5181         -DE/DX =    0.0001              !
 ! R2    R(1,5)                  1.5181         -DE/DX =    0.0001              !
 ! R3    R(2,4)                  1.5181         -DE/DX =    0.0001              !
 ! R4    R(2,6)                  1.5181         -DE/DX =    0.0001              !
 ! A1    A(2,1,3)              134.4084         -DE/DX =    0.0                 !
 ! A2    A(2,1,5)              134.4086         -DE/DX =    0.0                 !
 ! A3    A(3,1,5)               91.183          -DE/DX =    0.0                 !
 ! A4    A(1,2,4)              134.4084         -DE/DX =    0.0                 !
 ! A5    A(1,2,6)              134.4086         -DE/DX =    0.0                 !
 ! A6    A(4,2,6)               91.183          -DE/DX =    0.0                 !
 ! D1    D(3,1,2,4)            179.9734         -DE/DX =    0.0                 !
 ! D2    D(3,1,2,6)             -0.0424         -DE/DX =    0.0                 !
 ! D3    D(5,1,2,4)             -0.0424         -DE/DX =    0.0                 !
 ! D4    D(5,1,2,6)            179.9419         -DE/DX =    0.0                 !
 --------------------------------------------------------------------------------
 Lowest energy point so far.  Saving SCF results.
 Largest change from initial coordinates is atom    5       0.326 Angstoms.
 GradGradGradGradGradGradGradGradGradGradGradGradGradGradGradGradGradGrad

 Leave Link  103 at Mon Apr 21 20:35:29 2025, MaxMem=   536870912 cpu:               1.0 elap:               0.2
 (Enter /home/szhao/Apps/g16/l202.exe)
                          Input orientation:                          
 ---------------------------------------------------------------------
 Center     Atomic      Atomic             Coordinates (Angstroms)
 Number     Number       Type             X           Y           Z
 ---------------------------------------------------------------------
      1         14           0       -2.512518    0.000000    0.000000
      2         14           0        2.512518    0.000000    0.000000
      3          1           0       -3.574836   -1.084487    0.000042
      4          1           0        3.574836    1.084487   -0.000544
      5          1           0       -3.574841    1.084483    0.000257
      6          1           0        3.574841   -1.084483    0.000843
 ---------------------------------------------------------------------
                    Distance matrix (angstroms):
                    1          2          3          4          5
     1  Si   0.000000
     2  Si   5.025036   0.000000
     3  H    1.518102   6.183203   0.000000
     4  H    6.183203   1.518102   7.471430   0.000000
     5  H    1.518102   6.183207   2.168970   7.149678   0.000000
     6  H    6.183207   1.518102   7.149678   2.168970   7.471437
                    6
     6  H    0.000000
 Symmetry turned off by external request.
 Stoichiometry    H4Si2
 Framework group  C1[X(H4Si2)]
 Deg. of freedom    12
 Full point group                 C1      NOp   1
 Rotational constants (GHZ):         106.5920512           1.2486497           1.2341921
 Leave Link  202 at Mon Apr 21 20:35:30 2025, MaxMem=   536870912 cpu:               0.2 elap:               0.1
 (Enter /home/szhao/Apps/g16/l601.exe)
 Copying SCF densities to generalized density rwf, IOpCl= 1 IROHF=0.

 **********************************************************************

            Population analysis using the SCF density.

 **********************************************************************

 Alpha  occ. eigenvalues --  -67.01335 -67.01335  -5.56056  -5.56056  -3.87305
 Alpha  occ. eigenvalues --   -3.87305  -3.86763  -3.86763  -3.86620  -3.86620
 Alpha  occ. eigenvalues --   -0.57298  -0.57259  -0.37894  -0.37879  -0.28787
 Alpha  occ. eigenvalues --   -0.27586
 Alpha virt. eigenvalues --   -0.08096  -0.07666   0.02078   0.02529   0.02940
 Alpha virt. eigenvalues --    0.04537   0.05490   0.06038   0.06108   0.07455
 Alpha virt. eigenvalues --    0.07758   0.08949   0.11392   0.13890   0.28586
 Alpha virt. eigenvalues --    0.29187   0.30932   0.31182   0.32659   0.32765
 Alpha virt. eigenvalues --    0.37188   0.39940   0.41425   0.44939   0.49134
 Alpha virt. eigenvalues --    0.50156   0.60265   0.60265   0.60274   0.60916
 Alpha virt. eigenvalues --    0.61255   0.61286   0.77874   0.77886   0.88264
 Alpha virt. eigenvalues --    0.89096   1.21038   1.21828   1.21961   1.22647
 Alpha virt. eigenvalues --    1.23192   1.23304   1.44049   1.44049   1.44927
 Alpha virt. eigenvalues --    1.44992   1.52679   1.52774   1.58771   1.59027
 Alpha virt. eigenvalues --    1.93472   1.93725   2.00820   2.01987   2.55999
 Alpha virt. eigenvalues --    2.59280   2.65110   2.65505   5.56428   5.56549
 Alpha virt. eigenvalues --   11.45001  11.46203  11.52541  11.52826  11.53779
 Alpha virt. eigenvalues --   11.54542 141.12769 141.13053
  Beta  occ. eigenvalues --  -67.01335 -67.01335  -5.56056  -5.56056  -3.87305
  Beta  occ. eigenvalues --   -3.87305  -3.86763  -3.86763  -3.86620  -3.86620
  Beta  occ. eigenvalues --   -0.57298  -0.57259  -0.37894  -0.37879  -0.28787
  Beta  occ. eigenvalues --   -0.27586
  Beta virt. eigenvalues --   -0.08096  -0.07666   0.02078   0.02529   0.02940
  Beta virt. eigenvalues --    0.04537   0.05490   0.06038   0.06108   0.07455
  Beta virt. eigenvalues --    0.07758   0.08949   0.11392   0.13890   0.28586
  Beta virt. eigenvalues --    0.29187   0.30932   0.31182   0.32659   0.32765
  Beta virt. eigenvalues --    0.37188   0.39940   0.41425   0.44939   0.49134
  Beta virt. eigenvalues --    0.50156   0.60265   0.60265   0.60274   0.60916
  Beta virt. eigenvalues --    0.61255   0.61286   0.77874   0.77886   0.88264
  Beta virt. eigenvalues --    0.89096   1.21038   1.21828   1.21961   1.22647
  Beta virt. eigenvalues --    1.23192   1.23304   1.44049   1.44049   1.44927
  Beta virt. eigenvalues --    1.44992   1.52679   1.52774   1.58771   1.59027
  Beta virt. eigenvalues --    1.93472   1.93725   2.00820   2.01987   2.55999
  Beta virt. eigenvalues --    2.59280   2.65110   2.65505   5.56428   5.56549
  Beta virt. eigenvalues --   11.45001  11.46203  11.52541  11.52826  11.53779
  Beta virt. eigenvalues --   11.54542 141.12769 141.13053
          Condensed to atoms (all electrons):
               1          2          3          4          5          6
     1  Si  13.244332  -0.033157   0.231630   0.001114   0.231630   0.001114
     2  Si  -0.033157  13.244332   0.001114   0.231630   0.001114   0.231630
     3  H    0.231630   0.001114   0.948810  -0.000000  -0.019885  -0.000000
     4  H    0.001114   0.231630  -0.000000   0.948810  -0.000000  -0.019885
     5  H    0.231630   0.001114  -0.019885  -0.000000   0.948810  -0.000000
     6  H    0.001114   0.231630  -0.000000  -0.019885  -0.000000   0.948810
          Atomic-Atomic Spin Densities.
               1          2          3          4          5          6
     1  Si   0.000000   0.000000  -0.000000  -0.000000  -0.000000  -0.000000
     2  Si   0.000000  -0.000000  -0.000000  -0.000000  -0.000000  -0.000000
     3  H   -0.000000  -0.000000   0.000000   0.000000   0.000000   0.000000
     4  H   -0.000000  -0.000000   0.000000   0.000000   0.000000   0.000000
     5  H   -0.000000  -0.000000   0.000000   0.000000   0.000000  -0.000000
     6  H   -0.000000  -0.000000   0.000000   0.000000  -0.000000   0.000000
 Mulliken charges and spin densities:
               1          2
     1  Si   0.323336   0.000000
     2  Si   0.323336  -0.000000
     3  H   -0.161668  -0.000000
     4  H   -0.161668   0.000000
     5  H   -0.161668  -0.000000
     6  H   -0.161668   0.000000
 Sum of Mulliken charges =  -0.00000   0.00000
 Mulliken charges and spin densities with hydrogens summed into heavy atoms:
               1          2
     1  Si   0.000000   0.000000
     2  Si  -0.000000   0.000000
 Electronic spatial extent (au):  <R**2>=            898.9634
 Charge=             -0.0000 electrons
 Dipole moment (field-independent basis, Debye):
    X=              0.0000    Y=              0.0000    Z=              0.0001  Tot=              0.0001
 Quadrupole moment (field-independent basis, Debye-Ang):
   XX=            -34.9427   YY=            -32.7044   ZZ=            -24.3638
   XY=             -0.0000   XZ=              0.0000   YZ=              0.0023
 Traceless Quadrupole moment (field-independent basis, Debye-Ang):
   XX=             -4.2724   YY=             -2.0341   ZZ=              6.3065
   XY=             -0.0000   XZ=              0.0000   YZ=              0.0023
 Octapole moment (field-independent basis, Debye-Ang**2):
  XXX=              0.0000  YYY=             -0.0000  ZZZ=             -0.0009  XYY=              0.0000
  XXY=             -0.0000  XXZ=             -0.0095  XZZ=             -0.0000  YZZ=              0.0000
  YYZ=             -0.0010  XYZ=              0.0096
 Hexadecapole moment (field-independent basis, Debye-Ang**3):
 XXXX=          -1599.6768 YYYY=            -88.5948 ZZZZ=            -33.3836 XXXY=             -0.0001
 XXXZ=              0.0000 YYYX=             -0.0001 YYYZ=              0.0078 ZZZX=              0.0000
 ZZZY=              0.0071 XXYY=           -276.6830 XXZZ=           -187.4137 YYZZ=            -19.9358
 XXYZ=              0.0241 YYXZ=              0.0000 ZZXY=             -0.0000
 N-N= 4.573105646206D+01 E-N=-1.475889160056D+03  KE= 5.803169756114D+02
                          Isotropic Fermi Contact Couplings
        Atom                 a.u.       MegaHertz       Gauss      10(-4) cm-1
     1  Si(29)             0.00000      -0.00000      -0.00000      -0.00000
     2  Si(29)             0.00000      -0.00000      -0.00000      -0.00000
     3  H(1)              -0.00000      -0.00000      -0.00000      -0.00000
     4  H(1)               0.00000       0.00000       0.00000       0.00000
     5  H(1)              -0.00000      -0.00000      -0.00000      -0.00000
     6  H(1)               0.00000       0.00000       0.00000       0.00000
 --------------------------------------------------------
       Center         ----  Spin Dipole Couplings  ----
                      3XX-RR        3YY-RR        3ZZ-RR
 --------------------------------------------------------
     1   Atom        0.000000      0.000000      0.000000
     2   Atom        0.000000      0.000000      0.000000
     3   Atom        0.000000      0.000000      0.000000
     4   Atom        0.000000      0.000000      0.000000
     5   Atom        0.000000      0.000000      0.000000
     6   Atom        0.000000      0.000000      0.000000
 --------------------------------------------------------
                        XY            XZ            YZ
 --------------------------------------------------------
     1   Atom        0.000000      0.000000      0.000000
     2   Atom        0.000000      0.000000      0.000000
     3   Atom        0.000000      0.000000      0.000000
     4   Atom        0.000000      0.000000      0.000000
     5   Atom        0.000000      0.000000      0.000000
     6   Atom        0.000000      0.000000      0.000000
 --------------------------------------------------------


 ---------------------------------------------------------------------------------
              Anisotropic Spin Dipole Couplings in Principal Axis System
 ---------------------------------------------------------------------------------

       Atom             a.u.   MegaHertz   Gauss  10(-4) cm-1        Axes

              Baa     0.0000    -0.000    -0.000    -0.000  1.0000  0.0000  0.0000
     1 Si(29) Bbb     0.0000    -0.000    -0.000    -0.000 -0.0000  1.0000  0.0000
              Bcc     0.0000    -0.000    -0.000    -0.000  0.0000  0.0000  1.0000
 
              Baa     0.0000    -0.000    -0.000    -0.000  1.0000  0.0000  0.0000
     2 Si(29) Bbb     0.0000    -0.000    -0.000    -0.000 -0.0000  1.0000  0.0000
              Bcc     0.0000    -0.000    -0.000    -0.000  0.0000  0.0000  1.0000
 
              Baa     0.0000     0.000     0.000     0.000  1.0000  0.0000  0.0000
     3 H(1)   Bbb     0.0000     0.000     0.000     0.000 -0.0000  1.0000  0.0000
              Bcc     0.0000     0.000     0.000     0.000  0.0000  0.0000  1.0000
 
              Baa     0.0000     0.000     0.000     0.000  1.0000  0.0000  0.0000
     4 H(1)   Bbb     0.0000     0.000     0.000     0.000 -0.0000  1.0000  0.0000
              Bcc     0.0000     0.000     0.000     0.000  0.0000  0.0000  1.0000
 
              Baa     0.0000     0.000     0.000     0.000  1.0000  0.0000  0.0000
     5 H(1)   Bbb     0.0000     0.000     0.000     0.000 -0.0000  1.0000  0.0000
              Bcc     0.0000     0.000     0.000     0.000  0.0000  0.0000  1.0000
 
              Baa     0.0000     0.000     0.000     0.000  1.0000  0.0000  0.0000
     6 H(1)   Bbb     0.0000     0.000     0.000     0.000 -0.0000  1.0000  0.0000
              Bcc     0.0000     0.000     0.000     0.000  0.0000  0.0000  1.0000
 

 ---------------------------------------------------------------------------------

 No NMR shielding tensors so no spin-rotation constants.
 Leave Link  601 at Mon Apr 21 20:35:30 2025, MaxMem=   536870912 cpu:               1.6 elap:               0.3
 (Enter /home/szhao/Apps/g16/l9999.exe)
 1\1\GINC-NODE06\FOpt\UM062X\6-311+G(d,p)\H4Si2\SZHAO\21-Apr-2025\0\\#p
  opt UM062X/6-311+G** nosymm int=superfine\\Title Card Required\\0,1\S
 i,-2.512518,0.,0.\Si,2.512518,0.,0.\H,-3.5748364613,-1.0844872319,0.00
 00416244\H,3.5748364704,1.0844870734,-0.0005444898\H,-3.5748410319,1.0
 844831128,0.0002571643\H,3.574841017,-1.084482821,0.0008432688\\Versio
 n=ES64L-G16RevA.03\HF=-581.1746042\S2=0.\S2-1=0.\S2A=0.\RMSD=3.553e-09
 \RMSF=6.891e-05\Dipole=0.,0.,0.0000233\Quadrupole=-3.1764218,-1.512295
 6,4.6887175,-0.0000009,0.,0.0016763\PG=C01 [X(H4Si2)]\\@


 TERRY FORSTER, PORTLY ATLANTA BRAVES RELIEVER,
 ANNOUNCING THAT HE WAS GOING TO A FAT FARM:
 "A WAIST IS A TERRIBLE THING TO MIND."
 Job cpu time:       0 days  0 hours  5 minutes 17.4 seconds.
 Elapsed time:       0 days  0 hours  0 minutes 45.8 seconds.
 File lengths (MBytes):  RWF=     22 Int=      0 D2E=      0 Chk=      2 Scr=      2
 Normal termination of Gaussian 16 at Mon Apr 21 20:35:31 2025.
