 Entering Gaussian System, Link 0=g16
 Initial command:
 /home/szhao/Apps/g16/l1.exe "/home/szhao/tmp/Gau-93669.inp" -scrdir="/home/szhao/tmp/"
 Default is to use a total of  16 processors:
                               16 via shared-memory
                                1 via Linda
 Entering Link 1 = /home/szhao/Apps/g16/l1.exe PID=     93671.
  
 Copyright (c) 1988,1990,1992,1993,1995,1998,2003,2009,2016,
            Gaussian, Inc.  All Rights Reserved.
  
 This is part of the Gaussian(R) 16 program.  It is based on
 the Gaussian(R) 09 system (copyright 2009, Gaussian, Inc.),
 the Gaussian(R) 03 system (copyright 2003, Gaussian, Inc.),
 the Gaussian(R) 98 system (copyright 1998, Gaussian, Inc.),
 the Gaussian(R) 94 system (copyright 1995, Gaussian, Inc.),
 the Gaussian 92(TM) system (copyright 1992, Gaussian, Inc.),
 the Gaussian 90(TM) system (copyright 1990, Gaussian, Inc.),
 the Gaussian 88(TM) system (copyright 1988, Gaussian, Inc.),
 the Gaussian 86(TM) system (copyright 1986, Carnegie Mellon
 University), and the Gaussian 82(TM) system (copyright 1983,
 Carnegie Mellon University). Gaussian is a federally registered
 trademark of Gaussian, Inc.
  
 This software contains proprietary and confidential information,
 including trade secrets, belonging to Gaussian, Inc.
  
 This software is provided under written license and may be
 used, copied, transmitted, or stored only in accord with that
 written license.
  
 The following legend is applicable only to US Government
 contracts under FAR:
  
                    RESTRICTED RIGHTS LEGEND
  
 Use, reproduction and disclosure by the US Government is
 subject to restrictions as set forth in subparagraphs (a)
 and (c) of the Commercial Computer Software - Restricted
 Rights clause in FAR 52.227-19.
  
 Gaussian, Inc.
 340 Quinnipiac St., Bldg. 40, Wallingford CT 06492
  
  
 ---------------------------------------------------------------
 Warning -- This program may not be used in any manner that
 competes with the business of Gaussian, Inc. or will provide
 assistance to any competitor of Gaussian, Inc.  The licensee
 of this program is prohibited from giving any competitor of
 Gaussian, Inc. access to this program.  By using this program,
 the user acknowledges that Gaussian, Inc. is engaged in the
 business of creating and licensing software in the field of
 computational chemistry and represents and warrants to the
 licensee that it is not a competitor of Gaussian, Inc. and that
 it will not use this program in any manner prohibited above.
 ---------------------------------------------------------------
  

 Cite this work as:
 Gaussian 16, Revision A.03,
 M. J. Frisch, G. W. Trucks, H. B. Schlegel, G. E. Scuseria, 
 M. A. Robb, J. R. Cheeseman, G. Scalmani, V. Barone, 
 G. A. Petersson, H. Nakatsuji, X. Li, M. Caricato, A. V. Marenich, 
 J. Bloino, B. G. Janesko, R. Gomperts, B. Mennucci, H. P. Hratchian, 
 J. V. Ortiz, A. F. Izmaylov, J. L. Sonnenberg, D. Williams-Young, 
 F. Ding, F. Lipparini, F. Egidi, J. Goings, B. Peng, A. Petrone, 
 T. Henderson, D. Ranasinghe, V. G. Zakrzewski, J. Gao, N. Rega, 
 G. Zheng, W. Liang, M. Hada, M. Ehara, K. Toyota, R. Fukuda, 
 J. Hasegawa, M. Ishida, T. Nakajima, Y. Honda, O. Kitao, H. Nakai, 
 T. Vreven, K. Throssell, J. A. Montgomery, Jr., J. E. Peralta, 
 F. Ogliaro, M. J. Bearpark, J. J. Heyd, E. N. Brothers, K. N. Kudin, 
 V. N. Staroverov, T. A. Keith, R. Kobayashi, J. Normand, 
 K. Raghavachari, A. P. Rendell, J. C. Burant, S. S. Iyengar, 
 J. Tomasi, M. Cossi, J. M. Millam, M. Klene, C. Adamo, R. Cammi, 
 J. W. Ochterski, R. L. Martin, K. Morokuma, O. Farkas, 
 J. B. Foresman, and D. J. Fox, Gaussian, Inc., Wallingford CT, 2016.
 
 ******************************************
 Gaussian 16:  ES64L-G16RevA.03 25-Dec-2016
                19-Nov-2024 
 ******************************************
 %chk=opt.chk
 %mem=16GB
 %nprocshared=24
 Will use up to   24 processors via shared memory.
 ---------------------------------------
 #p UM062X/6-311+G** force int=superfine
 ---------------------------------------
 1/10=7,30=1,38=1/1,3;
 2/12=2,17=6,18=5,40=1/2;
 3/5=4,6=6,7=111,11=2,25=1,30=1,71=1,74=-55,75=-7,116=2/1,2,3;
 4//1;
 5/5=2,38=5/2;
 6/7=2,8=2,9=2,10=2,28=1/1;
 7/29=1/1,2,3,16;
 1/10=7,30=1/3;
 99//99;
 Leave Link    1 at Tue Nov 19 13:33:29 2024, MaxMem=  2147483648 cpu:               2.6 elap:               0.2
 (Enter /home/szhao/Apps/g16/l101.exe)
 -------------------
 Title Card Required
 -------------------
 Symbolic Z-matrix:
 Charge =  1 Multiplicity = 2
 C                    -0.72697   0.        0. 
 C                     0.72697   0.        0. 
 H                    -1.81465  -0.00002   0.00001 
 H                     1.81465  -0.00002   0.00001 
 
 ITRead=  0  0  0  0
 MicOpt= -1 -1 -1 -1
 NAtoms=      4 NQM=        4 NQMF=       0 NMMI=      0 NMMIF=      0
                NMic=       0 NMicF=      0.
                    Isotopes and Nuclear Properties:
 (Nuclear quadrupole moments (NQMom) in fm**2, nuclear magnetic moments (NMagM)
  in nuclear magnetons)

  Atom         1           2           3           4
 IAtWgt=          12          12           1           1
 AtmWgt=  12.0000000  12.0000000   1.0078250   1.0078250
 NucSpn=           0           0           1           1
 AtZEff=  -0.0000000  -0.0000000  -0.0000000  -0.0000000
 NQMom=    0.0000000   0.0000000   0.0000000   0.0000000
 NMagM=    0.0000000   0.0000000   2.7928460   2.7928460
 AtZNuc=   6.0000000   6.0000000   1.0000000   1.0000000
 Leave Link  101 at Tue Nov 19 13:33:29 2024, MaxMem=  2147483648 cpu:               6.0 elap:               0.3
 (Enter /home/szhao/Apps/g16/l103.exe)

 GradGradGradGradGradGradGradGradGradGradGradGradGradGradGradGradGradGrad
 Berny optimization.
 Initialization pass.
 Trust Radius=3.00D-01 FncErr=1.00D-07 GrdErr=1.00D-07 EigMax=2.50D+02 EigMin=1.00D-04
 Number of steps in this run=      2 maximum allowed number of steps=      2.
 GradGradGradGradGradGradGradGradGradGradGradGradGradGradGradGradGradGrad

 Leave Link  103 at Tue Nov 19 13:33:29 2024, MaxMem=  2147483648 cpu:               1.9 elap:               0.1
 (Enter /home/szhao/Apps/g16/l202.exe)
                          Input orientation:                          
 ---------------------------------------------------------------------
 Center     Atomic      Atomic             Coordinates (Angstroms)
 Number     Number       Type             X           Y           Z
 ---------------------------------------------------------------------
      1          6           0       -0.726971    0.000000    0.000000
      2          6           0        0.726971    0.000000    0.000000
      3          1           0       -1.814646   -0.000024    0.000012
      4          1           0        1.814645   -0.000022    0.000008
 ---------------------------------------------------------------------
                    Distance matrix (angstroms):
                    1          2          3          4
     1  C    0.000000
     2  C    1.453942   0.000000
     3  H    1.087675   2.541617   0.000000
     4  H    2.541616   1.087674   3.629291   0.000000
 Stoichiometry    C2H2(1+,2)
 Framework group  C*V[C*(HCCH)]
 Deg. of freedom     3
 Full point group                 C*V     NOp   4
 Largest Abelian subgroup         C2V     NOp   4
 Largest concise Abelian subgroup C1      NOp   1
                         Standard orientation:                         
 ---------------------------------------------------------------------
 Center     Atomic      Atomic             Coordinates (Angstroms)
 Number     Number       Type             X           Y           Z
 ---------------------------------------------------------------------
      1          6           0       -0.000000    0.000000    0.726971
      2          6           0       -0.000000    0.000000   -0.726971
      3          1           0        0.000000    0.000000    1.814646
      4          1           0        0.000000    0.000000   -1.814645
 ---------------------------------------------------------------------
 Rotational constants (GHZ):           0.0000000          26.1568509          26.1568509
 Leave Link  202 at Tue Nov 19 13:33:30 2024, MaxMem=  2147483648 cpu:               2.1 elap:               0.1
 (Enter /home/szhao/Apps/g16/l301.exe)
 Standard basis: 6-311+G(d,p) (5D, 7F)
 Ernie: Thresh=  0.10000D-02 Tol=  0.10000D-05 Strict=F.
 There are    32 symmetry adapted cartesian basis functions of A1  symmetry.
 There are     2 symmetry adapted cartesian basis functions of A2  symmetry.
 There are    12 symmetry adapted cartesian basis functions of B1  symmetry.
 There are    12 symmetry adapted cartesian basis functions of B2  symmetry.
 There are    30 symmetry adapted basis functions of A1  symmetry.
 There are     2 symmetry adapted basis functions of A2  symmetry.
 There are    12 symmetry adapted basis functions of B1  symmetry.
 There are    12 symmetry adapted basis functions of B2  symmetry.
    56 basis functions,    88 primitive gaussians,    58 cartesian basis functions
     7 alpha electrons        6 beta electrons
       nuclear repulsion energy        21.5850989810 Hartrees.
 IExCor= 4336 DFT=T Ex+Corr=M062X ExCW=0 ScaHFX=  0.540000
 ScaDFX=  1.000000  1.000000  1.000000  1.000000 ScalE2=  1.000000  1.000000
 IRadAn=      7 IRanWt=     -1 IRanGd=            0 ICorTp=0 IEmpDi=  4
 NAtoms=    4 NActive=    4 NUniq=    4 SFac= 1.00D+00 NAtFMM=   60 NAOKFM=F Big=F
 Integral buffers will be    131072 words long.
 Raffenetti 2 integral format.
 Two-electron integral symmetry is turned on.
 Leave Link  301 at Tue Nov 19 13:33:30 2024, MaxMem=  2147483648 cpu:               1.3 elap:               0.1
 (Enter /home/szhao/Apps/g16/l302.exe)
 NPDir=0 NMtPBC=     1 NCelOv=     1 NCel=       1 NClECP=     1 NCelD=      1
         NCelK=      1 NCelE2=     1 NClLst=     1 CellRange=     0.0.
 One-electron integrals computed using PRISM.
 One-electron integral symmetry used in STVInt
 NBasis=    56 RedAO= T EigKep=  3.00D-04  NBF=    30     2    12    12
 NBsUse=    56 1.00D-06 EigRej= -1.00D+00 NBFU=    30     2    12    12
 Precomputing XC quadrature grid using
 IXCGrd= 4 IRadAn=           7 IRanWt=          -1 IRanGd=           0 AccXCQ= 0.00D+00.
 Generated NRdTot=       0 NPtTot=           0 NUsed=           0 NTot=          32
 NSgBfM=    58    58    58    58    58 MxSgAt=     4 MxSgA2=     4.
 Leave Link  302 at Tue Nov 19 13:33:30 2024, MaxMem=  2147483648 cpu:              12.6 elap:               0.7
 (Enter /home/szhao/Apps/g16/l303.exe)
 DipDrv:  MaxL=1.
 Leave Link  303 at Tue Nov 19 13:33:31 2024, MaxMem=  2147483648 cpu:               3.7 elap:               0.3
 (Enter /home/szhao/Apps/g16/l401.exe)
 ExpMin= 4.38D-02 ExpMax= 4.56D+03 ExpMxC= 6.82D+02 IAcc=3 IRadAn=         7 AccDes= 0.00D+00
 Harris functional with IExCor= 1009 and IRadAn=       7 diagonalized for initial guess.
 HarFok:  IExCor= 1009 AccDes= 0.00D+00 IRadAn=         7 IDoV= 1 UseB2=F ITyADJ=14
 ICtDFT=  3500011 ScaDFX=  1.000000  1.000000  1.000000  1.000000
 FoFCou: FMM=F IPFlag=           0 FMFlag=      100000 FMFlg1=           0
         NFxFlg=           0 DoJE=T BraDBF=F KetDBF=T FulRan=T
         wScrn=  0.000000 ICntrl=       500 IOpCl=  0 I1Cent=   200000004 NGrid=           0
         NMat0=    1 NMatS0=      1 NMatT0=    0 NMatD0=    1 NMtDS0=    0 NMtDT0=    0
 Petite list used in FoFCou.
 Harris En= -76.8748158519869    
 JPrj=0 DoOrth=F DoCkMO=F.
 Initial guess orbital symmetries:
 Alpha Orbitals:
       Occupied  (SG) (SG) (SG) (SG) (SG) (PI) (PI)
       Virtual   (PI) (PI) (SG) (SG) (SG) (SG) (PI) (PI) (PI) (PI)
                 (SG) (SG) (SG) (SG) (PI) (PI) (PI) (PI) (SG) (SG)
                 (SG) (SG) (PI) (PI) (SG) (DLTA) (DLTA) (PI) (PI)
                 (DLTA) (DLTA) (SG) (PI) (PI) (SG) (PI) (PI) (SG)
                 (PI) (PI) (SG) (SG) (PI) (PI) (SG) (SG) (SG) (SG)
                 (SG)
 Beta  Orbitals:
       Occupied  (SG) (SG) (SG) (SG) (SG) (PI)
       Virtual   (PI) (PI) (PI) (SG) (SG) (SG) (SG) (PI) (PI) (PI)
                 (PI) (SG) (SG) (SG) (SG) (PI) (PI) (PI) (PI) (SG)
                 (SG) (SG) (SG) (PI) (PI) (SG) (DLTA) (DLTA) (PI)
                 (PI) (DLTA) (DLTA) (SG) (PI) (PI) (SG) (PI) (PI)
                 (SG) (PI) (PI) (SG) (SG) (PI) (PI) (SG) (SG) (SG)
                 (SG) (SG)
 Initial guess <Sx>= 0.0000 <Sy>= 0.0000 <Sz>= 0.5000 <S**2>= 0.7500 S= 0.5000
 Leave Link  401 at Tue Nov 19 13:33:32 2024, MaxMem=  2147483648 cpu:              14.1 elap:               0.8
 (Enter /home/szhao/Apps/g16/l502.exe)
 Keep R1 and R2 ints in memory in symmetry-blocked form, NReq=22505576.
 FoFCou: FMM=F IPFlag=           0 FMFlag=           0 FMFlg1=           0
         NFxFlg=           0 DoJE=F BraDBF=F KetDBF=F FulRan=T
         wScrn=  0.000000 ICntrl=       600 IOpCl=  0 I1Cent=           0 NGrid=           0
         NMat0=    1 NMatS0=   1596 NMatT0=    0 NMatD0=    1 NMtDS0=    0 NMtDT0=    0
 Petite list used in FoFCou.
 UHF open shell SCF:
 Using DIIS extrapolation, IDIIS=  1040.
 NGot=  2147483648 LenX=  2146741758 LenY=  2146737953
 Requested convergence on RMS density matrix=1.00D-08 within 128 cycles.
 Requested convergence on MAX density matrix=1.00D-06.
 Requested convergence on             energy=1.00D-06.
 No special actions if energy rises.

 Cycle   1  Pass 1  IDiag  1:
 E= -76.8400015792548    
 DIIS: error= 2.27D-02 at cycle   1 NSaved=   1.
 NSaved= 1 IEnMin= 1 EnMin= -76.8400015792548     IErMin= 1 ErrMin= 2.27D-02
 ErrMax= 2.27D-02  0.00D+00 EMaxC= 1.00D-01 BMatC= 4.88D-02 BMatP= 4.88D-02
 IDIUse=3 WtCom= 7.73D-01 WtEn= 2.27D-01
 Coeff-Com:  0.100D+01
 Coeff-En:   0.100D+01
 Coeff:      0.100D+01
 Gap=     0.332 Goal=   None    Shift=    0.000
 Gap=     0.200 Goal=   None    Shift=    0.000
 GapD=    0.200 DampG=1.000 DampE=0.500 DampFc=0.5000 IDamp=-1.
 Damping current iteration by 5.00D-01
 RMSDP=1.79D-03 MaxDP=2.44D-02              OVMax= 4.57D-02

 Cycle   2  Pass 1  IDiag  1:
 E= -76.8437665949610     Delta-E=       -0.003765015706 Rises=F Damp=T
 DIIS: error= 1.07D-02 at cycle   2 NSaved=   2.
 NSaved= 2 IEnMin= 2 EnMin= -76.8437665949610     IErMin= 2 ErrMin= 1.07D-02
 ErrMax= 1.07D-02  0.00D+00 EMaxC= 1.00D-01 BMatC= 1.18D-02 BMatP= 4.88D-02
 IDIUse=3 WtCom= 8.93D-01 WtEn= 1.07D-01
 Coeff-Com: -0.851D+00 0.185D+01
 Coeff-En:   0.000D+00 0.100D+01
 Coeff:     -0.760D+00 0.176D+01
 Gap=     0.331 Goal=   None    Shift=    0.000
 Gap=     0.198 Goal=   None    Shift=    0.000
 RMSDP=9.65D-04 MaxDP=1.08D-02 DE=-3.77D-03 OVMax= 1.18D-02

 Cycle   3  Pass 1  IDiag  1:
 E= -76.8474883492034     Delta-E=       -0.003721754242 Rises=F Damp=F
 DIIS: error= 1.85D-03 at cycle   3 NSaved=   3.
 NSaved= 3 IEnMin= 3 EnMin= -76.8474883492034     IErMin= 3 ErrMin= 1.85D-03
 ErrMax= 1.85D-03  0.00D+00 EMaxC= 1.00D-01 BMatC= 2.20D-04 BMatP= 1.18D-02
 IDIUse=3 WtCom= 9.82D-01 WtEn= 1.85D-02
 Coeff-Com: -0.224D+00 0.433D+00 0.791D+00
 Coeff-En:   0.000D+00 0.000D+00 0.100D+01
 Coeff:     -0.220D+00 0.425D+00 0.795D+00
 Gap=     0.331 Goal=   None    Shift=    0.000
 Gap=     0.199 Goal=   None    Shift=    0.000
 RMSDP=1.12D-04 MaxDP=2.68D-03 DE=-3.72D-03 OVMax= 3.18D-03

 Cycle   4  Pass 1  IDiag  1:
 E= -76.8475535288601     Delta-E=       -0.000065179657 Rises=F Damp=F
 DIIS: error= 3.55D-04 at cycle   4 NSaved=   4.
 NSaved= 4 IEnMin= 4 EnMin= -76.8475535288601     IErMin= 4 ErrMin= 3.55D-04
 ErrMax= 3.55D-04  0.00D+00 EMaxC= 1.00D-01 BMatC= 5.62D-06 BMatP= 2.20D-04
 IDIUse=3 WtCom= 9.96D-01 WtEn= 3.55D-03
 Coeff-Com:  0.935D-01-0.186D+00-0.256D+00 0.135D+01
 Coeff-En:   0.000D+00 0.000D+00 0.000D+00 0.100D+01
 Coeff:      0.931D-01-0.186D+00-0.255D+00 0.135D+01
 Gap=     0.331 Goal=   None    Shift=    0.000
 Gap=     0.199 Goal=   None    Shift=    0.000
 RMSDP=4.09D-05 MaxDP=8.76D-04 DE=-6.52D-05 OVMax= 1.38D-03

 Cycle   5  Pass 1  IDiag  1:
 E= -76.8475574824129     Delta-E=       -0.000003953553 Rises=F Damp=F
 DIIS: error= 6.20D-05 at cycle   5 NSaved=   5.
 NSaved= 5 IEnMin= 5 EnMin= -76.8475574824129     IErMin= 5 ErrMin= 6.20D-05
 ErrMax= 6.20D-05  0.00D+00 EMaxC= 1.00D-01 BMatC= 2.56D-07 BMatP= 5.62D-06
 IDIUse=1 WtCom= 1.00D+00 WtEn= 0.00D+00
 Coeff-Com: -0.173D-01 0.356D-01 0.374D-01-0.384D+00 0.133D+01
 Coeff:     -0.173D-01 0.356D-01 0.374D-01-0.384D+00 0.133D+01
 Gap=     0.331 Goal=   None    Shift=    0.000
 Gap=     0.199 Goal=   None    Shift=    0.000
 RMSDP=9.67D-06 MaxDP=1.44D-04 DE=-3.95D-06 OVMax= 2.58D-04

 Cycle   6  Pass 1  IDiag  1:
 E= -76.8475576510699     Delta-E=       -0.000000168657 Rises=F Damp=F
 DIIS: error= 7.00D-06 at cycle   6 NSaved=   6.
 NSaved= 6 IEnMin= 6 EnMin= -76.8475576510699     IErMin= 6 ErrMin= 7.00D-06
 ErrMax= 7.00D-06  0.00D+00 EMaxC= 1.00D-01 BMatC= 4.79D-09 BMatP= 2.56D-07
 IDIUse=1 WtCom= 1.00D+00 WtEn= 0.00D+00
 Coeff-Com: -0.173D-02 0.341D-02 0.548D-02-0.277D-01-0.290D-01 0.105D+01
 Coeff:     -0.173D-02 0.341D-02 0.548D-02-0.277D-01-0.290D-01 0.105D+01
 Gap=     0.331 Goal=   None    Shift=    0.000
 Gap=     0.199 Goal=   None    Shift=    0.000
 RMSDP=1.02D-06 MaxDP=1.41D-05 DE=-1.69D-07 OVMax= 2.67D-05

 Cycle   7  Pass 1  IDiag  1:
 E= -76.8475576526324     Delta-E=       -0.000000001563 Rises=F Damp=F
 DIIS: error= 5.76D-06 at cycle   7 NSaved=   7.
 NSaved= 7 IEnMin= 7 EnMin= -76.8475576526324     IErMin= 7 ErrMin= 5.76D-06
 ErrMax= 5.76D-06  0.00D+00 EMaxC= 1.00D-01 BMatC= 3.01D-09 BMatP= 4.79D-09
 IDIUse=1 WtCom= 1.00D+00 WtEn= 0.00D+00
 Coeff-Com: -0.478D-03 0.912D-03 0.208D-02-0.473D-02-0.501D-01 0.536D+00
 Coeff-Com:  0.516D+00
 Coeff:     -0.478D-03 0.912D-03 0.208D-02-0.473D-02-0.501D-01 0.536D+00
 Coeff:      0.516D+00
 Gap=     0.331 Goal=   None    Shift=    0.000
 Gap=     0.199 Goal=   None    Shift=    0.000
 RMSDP=3.79D-07 MaxDP=5.82D-06 DE=-1.56D-09 OVMax= 1.99D-05

 Cycle   8  Pass 1  IDiag  1:
 E= -76.8475576532683     Delta-E=       -0.000000000636 Rises=F Damp=F
 DIIS: error= 2.83D-06 at cycle   8 NSaved=   8.
 NSaved= 8 IEnMin= 8 EnMin= -76.8475576532683     IErMin= 8 ErrMin= 2.83D-06
 ErrMax= 2.83D-06  0.00D+00 EMaxC= 1.00D-01 BMatC= 7.27D-10 BMatP= 3.01D-09
 IDIUse=1 WtCom= 1.00D+00 WtEn= 0.00D+00
 Coeff-Com:  0.227D-03-0.466D-03-0.315D-03 0.566D-02-0.214D-01-0.194D-01
 Coeff-Com:  0.335D+00 0.701D+00
 Coeff:      0.227D-03-0.466D-03-0.315D-03 0.566D-02-0.214D-01-0.194D-01
 Coeff:      0.335D+00 0.701D+00
 Gap=     0.331 Goal=   None    Shift=    0.000
 Gap=     0.199 Goal=   None    Shift=    0.000
 RMSDP=1.40D-07 MaxDP=2.50D-06 DE=-6.36D-10 OVMax= 6.77D-06

 Cycle   9  Pass 1  IDiag  1:
 E= -76.8475576534714     Delta-E=       -0.000000000203 Rises=F Damp=F
 DIIS: error= 1.20D-07 at cycle   9 NSaved=   9.
 NSaved= 9 IEnMin= 9 EnMin= -76.8475576534714     IErMin= 9 ErrMin= 1.20D-07
 ErrMax= 1.20D-07  0.00D+00 EMaxC= 1.00D-01 BMatC= 1.14D-12 BMatP= 7.27D-10
 IDIUse=1 WtCom= 1.00D+00 WtEn= 0.00D+00
 Coeff-Com:  0.796D-05-0.137D-04-0.663D-04-0.679D-04 0.248D-02-0.165D-01
 Coeff-Com: -0.330D-01-0.343D-01 0.108D+01
 Coeff:      0.796D-05-0.137D-04-0.663D-04-0.679D-04 0.248D-02-0.165D-01
 Coeff:     -0.330D-01-0.343D-01 0.108D+01
 Gap=     0.331 Goal=   None    Shift=    0.000
 Gap=     0.199 Goal=   None    Shift=    0.000
 RMSDP=1.23D-08 MaxDP=1.37D-07 DE=-2.03D-10 OVMax= 3.45D-07

 Cycle  10  Pass 1  IDiag  1:
 E= -76.8475576534721     Delta-E=       -0.000000000001 Rises=F Damp=F
 DIIS: error= 1.36D-08 at cycle  10 NSaved=  10.
 NSaved=10 IEnMin=10 EnMin= -76.8475576534721     IErMin=10 ErrMin= 1.36D-08
 ErrMax= 1.36D-08  0.00D+00 EMaxC= 1.00D-01 BMatC= 1.07D-14 BMatP= 1.14D-12
 IDIUse=1 WtCom= 1.00D+00 WtEn= 0.00D+00
 Coeff-Com: -0.358D-05 0.705D-05 0.739D-05-0.426D-04-0.312D-04 0.147D-02
 Coeff-Com:  0.931D-03-0.138D-02-0.118D+00 0.112D+01
 Coeff:     -0.358D-05 0.705D-05 0.739D-05-0.426D-04-0.312D-04 0.147D-02
 Coeff:      0.931D-03-0.138D-02-0.118D+00 0.112D+01
 Gap=     0.331 Goal=   None    Shift=    0.000
 Gap=     0.199 Goal=   None    Shift=    0.000
 RMSDP=1.52D-09 MaxDP=2.34D-08 DE=-6.39D-13 OVMax= 3.49D-08

 SCF Done:  E(UM062X) =  -76.8475576535     A.U. after   10 cycles
            NFock= 10  Conv=0.15D-08     -V/T= 2.0114
 <Sx>= 0.0000 <Sy>= 0.0000 <Sz>= 0.5000 <S**2>= 0.7523 S= 0.5011
 <L.S>=  0.00000000000    
 KE= 7.598499998084D+01 PE=-2.166751514113D+02 EE= 4.225749479601D+01
 Annihilation of the first spin contaminant:
 S**2 before annihilation     0.7523,   after     0.7500
 Leave Link  502 at Tue Nov 19 13:33:35 2024, MaxMem=  2147483648 cpu:              52.5 elap:               2.7
 (Enter /home/szhao/Apps/g16/l601.exe)
 Copying SCF densities to generalized density rwf, IOpCl= 1 IROHF=0.

 **********************************************************************

            Population analysis using the SCF density.

 **********************************************************************

 Orbital symmetries:
 Alpha Orbitals:
       Occupied  (SG) (SG) (SG) (SG) (SG) (PI) (PI)
       Virtual   (PI) (PI) (SG) (SG) (SG) (PI) (SG) (PI) (PI) (PI)
                 (SG) (SG) (SG) (SG) (PI) (PI) (PI) (PI) (SG) (SG)
                 (SG) (SG) (PI) (PI) (SG) (DLTA) (DLTA) (PI) (PI)
                 (DLTA) (DLTA) (SG) (PI) (PI) (SG) (PI) (PI) (SG)
                 (PI) (PI) (SG) (SG) (PI) (PI) (SG) (SG) (SG) (SG)
                 (SG)
 Beta  Orbitals:
       Occupied  (SG) (SG) (SG) (SG) (SG) (?A)
       Virtual   (?A) (?B) (?B) (SG) (SG) (SG) (?A) (?A) (SG) (?B)
                 (?B) (SG) (SG) (SG) (SG) (?A) (?A) (PI) (PI) (SG)
                 (SG) (SG) (SG) (PI) (PI) (SG) (DLTA) (DLTA) (PI)
                 (PI) (DLTA) (DLTA) (SG) (PI) (PI) (SG) (PI) (PI)
                 (SG) (PI) (PI) (SG) (SG) (PI) (PI) (SG) (SG) (SG)
                 (SG) (SG)
 Unable to determine electronic state:  an orbital has unidentified symmetry.
 Alpha  occ. eigenvalues --  -10.97473 -10.97399  -1.15837  -0.98303  -0.87530
 Alpha  occ. eigenvalues --   -0.67774  -0.65426
 Alpha virt. eigenvalues --   -0.32304  -0.30286  -0.19538  -0.14350  -0.11117
 Alpha virt. eigenvalues --   -0.09661  -0.09516  -0.09415  -0.05141  -0.04776
 Alpha virt. eigenvalues --    0.02038   0.04318   0.11244   0.20577   0.30957
 Alpha virt. eigenvalues --    0.32245   0.36329   0.36932   0.45572   0.45654
 Alpha virt. eigenvalues --    0.49777   0.55120   0.71007   0.72438   0.79879
 Alpha virt. eigenvalues --    0.90029   0.90189   1.12185   1.12841   1.15972
 Alpha virt. eigenvalues --    1.16097   1.37012   1.45571   1.46624   1.63307
 Alpha virt. eigenvalues --    1.98030   1.99891   2.22720   2.38848   2.41617
 Alpha virt. eigenvalues --    2.44028   2.46131   2.52355   2.55488   2.90120
 Alpha virt. eigenvalues --    2.92231   3.32232  23.20339  23.88121
  Beta  occ. eigenvalues --  -10.97235 -10.97179  -1.11476  -0.96640  -0.86931
  Beta  occ. eigenvalues --   -0.63169
  Beta virt. eigenvalues --   -0.43284  -0.28595  -0.24931  -0.17750  -0.15485
  Beta virt. eigenvalues --   -0.11390  -0.09981  -0.09757  -0.09520  -0.04857
  Beta virt. eigenvalues --   -0.04424   0.01466   0.04471   0.11798   0.21486
  Beta virt. eigenvalues --    0.29949   0.32183   0.35103   0.36760   0.43667
  Beta virt. eigenvalues --    0.46564   0.50767   0.56399   0.74315   0.75027
  Beta virt. eigenvalues --    0.77024   0.93593   0.95818   1.13635   1.14687
  Beta virt. eigenvalues --    1.18829   1.20970   1.38735   1.47422   1.48252
  Beta virt. eigenvalues --    1.65476   2.00471   2.01273   2.25304   2.42164
  Beta virt. eigenvalues --    2.42846   2.46006   2.49858   2.56265   2.57036
  Beta virt. eigenvalues --    2.93415   3.01170   3.33572  23.21373  23.89863
          Condensed to atoms (all electrons):
               1          2          3          4
     1  C    4.731103   0.762680   0.333755   0.011126
     2  C    0.762680   4.731103   0.011126   0.333755
     3  H    0.333755   0.011126   0.316412   0.000043
     4  H    0.011126   0.333755   0.000043   0.316412
          Atomic-Atomic Spin Densities.
               1          2          3          4
     1  C    0.422302   0.103679  -0.006000   0.000252
     2  C    0.103679   0.422302   0.000252  -0.006000
     3  H   -0.006000   0.000252  -0.014501   0.000016
     4  H    0.000252  -0.006000   0.000016  -0.014501
 Mulliken charges and spin densities:
               1          2
     1  C    0.161337   0.520233
     2  C    0.161336   0.520233
     3  H    0.338664  -0.020233
     4  H    0.338663  -0.020233
 Sum of Mulliken charges =   1.00000   1.00000
 Mulliken charges and spin densities with hydrogens summed into heavy atoms:
               1          2
     1  C    0.500000   0.500000
     2  C    0.500000   0.500000
 Electronic spatial extent (au):  <R**2>=             61.9270
 Charge=              1.0000 electrons
 Dipole moment (field-independent basis, Debye):
    X=              0.0000    Y=              0.0000    Z=              0.0000  Tot=              0.0000
 Quadrupole moment (field-independent basis, Debye-Ang):
   XX=            -10.1636   YY=            -12.1220   ZZ=              1.0861
   XY=              0.0000   XZ=              0.0000   YZ=             -0.0000
 Traceless Quadrupole moment (field-independent basis, Debye-Ang):
   XX=             -3.0971   YY=             -5.0555   ZZ=              8.1526
   XY=              0.0000   XZ=              0.0000   YZ=             -0.0000
 Octapole moment (field-independent basis, Debye-Ang**2):
  XXX=              0.0000  YYY=              0.0000  ZZZ=              0.0000  XYY=              0.0000
  XXY=              0.0000  XXZ=             -0.0000  XZZ=              0.0000  YZZ=              0.0000
  YYZ=             -0.0000  XYZ=             -0.0000
 Hexadecapole moment (field-independent basis, Debye-Ang**3):
 XXXX=             -9.5131 YYYY=            -13.1964 ZZZZ=            -16.6000 XXXY=              0.0000
 XXXZ=             -0.0000 YYYX=              0.0000 YYYZ=             -0.0000 ZZZX=              0.0000
 ZZZY=             -0.0000 XXYY=             -3.7849 XXZZ=            -11.0035 YYZZ=            -12.3609
 XXYZ=             -0.0000 YYXZ=             -0.0000 ZZXY=              0.0000
 N-N= 2.158509898098D+01 E-N=-2.166751515860D+02  KE= 7.598499998084D+01
 Symmetry A1   KE= 7.248762349185D+01
 Symmetry A2   KE= 7.951305679198D-36
 Symmetry B1   KE= 1.181176661915D+00
 Symmetry B2   KE= 2.316199827082D+00
 Symmetry A1   SP= 1.419143008582D-14
 Symmetry A2   SP= 1.190739762377D-36
 Symmetry B1   SP= 1.000000000000D+00
 Symmetry B2   SP=-8.704890196707D-16
                          Isotropic Fermi Contact Couplings
        Atom                 a.u.       MegaHertz       Gauss      10(-4) cm-1
     1  C(13)              0.08785      98.76466      35.24169      32.94434
     2  C(13)              0.08785      98.76460      35.24167      32.94433
     3  H(1)              -0.01074     -47.99443     -17.12561     -16.00922
     4  H(1)              -0.01074     -47.99439     -17.12559     -16.00921
 --------------------------------------------------------
       Center         ----  Spin Dipole Couplings  ----
                      3XX-RR        3YY-RR        3ZZ-RR
 --------------------------------------------------------
     1   Atom        0.626680     -0.331127     -0.295552
     2   Atom        0.626680     -0.331127     -0.295552
     3   Atom       -0.009871     -0.039006      0.048876
     4   Atom       -0.009871     -0.039006      0.048876
 --------------------------------------------------------
                        XY            XZ            YZ
 --------------------------------------------------------
     1   Atom        0.000000      0.000000      0.000000
     2   Atom        0.000000     -0.000000      0.000000
     3   Atom        0.000000     -0.000000      0.000000
     4   Atom        0.000000      0.000000      0.000000
 --------------------------------------------------------


 ---------------------------------------------------------------------------------
              Anisotropic Spin Dipole Couplings in Principal Axis System
 ---------------------------------------------------------------------------------

       Atom             a.u.   MegaHertz   Gauss  10(-4) cm-1        Axes

              Baa    -0.3311   -44.434   -15.855   -14.822 -0.0000  1.0000 -0.0000
     1 C(13)  Bbb    -0.2956   -39.660   -14.152   -13.229  0.0000  0.0000  1.0000
              Bcc     0.6267    84.094    30.007    28.051  1.0000 -0.0000 -0.0000
 
              Baa    -0.3311   -44.434   -15.855   -14.822  0.0000  1.0000  0.0000
     2 C(13)  Bbb    -0.2956   -39.660   -14.152   -13.229  0.0000  0.0000  1.0000
              Bcc     0.6267    84.094    30.007    28.051  1.0000  0.0000  0.0000
 
              Baa    -0.0390   -20.812    -7.426    -6.942  0.0000  1.0000  0.0000
     3 H(1)   Bbb    -0.0099    -5.266    -1.879    -1.757  1.0000  0.0000  0.0000
              Bcc     0.0489    26.078     9.305     8.699  0.0000  0.0000  1.0000
 
              Baa    -0.0390   -20.812    -7.426    -6.942 -0.0000  1.0000 -0.0000
     4 H(1)   Bbb    -0.0099    -5.266    -1.879    -1.757  1.0000 -0.0000 -0.0000
              Bcc     0.0489    26.078     9.305     8.699  0.0000  0.0000  1.0000
 

 ---------------------------------------------------------------------------------

 No NMR shielding tensors so no spin-rotation constants.
 Leave Link  601 at Tue Nov 19 13:33:35 2024, MaxMem=  2147483648 cpu:               8.3 elap:               0.4
 (Enter /home/szhao/Apps/g16/l701.exe)
 ... and contract with generalized density number  0.
 Compute integral first derivatives.
 Leave Link  701 at Tue Nov 19 13:33:35 2024, MaxMem=  2147483648 cpu:               6.2 elap:               0.3
 (Enter /home/szhao/Apps/g16/l702.exe)
 L702 exits ... SP integral derivatives will be done elsewhere.
 Leave Link  702 at Tue Nov 19 13:33:36 2024, MaxMem=  2147483648 cpu:               1.6 elap:               0.1
 (Enter /home/szhao/Apps/g16/l703.exe)
 Integral derivatives from FoFJK, PRISM(SPDF).
 Compute integral first derivatives, UseDBF=F ICtDFT=           0.
 Calling FoFJK, ICntrl=      2127 FMM=F ISym2X=1 I1Cent= 0 IOpClX= 1 NMat=1 NMatS=1 NMatT=0.
 FoFJK:  IHMeth= 1 ICntrl=    2127 DoSepK=F KAlg= 0 I1Cent=           0 FoldK=F
 IRaf=         0 NMat=       1 IRICut=       1 DoRegI=T DoRafI=F ISym2E= 1 IDoP0=0 IntGTp=1.
 FoFCou: FMM=F IPFlag=           0 FMFlag=      100000 FMFlg1=         800
         NFxFlg=           0 DoJE=F BraDBF=F KetDBF=F FulRan=T
         wScrn=  0.000000 ICntrl=      2127 IOpCl=  1 I1Cent=           0 NGrid=           0
         NMat0=    1 NMatS0=      1 NMatT0=    0 NMatD0=    1 NMtDS0=    0 NMtDT0=    0
 Petite list used in FoFCou.
 Leave Link  703 at Tue Nov 19 13:33:37 2024, MaxMem=  2147483648 cpu:              13.3 elap:               0.8
 (Enter /home/szhao/Apps/g16/l716.exe)
 Dipole        = 1.55652582D-21 9.27367982D-31 9.85573797D-07
 ***** Axes restored to original set *****
 -------------------------------------------------------------------
 Center     Atomic                   Forces (Hartrees/Bohr)
 Number     Number              X              Y              Z
 -------------------------------------------------------------------
      1        6           0.222040009    0.000000062   -0.000000125
      2        6          -0.222040697   -0.000000062    0.000000125
      3        1           0.000005654    0.000000000   -0.000000000
      4        1          -0.000004967   -0.000000000    0.000000000
 -------------------------------------------------------------------
 Cartesian Forces:  Max     0.222040697 RMS     0.090647595
 Z-matrix is all fixed cartesians, so copy forces.
 Force constants in Cartesian coordinates: 
                1             2             3             4             5 
      1  0.728159D+00
      2  0.000000D+00  0.136926D+00
      3  0.000000D+00  0.000000D+00  0.136926D+00
      4 -0.377332D+00  0.000000D+00  0.000000D+00  0.728160D+00
      5  0.000000D+00 -0.990533D-01  0.000000D+00  0.000000D+00  0.136926D+00
      6  0.000000D+00  0.000000D+00 -0.990533D-01  0.000000D+00  0.000000D+00
      7 -0.350827D+00  0.000000D+00  0.000000D+00  0.000000D+00  0.000000D+00
      8  0.000000D+00 -0.662044D-01  0.000000D+00  0.000000D+00  0.283319D-01
      9  0.000000D+00  0.000000D+00 -0.662044D-01  0.000000D+00  0.000000D+00
     10  0.000000D+00  0.000000D+00  0.000000D+00 -0.350828D+00  0.000000D+00
     11  0.000000D+00  0.283319D-01  0.000000D+00  0.000000D+00 -0.662045D-01
     12  0.000000D+00  0.000000D+00  0.283319D-01  0.000000D+00  0.000000D+00
                6             7             8             9            10 
      6  0.136926D+00
      7  0.000000D+00  0.350827D+00
      8  0.000000D+00  0.000000D+00  0.378725D-01
      9  0.283319D-01  0.000000D+00  0.000000D+00  0.378725D-01
     10  0.000000D+00  0.000000D+00  0.000000D+00  0.000000D+00  0.350828D+00
     11  0.000000D+00  0.000000D+00  0.000000D+00  0.000000D+00  0.000000D+00
     12 -0.662045D-01  0.000000D+00  0.000000D+00  0.000000D+00  0.000000D+00
               11            12 
     11  0.378726D-01
     12  0.000000D+00  0.378726D-01
 Leave Link  716 at Tue Nov 19 13:33:37 2024, MaxMem=  2147483648 cpu:               2.0 elap:               0.2
 (Enter /home/szhao/Apps/g16/l103.exe)

 GradGradGradGradGradGradGradGradGradGradGradGradGradGradGradGradGradGrad
 Berny optimization.
 Search for a local minimum.
 Step number   1 out of a maximum of    2
 All quantities printed in internal units (Hartrees-Bohrs-Radians)
 Second derivative matrix not updated -- first step.
 The second derivative matrix:
                          X1        Y1        Z1        X2        Y2
           X1           0.72816
           Y1           0.00000   0.13693
           Z1          -0.00000  -0.00000   0.13693
           X2          -0.37733  -0.00000   0.00000   0.72816
           Y2          -0.00000  -0.09905   0.00000   0.00000   0.13693
           Z2           0.00000   0.00000  -0.09905  -0.00000  -0.00000
           X3          -0.35083  -0.00000   0.00000   0.00000  -0.00000
           Y3          -0.00000  -0.06620   0.00000  -0.00000   0.02833
           Z3           0.00000   0.00000  -0.06620   0.00000   0.00000
           X4           0.00000  -0.00000   0.00000  -0.35083  -0.00000
           Y4          -0.00000   0.02833   0.00000  -0.00000  -0.06620
           Z4           0.00000   0.00000   0.02833   0.00000   0.00000
                          Z2        X3        Y3        Z3        X4
           Z2           0.13693
           X3           0.00000   0.35083
           Y3           0.00000   0.00000   0.03787
           Z3           0.02833  -0.00000  -0.00000   0.03787
           X4           0.00000   0.00000   0.00000   0.00000   0.35083
           Y4           0.00000   0.00000   0.00000   0.00000   0.00000
           Z4          -0.06620   0.00000   0.00000   0.00000  -0.00000
                          Y4        Z4
           Y4           0.03787
           Z4          -0.00000   0.03787
 ITU=  0
     Eigenvalues ---    0.06438   0.06438   0.21293   0.23332   0.23332
     Eigenvalues ---    0.59636   1.24339
 Quadratic step=5.885D-01 exceeds max=3.000D-01 adjusted using Lamda=-2.838D-01.
 Angle between NR and scaled steps=  16.06 degrees.
 Angle between quadratic step and forces=  28.94 degrees.
 ClnCor:  largest displacement from symmetrization is 8.08D-17 for atom     4.
 Linear search not attempted -- first point.
 ClnCor:  largest displacement from symmetrization is 4.44D-16 for atom     3.
 B after Tr=    -0.000000   -0.000000    0.000000
         Rot=    1.000000    0.000000   -0.000000    0.000000 Ang=   0.00 deg.
 Variable       Old X    -DE/DX   Delta X   Delta X   Delta X     New X
                                 (Linear)    (Quad)   (Total)
    X1       -1.37378   0.22204   0.00000   0.18576   0.18576  -1.18801
    Y1       -0.00001   0.00000   0.00000   0.00000   0.00000  -0.00001
    Z1        0.00000  -0.00000   0.00000  -0.00000  -0.00000   0.00000
    X2        1.37378  -0.22204   0.00000  -0.18576  -0.18576   1.18801
    Y2       -0.00001  -0.00000   0.00000  -0.00000  -0.00000  -0.00001
    Z2        0.00000   0.00000   0.00000   0.00000   0.00000   0.00000
    X3       -3.42918   0.00001   0.00000   0.10271   0.10271  -3.32648
    Y3       -0.00001   0.00000   0.00000   0.00000   0.00000  -0.00001
    Z3        0.00000  -0.00000   0.00000  -0.00000  -0.00000   0.00000
    X4        3.42918  -0.00000   0.00000  -0.10271  -0.10271   3.32648
    Y4       -0.00001  -0.00000   0.00000  -0.00000  -0.00000  -0.00001
    Z4        0.00000   0.00000   0.00000   0.00000   0.00000   0.00000
         Item               Value     Threshold  Converged?
 Maximum Force            0.222041     0.000450     NO 
 RMS     Force            0.090648     0.000300     NO 
 Maximum Displacement     0.185763     0.001800     NO 
 RMS     Displacement     0.086657     0.001200     NO 
 Predicted change in Energy=-5.403285D-02
 GradGradGradGradGradGradGradGradGradGradGradGradGradGradGradGradGradGrad

 Leave Link  103 at Tue Nov 19 13:33:37 2024, MaxMem=  2147483648 cpu:               5.6 elap:               0.3
 (Enter /home/szhao/Apps/g16/l9999.exe)
 1\1\GINC-NODE02\Force\UM062X\6-311+G(d,p)\C2H2(1+,2)\SZHAO\19-Nov-2024
 \0\\#p UM062X/6-311+G** force int=superfine\\Title Card Required\\1,2\
 C,-0.726971,-0.0000034898,0.0000018367\C,0.726971,-0.0000030816,0.0000
 010204\H,-1.814646,-0.0000037952,0.0000024474\H,1.814645,-0.0000027763
 ,0.0000004097\\Version=ES64L-G16RevA.03\HF=-76.8475577\S2=0.75229\S2-1
 =0.\S2A=0.750004\RMSD=1.520e-09\RMSF=9.065e-02\Dipole=-0.000001,0.,0.\
 Quadrupole=6.0612535,-3.758633,-2.3026205,0.0000028,-0.0000047,-0.0000
 004\PG=C*V [C*(H1C1C1H1)]\\@


 THAT'S WHAT MAKES US A GREAT COUNTRY.
 THE LITTLE THINGS ARE SERIOUS AND THE BIG ONES ARE NOT.
           WILL ROGERS
 Job cpu time:       0 days  0 hours  2 minutes 16.4 seconds.
 Elapsed time:       0 days  0 hours  0 minutes  7.7 seconds.
 File lengths (MBytes):  RWF=     17 Int=      0 D2E=      0 Chk=      2 Scr=      2
 Normal termination of Gaussian 16 at Tue Nov 19 13:33:38 2024.
