 Entering Gaussian System, Link 0=g16
 Initial command:
 /home/szhao/Apps/g16/l1.exe "/home/szhao/tmp/Gau-45053.inp" -scrdir="/home/szhao/tmp/"
 Default is to use a total of  16 processors:
                               16 via shared-memory
                                1 via Linda
 Entering Link 1 = /home/szhao/Apps/g16/l1.exe PID=     45055.
  
 Copyright (c) 1988,1990,1992,1993,1995,1998,2003,2009,2016,
            Gaussian, Inc.  All Rights Reserved.
  
 This is part of the Gaussian(R) 16 program.  It is based on
 the Gaussian(R) 09 system (copyright 2009, Gaussian, Inc.),
 the Gaussian(R) 03 system (copyright 2003, Gaussian, Inc.),
 the Gaussian(R) 98 system (copyright 1998, Gaussian, Inc.),
 the Gaussian(R) 94 system (copyright 1995, Gaussian, Inc.),
 the Gaussian 92(TM) system (copyright 1992, Gaussian, Inc.),
 the Gaussian 90(TM) system (copyright 1990, Gaussian, Inc.),
 the Gaussian 88(TM) system (copyright 1988, Gaussian, Inc.),
 the Gaussian 86(TM) system (copyright 1986, Carnegie Mellon
 University), and the Gaussian 82(TM) system (copyright 1983,
 Carnegie Mellon University). Gaussian is a federally registered
 trademark of Gaussian, Inc.
  
 This software contains proprietary and confidential information,
 including trade secrets, belonging to Gaussian, Inc.
  
 This software is provided under written license and may be
 used, copied, transmitted, or stored only in accord with that
 written license.
  
 The following legend is applicable only to US Government
 contracts under FAR:
  
                    RESTRICTED RIGHTS LEGEND
  
 Use, reproduction and disclosure by the US Government is
 subject to restrictions as set forth in subparagraphs (a)
 and (c) of the Commercial Computer Software - Restricted
 Rights clause in FAR 52.227-19.
  
 Gaussian, Inc.
 340 Quinnipiac St., Bldg. 40, Wallingford CT 06492
  
  
 ---------------------------------------------------------------
 Warning -- This program may not be used in any manner that
 competes with the business of Gaussian, Inc. or will provide
 assistance to any competitor of Gaussian, Inc.  The licensee
 of this program is prohibited from giving any competitor of
 Gaussian, Inc. access to this program.  By using this program,
 the user acknowledges that Gaussian, Inc. is engaged in the
 business of creating and licensing software in the field of
 computational chemistry and represents and warrants to the
 licensee that it is not a competitor of Gaussian, Inc. and that
 it will not use this program in any manner prohibited above.
 ---------------------------------------------------------------
  

 Cite this work as:
 Gaussian 16, Revision A.03,
 M. J. Frisch, G. W. Trucks, H. B. Schlegel, G. E. Scuseria, 
 M. A. Robb, J. R. Cheeseman, G. Scalmani, V. Barone, 
 G. A. Petersson, H. Nakatsuji, X. Li, M. Caricato, A. V. Marenich, 
 J. Bloino, B. G. Janesko, R. Gomperts, B. Mennucci, H. P. Hratchian, 
 J. V. Ortiz, A. F. Izmaylov, J. L. Sonnenberg, D. Williams-Young, 
 F. Ding, F. Lipparini, F. Egidi, J. Goings, B. Peng, A. Petrone, 
 T. Henderson, D. Ranasinghe, V. G. Zakrzewski, J. Gao, N. Rega, 
 G. Zheng, W. Liang, M. Hada, M. Ehara, K. Toyota, R. Fukuda, 
 J. Hasegawa, M. Ishida, T. Nakajima, Y. Honda, O. Kitao, H. Nakai, 
 T. Vreven, K. Throssell, J. A. Montgomery, Jr., J. E. Peralta, 
 F. Ogliaro, M. J. Bearpark, J. J. Heyd, E. N. Brothers, K. N. Kudin, 
 V. N. Staroverov, T. A. Keith, R. Kobayashi, J. Normand, 
 K. Raghavachari, A. P. Rendell, J. C. Burant, S. S. Iyengar, 
 J. Tomasi, M. Cossi, J. M. Millam, M. Klene, C. Adamo, R. Cammi, 
 J. W. Ochterski, R. L. Martin, K. Morokuma, O. Farkas, 
 J. B. Foresman, and D. J. Fox, Gaussian, Inc., Wallingford CT, 2016.
 
 ******************************************
 Gaussian 16:  ES64L-G16RevA.03 25-Dec-2016
                19-Nov-2024 
 ******************************************
 %chk=opt.chk
 %mem=4GB
 %nprocshared=8
 Will use up to    8 processors via shared memory.
 --------------------------------------------
 #p opt UM062X/6-311+G** nosymm int=superfine
 --------------------------------------------
 1/18=20,19=15,26=5,38=1/1,3;
 2/9=110,12=2,15=1,17=6,18=5,40=1/2;
 3/5=4,6=6,7=111,11=2,25=1,30=1,71=1,74=-55,75=-7,116=2/1,2,3;
 4//1;
 5/5=2,38=5/2;
 6/7=2,8=2,9=2,10=2,28=1/1;
 7/30=1/1,2,3,16;
 1/18=20,19=15,26=5/3(2);
 2/9=110,15=1/2;
 99//99;
 2/9=110,15=1/2;
 3/5=4,6=6,7=111,11=2,25=1,30=1,71=1,74=-55,75=-7,116=2/1,2,3;
 4/5=5,16=3,69=1/1;
 5/5=2,38=5/2;
 7/30=1/1,2,3,16;
 1/18=20,19=15,26=5/3(-5);
 2/9=110,15=1/2;
 6/7=2,8=2,9=2,10=2,19=2,28=1/1;
 99/9=1/99;
 Leave Link    1 at Tue Nov 19 11:22:31 2024, MaxMem=   536870912 cpu:               0.3 elap:               0.0
 (Enter /home/szhao/Apps/g16/l101.exe)
 -------------------
 Title Card Required
 -------------------
 Symbolic Z-matrix:
 Charge =  1 Multiplicity = 2
 C                    -1   -1.03206   0.        0. 
 C                    -1    1.03206   0.        0. 
 H                    0    -1.84357  -0.9323    0. 
 H                    0    -1.83877   0.93666   0. 
 H                    0     1.84357   0.9323    0. 
 H                    0     1.83877  -0.93666   0. 
 
 Add virtual bond connecting atoms C2         and C1         Dist= 3.90D+00.
 ITRead=  2  2  0  0  0  0
 MicOpt= -2 -2 -1 -1 -1 -1
 NAtoms=      6 NQM=        4 NQMF=       2 NMMI=      0 NMMIF=      0
                NMic=       0 NMicF=      0.
                    Isotopes and Nuclear Properties:
 (Nuclear quadrupole moments (NQMom) in fm**2, nuclear magnetic moments (NMagM)
  in nuclear magnetons)

  Atom         1           2           3           4           5           6
 IAtWgt=          12          12           1           1           1           1
 AtmWgt=  12.0000000  12.0000000   1.0078250   1.0078250   1.0078250   1.0078250
 NucSpn=           0           0           1           1           1           1
 AtZEff=  -0.0000000  -0.0000000  -0.0000000  -0.0000000  -0.0000000  -0.0000000
 NQMom=    0.0000000   0.0000000   0.0000000   0.0000000   0.0000000   0.0000000
 NMagM=    0.0000000   0.0000000   2.7928460   2.7928460   2.7928460   2.7928460
 AtZNuc=   6.0000000   6.0000000   1.0000000   1.0000000   1.0000000   1.0000000
 Leave Link  101 at Tue Nov 19 11:22:31 2024, MaxMem=   536870912 cpu:               2.4 elap:               0.3
 (Enter /home/szhao/Apps/g16/l103.exe)

 GradGradGradGradGradGradGradGradGradGradGradGradGradGradGradGradGradGrad
 Berny optimization.
 Initialization pass.
                           ----------------------------
                           !    Initial Parameters    !
                           ! (Angstroms and Degrees)  !
 --------------------------                            --------------------------
 ! Name  Definition              Value          Derivative Info.                !
 --------------------------------------------------------------------------------
 ! X1    R(1,-1)                -1.0321         Frozen                          !
 ! Y1    R(1,-2)                 0.0            Frozen                          !
 ! Z1    R(1,-3)                 0.0            Frozen                          !
 ! X2    R(2,-1)                 1.0321         Frozen                          !
 ! Y2    R(2,-2)                 0.0            Frozen                          !
 ! Z2    R(2,-3)                 0.0            Frozen                          !
 ! R1    R(1,3)                  1.236          estimate D2E/DX2                !
 ! R2    R(1,4)                  1.2362         estimate D2E/DX2                !
 ! R3    R(2,5)                  1.236          estimate D2E/DX2                !
 ! R4    R(2,6)                  1.2362         estimate D2E/DX2                !
 ! A1    A(2,1,3)              131.0375         estimate D2E/DX2                !
 ! A2    A(2,1,4)              130.7371         estimate D2E/DX2                !
 ! A3    A(3,1,4)               98.2254         estimate D2E/DX2                !
 ! A4    A(1,2,5)              131.0375         estimate D2E/DX2                !
 ! A5    A(1,2,6)              130.7371         estimate D2E/DX2                !
 ! A6    A(5,2,6)               98.2254         estimate D2E/DX2                !
 ! D1    D(3,1,2,5)            180.0            estimate D2E/DX2                !
 ! D2    D(3,1,2,6)              0.0            estimate D2E/DX2                !
 ! D3    D(4,1,2,5)              0.0            estimate D2E/DX2                !
 ! D4    D(4,1,2,6)            180.0            estimate D2E/DX2                !
 --------------------------------------------------------------------------------
 Trust Radius=3.00D-01 FncErr=1.00D-07 GrdErr=1.00D-07 EigMax=2.50D+02 EigMin=1.00D-04
 Number of steps in this run=     30 maximum allowed number of steps=    100.
 GradGradGradGradGradGradGradGradGradGradGradGradGradGradGradGradGradGrad

 Leave Link  103 at Tue Nov 19 11:22:32 2024, MaxMem=   536870912 cpu:               0.1 elap:               0.0
 (Enter /home/szhao/Apps/g16/l202.exe)
                          Input orientation:                          
 ---------------------------------------------------------------------
 Center     Atomic      Atomic             Coordinates (Angstroms)
 Number     Number       Type             X           Y           Z
 ---------------------------------------------------------------------
      1          6           0       -1.032062    0.000000    0.000000
      2          6           0        1.032062    0.000000    0.000000
      3          1           0       -1.843568   -0.932297    0.000000
      4          1           0       -1.838771    0.936658    0.000000
      5          1           0        1.843568    0.932297    0.000000
      6          1           0        1.838771   -0.936658    0.000000
 ---------------------------------------------------------------------
                    Distance matrix (angstroms):
                    1          2          3          4          5
     1  C    0.000000
     2  C    2.064125   0.000000
     3  H    1.236010   3.022983   0.000000
     4  H    1.236166   3.019770   1.868961   0.000000
     5  H    3.022983   1.236010   4.131790   3.682342   0.000000
     6  H    3.019770   1.236166   3.682342   4.127181   1.868961
                    6
     6  H    0.000000
 Symmetry turned off by external request.
 Stoichiometry    C2H4(1+,2)
 Framework group  C2H[SGH(C2H4)]
 Deg. of freedom     5
 Full point group                 C2H     NOp   4
 Rotational constants (GHZ):         143.5595800          12.8826554          11.8217986
 Leave Link  202 at Tue Nov 19 11:22:32 2024, MaxMem=   536870912 cpu:               0.0 elap:               0.0
 (Enter /home/szhao/Apps/g16/l301.exe)
 Standard basis: 6-311+G(d,p) (5D, 7F)
 Ernie: Thresh=  0.10000D-02 Tol=  0.10000D-05 Strict=F.
    68 basis functions,   104 primitive gaussians,    70 cartesian basis functions
     8 alpha electrons        7 beta electrons
       nuclear repulsion energy        24.8172851997 Hartrees.
 IExCor= 4336 DFT=T Ex+Corr=M062X ExCW=0 ScaHFX=  0.540000
 ScaDFX=  1.000000  1.000000  1.000000  1.000000 ScalE2=  1.000000  1.000000
 IRadAn=      7 IRanWt=     -1 IRanGd=            0 ICorTp=0 IEmpDi=  4
 NAtoms=    6 NActive=    6 NUniq=    6 SFac= 1.00D+00 NAtFMM=   60 NAOKFM=F Big=F
 Integral buffers will be    131072 words long.
 Raffenetti 2 integral format.
 Two-electron integral symmetry is turned off.
 Leave Link  301 at Tue Nov 19 11:22:32 2024, MaxMem=   536870912 cpu:               0.3 elap:               0.0
 (Enter /home/szhao/Apps/g16/l302.exe)
 NPDir=0 NMtPBC=     1 NCelOv=     1 NCel=       1 NClECP=     1 NCelD=      1
         NCelK=      1 NCelE2=     1 NClLst=     1 CellRange=     0.0.
 One-electron integrals computed using PRISM.
 NBasis=    68 RedAO= T EigKep=  2.25D-03  NBF=    68
 NBsUse=    68 1.00D-06 EigRej= -1.00D+00 NBFU=    68
 Precomputing XC quadrature grid using
 IXCGrd= 4 IRadAn=           7 IRanWt=          -1 IRanGd=           0 AccXCQ= 0.00D+00.
 Generated NRdTot=       0 NPtTot=           0 NUsed=           0 NTot=          32
 NSgBfM=    70    70    70    70    70 MxSgAt=     6 MxSgA2=     6.
 Leave Link  302 at Tue Nov 19 11:22:32 2024, MaxMem=   536870912 cpu:               1.0 elap:               0.1
 (Enter /home/szhao/Apps/g16/l303.exe)
 DipDrv:  MaxL=1.
 Leave Link  303 at Tue Nov 19 11:22:32 2024, MaxMem=   536870912 cpu:               0.3 elap:               0.0
 (Enter /home/szhao/Apps/g16/l401.exe)
 ExpMin= 4.38D-02 ExpMax= 4.56D+03 ExpMxC= 6.82D+02 IAcc=3 IRadAn=         7 AccDes= 0.00D+00
 Harris functional with IExCor= 1009 and IRadAn=       7 diagonalized for initial guess.
 HarFok:  IExCor= 1009 AccDes= 0.00D+00 IRadAn=         7 IDoV= 1 UseB2=F ITyADJ=14
 ICtDFT=  3500011 ScaDFX=  1.000000  1.000000  1.000000  1.000000
 FoFCou: FMM=F IPFlag=           0 FMFlag=      100000 FMFlg1=           0
         NFxFlg=           0 DoJE=T BraDBF=F KetDBF=T FulRan=T
         wScrn=  0.000000 ICntrl=       500 IOpCl=  0 I1Cent=   200000004 NGrid=           0
         NMat0=    1 NMatS0=      1 NMatT0=    0 NMatD0=    1 NMtDS0=    0 NMtDT0=    0
 Symmetry not used in FoFCou.
 Harris En= -77.9993598220724    
 JPrj=0 DoOrth=F DoCkMO=F.
 Initial guess <Sx>= 0.0000 <Sy>= 0.0000 <Sz>= 0.5000 <S**2>= 0.7500 S= 0.5000
 Leave Link  401 at Tue Nov 19 11:22:32 2024, MaxMem=   536870912 cpu:               2.6 elap:               0.3
 (Enter /home/szhao/Apps/g16/l502.exe)
 Keep R1 and R2 ints in memory in canonical form, NReq=12681614.
 FoFCou: FMM=F IPFlag=           0 FMFlag=           0 FMFlg1=           0
         NFxFlg=           0 DoJE=F BraDBF=F KetDBF=F FulRan=T
         wScrn=  0.000000 ICntrl=       600 IOpCl=  0 I1Cent=           0 NGrid=           0
         NMat0=    1 NMatS0=   2346 NMatT0=    0 NMatD0=    1 NMtDS0=    0 NMtDT0=    0
 Symmetry not used in FoFCou.
 Two-electron integral symmetry not used.
 UHF open shell SCF:
 Using DIIS extrapolation, IDIIS=  1040.
 NGot=   536870912 LenX=   531353794 LenY=   531348453
 Requested convergence on RMS density matrix=1.00D-08 within 128 cycles.
 Requested convergence on MAX density matrix=1.00D-06.
 Requested convergence on             energy=1.00D-06.
 No special actions if energy rises.

 Cycle   1  Pass 1  IDiag  1:
 E= -77.9558077829115    
 DIIS: error= 1.96D-02 at cycle   1 NSaved=   1.
 NSaved= 1 IEnMin= 1 EnMin= -77.9558077829115     IErMin= 1 ErrMin= 1.96D-02
 ErrMax= 1.96D-02  0.00D+00 EMaxC= 1.00D-01 BMatC= 6.74D-02 BMatP= 6.74D-02
 IDIUse=3 WtCom= 8.04D-01 WtEn= 1.96D-01
 Coeff-Com:  0.100D+01
 Coeff-En:   0.100D+01
 Coeff:      0.100D+01
 Gap=     0.191 Goal=   None    Shift=    0.000
 Gap=     0.316 Goal=   None    Shift=    0.000
 GapD=    0.191 DampG=1.000 DampE=0.500 DampFc=0.5000 IDamp=-1.
 Damping current iteration by 5.00D-01
 RMSDP=1.84D-03 MaxDP=3.56D-02              OVMax= 6.32D-02

 Cycle   2  Pass 1  IDiag  1:
 E= -77.9630977907503     Delta-E=       -0.007290007839 Rises=F Damp=T
 DIIS: error= 8.02D-03 at cycle   2 NSaved=   2.
 NSaved= 2 IEnMin= 2 EnMin= -77.9630977907503     IErMin= 2 ErrMin= 8.02D-03
 ErrMax= 8.02D-03  0.00D+00 EMaxC= 1.00D-01 BMatC= 1.14D-02 BMatP= 6.74D-02
 IDIUse=3 WtCom= 9.20D-01 WtEn= 8.02D-02
 Coeff-Com: -0.399D+00 0.140D+01
 Coeff-En:   0.000D+00 0.100D+01
 Coeff:     -0.367D+00 0.137D+01
 Gap=     0.193 Goal=   None    Shift=    0.000
 Gap=     0.333 Goal=   None    Shift=    0.000
 RMSDP=5.38D-04 MaxDP=8.48D-03 DE=-7.29D-03 OVMax= 2.87D-02

 Cycle   3  Pass 1  IDiag  1:
 E= -77.9696374396605     Delta-E=       -0.006539648910 Rises=F Damp=F
 DIIS: error= 3.61D-03 at cycle   3 NSaved=   3.
 NSaved= 3 IEnMin= 3 EnMin= -77.9696374396605     IErMin= 3 ErrMin= 3.61D-03
 ErrMax= 3.61D-03  0.00D+00 EMaxC= 1.00D-01 BMatC= 8.62D-04 BMatP= 1.14D-02
 IDIUse=3 WtCom= 9.64D-01 WtEn= 3.61D-02
 Coeff-Com: -0.172D+00 0.338D+00 0.834D+00
 Coeff-En:   0.000D+00 0.000D+00 0.100D+01
 Coeff:     -0.166D+00 0.326D+00 0.840D+00
 Gap=     0.192 Goal=   None    Shift=    0.000
 Gap=     0.333 Goal=   None    Shift=    0.000
 RMSDP=1.62D-04 MaxDP=4.63D-03 DE=-6.54D-03 OVMax= 7.18D-03

 Cycle   4  Pass 1  IDiag  1:
 E= -77.9699169256654     Delta-E=       -0.000279486005 Rises=F Damp=F
 DIIS: error= 4.98D-04 at cycle   4 NSaved=   4.
 NSaved= 4 IEnMin= 4 EnMin= -77.9699169256654     IErMin= 4 ErrMin= 4.98D-04
 ErrMax= 4.98D-04  0.00D+00 EMaxC= 1.00D-01 BMatC= 2.19D-05 BMatP= 8.62D-04
 IDIUse=3 WtCom= 9.95D-01 WtEn= 4.98D-03
 Coeff-Com:  0.291D-01-0.688D-01-0.885D-01 0.113D+01
 Coeff-En:   0.000D+00 0.000D+00 0.000D+00 0.100D+01
 Coeff:      0.290D-01-0.684D-01-0.880D-01 0.113D+01
 Gap=     0.192 Goal=   None    Shift=    0.000
 Gap=     0.333 Goal=   None    Shift=    0.000
 RMSDP=4.88D-05 MaxDP=1.53D-03 DE=-2.79D-04 OVMax= 2.00D-03

 Cycle   5  Pass 1  IDiag  1:
 E= -77.9699342674628     Delta-E=       -0.000017341797 Rises=F Damp=F
 DIIS: error= 2.22D-04 at cycle   5 NSaved=   5.
 NSaved= 5 IEnMin= 5 EnMin= -77.9699342674628     IErMin= 5 ErrMin= 2.22D-04
 ErrMax= 2.22D-04  0.00D+00 EMaxC= 1.00D-01 BMatC= 3.85D-06 BMatP= 2.19D-05
 IDIUse=3 WtCom= 9.98D-01 WtEn= 2.22D-03
 Coeff-Com:  0.264D-01-0.499D-01-0.134D+00-0.130D+00 0.129D+01
 Coeff-En:   0.000D+00 0.000D+00 0.000D+00 0.000D+00 0.100D+01
 Coeff:      0.264D-01-0.498D-01-0.133D+00-0.130D+00 0.129D+01
 Gap=     0.192 Goal=   None    Shift=    0.000
 Gap=     0.333 Goal=   None    Shift=    0.000
 RMSDP=3.04D-05 MaxDP=6.41D-04 DE=-1.73D-05 OVMax= 1.15D-03

 Cycle   6  Pass 1  IDiag  1:
 E= -77.9699382823019     Delta-E=       -0.000004014839 Rises=F Damp=F
 DIIS: error= 6.20D-05 at cycle   6 NSaved=   6.
 NSaved= 6 IEnMin= 6 EnMin= -77.9699382823019     IErMin= 6 ErrMin= 6.20D-05
 ErrMax= 6.20D-05  0.00D+00 EMaxC= 1.00D-01 BMatC= 1.58D-07 BMatP= 3.85D-06
 IDIUse=1 WtCom= 1.00D+00 WtEn= 0.00D+00
 Coeff-Com: -0.780D-02 0.157D-01 0.369D-01-0.392D-01-0.332D+00 0.133D+01
 Coeff:     -0.780D-02 0.157D-01 0.369D-01-0.392D-01-0.332D+00 0.133D+01
 Gap=     0.192 Goal=   None    Shift=    0.000
 Gap=     0.333 Goal=   None    Shift=    0.000
 RMSDP=6.64D-06 MaxDP=1.02D-04 DE=-4.01D-06 OVMax= 3.00D-04

 Cycle   7  Pass 1  IDiag  1:
 E= -77.9699384461761     Delta-E=       -0.000000163874 Rises=F Damp=F
 DIIS: error= 5.96D-06 at cycle   7 NSaved=   7.
 NSaved= 7 IEnMin= 7 EnMin= -77.9699384461761     IErMin= 7 ErrMin= 5.96D-06
 ErrMax= 5.96D-06  0.00D+00 EMaxC= 1.00D-01 BMatC= 1.73D-09 BMatP= 1.58D-07
 IDIUse=1 WtCom= 1.00D+00 WtEn= 0.00D+00
 Coeff-Com:  0.901D-03-0.185D-02-0.416D-02 0.673D-02 0.374D-01-0.226D+00
 Coeff-Com:  0.119D+01
 Coeff:      0.901D-03-0.185D-02-0.416D-02 0.673D-02 0.374D-01-0.226D+00
 Coeff:      0.119D+01
 Gap=     0.192 Goal=   None    Shift=    0.000
 Gap=     0.333 Goal=   None    Shift=    0.000
 RMSDP=5.38D-07 MaxDP=1.06D-05 DE=-1.64D-07 OVMax= 2.61D-05

 Cycle   8  Pass 1  IDiag  1:
 E= -77.9699384477515     Delta-E=       -0.000000001575 Rises=F Damp=F
 DIIS: error= 7.14D-07 at cycle   8 NSaved=   8.
 NSaved= 8 IEnMin= 8 EnMin= -77.9699384477515     IErMin= 8 ErrMin= 7.14D-07
 ErrMax= 7.14D-07  0.00D+00 EMaxC= 1.00D-01 BMatC= 4.05D-11 BMatP= 1.73D-09
 IDIUse=1 WtCom= 1.00D+00 WtEn= 0.00D+00
 Coeff-Com: -0.240D-04 0.516D-04 0.138D-03 0.307D-03-0.282D-02 0.129D-01
 Coeff-Com: -0.205D+00 0.119D+01
 Coeff:     -0.240D-04 0.516D-04 0.138D-03 0.307D-03-0.282D-02 0.129D-01
 Coeff:     -0.205D+00 0.119D+01
 Gap=     0.192 Goal=   None    Shift=    0.000
 Gap=     0.333 Goal=   None    Shift=    0.000
 RMSDP=8.62D-08 MaxDP=2.16D-06 DE=-1.58D-09 OVMax= 4.71D-06

 Cycle   9  Pass 1  IDiag  1:
 E= -77.9699384477862     Delta-E=       -0.000000000035 Rises=F Damp=F
 DIIS: error= 1.13D-07 at cycle   9 NSaved=   9.
 NSaved= 9 IEnMin= 9 EnMin= -77.9699384477862     IErMin= 9 ErrMin= 1.13D-07
 ErrMax= 1.13D-07  0.00D+00 EMaxC= 1.00D-01 BMatC= 4.39D-13 BMatP= 4.05D-11
 IDIUse=1 WtCom= 1.00D+00 WtEn= 0.00D+00
 Coeff-Com: -0.338D-05 0.603D-05 0.919D-05-0.152D-03 0.340D-03-0.664D-03
 Coeff-Com:  0.360D-01-0.289D+00 0.125D+01
 Coeff:     -0.338D-05 0.603D-05 0.919D-05-0.152D-03 0.340D-03-0.664D-03
 Coeff:      0.360D-01-0.289D+00 0.125D+01
 Gap=     0.192 Goal=   None    Shift=    0.000
 Gap=     0.333 Goal=   None    Shift=    0.000
 RMSDP=8.76D-09 MaxDP=1.09D-07 DE=-3.47D-11 OVMax= 5.44D-07

 SCF Done:  E(UM062X) =  -77.9699384478     A.U. after    9 cycles
            NFock=  9  Conv=0.88D-08     -V/T= 2.0181
 <Sx>= 0.0000 <Sy>= 0.0000 <Sz>= 0.5000 <S**2>= 0.7536 S= 0.5018
 <L.S>=  0.00000000000    
 KE= 7.658433234438D+01 PE=-2.251837127403D+02 EE= 4.581215674844D+01
 Annihilation of the first spin contaminant:
 S**2 before annihilation     0.7536,   after     0.7500
 Leave Link  502 at Tue Nov 19 11:22:37 2024, MaxMem=   536870912 cpu:              36.8 elap:               4.7
 (Enter /home/szhao/Apps/g16/l601.exe)
 Copying SCF densities to generalized density rwf, IOpCl= 1 IROHF=0.

 **********************************************************************

            Population analysis using the SCF density.

 **********************************************************************

 Alpha  occ. eigenvalues --  -10.94260 -10.94247  -1.02647  -0.96494  -0.71344
 Alpha  occ. eigenvalues --   -0.69905  -0.68399  -0.55328
 Alpha virt. eigenvalues --   -0.36095  -0.30427  -0.14518  -0.11541  -0.11351
 Alpha virt. eigenvalues --   -0.08671  -0.08573  -0.07979  -0.06822  -0.04995
 Alpha virt. eigenvalues --   -0.02804  -0.01523   0.02117   0.02999   0.20576
 Alpha virt. eigenvalues --    0.27065   0.30183   0.32554   0.32778   0.34864
 Alpha virt. eigenvalues --    0.36922   0.37168   0.37376   0.45687   0.49845
 Alpha virt. eigenvalues --    0.56267   0.80641   0.80818   0.84366   0.86231
 Alpha virt. eigenvalues --    1.07672   1.17965   1.19577   1.20945   1.27447
 Alpha virt. eigenvalues --    1.32400   1.38488   1.41120   1.49323   1.50375
 Alpha virt. eigenvalues --    1.53042   1.59480   1.59506   1.87349   1.92358
 Alpha virt. eigenvalues --    1.99141   2.01143   2.16442   2.28181   2.36475
 Alpha virt. eigenvalues --    2.39475   2.42817   2.44605   2.45318   2.70444
 Alpha virt. eigenvalues --    3.05028   3.10569   3.11095  23.23162  23.23402
  Beta  occ. eigenvalues --  -10.93993 -10.93985  -0.99412  -0.94262  -0.70645
  Beta  occ. eigenvalues --   -0.68502  -0.67946
  Beta virt. eigenvalues --   -0.34613  -0.28011  -0.27402  -0.15361  -0.11353
  Beta virt. eigenvalues --   -0.10832  -0.09360  -0.08382  -0.08247  -0.07861
  Beta virt. eigenvalues --   -0.04588  -0.02224  -0.01785   0.01470   0.03524
  Beta virt. eigenvalues --    0.20654   0.26706   0.30458   0.32482   0.34008
  Beta virt. eigenvalues --    0.35690   0.36482   0.37395   0.38223   0.45579
  Beta virt. eigenvalues --    0.51189   0.56835   0.82996   0.83243   0.86736
  Beta virt. eigenvalues --    0.88300   1.08906   1.22337   1.22344   1.22492
  Beta virt. eigenvalues --    1.28220   1.33277   1.39293   1.43482   1.50952
  Beta virt. eigenvalues --    1.51255   1.54608   1.60477   1.60882   1.89509
  Beta virt. eigenvalues --    1.94515   2.01547   2.03972   2.18760   2.29137
  Beta virt. eigenvalues --    2.37002   2.40147   2.45260   2.47277   2.49754
  Beta virt. eigenvalues --    2.71324   3.07043   3.12439   3.13025  23.24258
  Beta virt. eigenvalues --   23.24509
          Condensed to atoms (all electrons):
               1          2          3          4          5          6
     1  C    5.083361   0.350219   0.334190   0.334316  -0.005865  -0.005986
     2  C    0.350219   5.083361  -0.005865  -0.005986   0.334190   0.334316
     3  H    0.334190  -0.005865   0.399375  -0.023396   0.000129   0.000185
     4  H    0.334316  -0.005986  -0.023396   0.399895   0.000185   0.000133
     5  H   -0.005865   0.334190   0.000129   0.000185   0.399375  -0.023396
     6  H   -0.005986   0.334316   0.000185   0.000133  -0.023396   0.399895
          Atomic-Atomic Spin Densities.
               1          2          3          4          5          6
     1  C    0.508666   0.061095  -0.007502  -0.007497   0.000479   0.000479
     2  C    0.061095   0.508666   0.000479   0.000479  -0.007502  -0.007497
     3  H   -0.007502   0.000479  -0.022188   0.001366  -0.000006  -0.000012
     4  H   -0.007497   0.000479   0.001366  -0.022187  -0.000012  -0.000006
     5  H    0.000479  -0.007502  -0.000006  -0.000012  -0.022188   0.001366
     6  H    0.000479  -0.007497  -0.000012  -0.000006   0.001366  -0.022187
 Mulliken charges and spin densities:
               1          2
     1  C   -0.090235   0.555720
     2  C   -0.090235   0.555720
     3  H    0.295382  -0.027863
     4  H    0.294852  -0.027857
     5  H    0.295382  -0.027863
     6  H    0.294852  -0.027857
 Sum of Mulliken charges =   1.00000   1.00000
 Mulliken charges and spin densities with hydrogens summed into heavy atoms:
               1          2
     1  C    0.500000   0.500000
     2  C    0.500000   0.500000
 Electronic spatial extent (au):  <R**2>=            120.9992
 Charge=              1.0000 electrons
 Dipole moment (field-independent basis, Debye):
    X=             -0.0000    Y=             -0.0000    Z=             -0.0000  Tot=              0.0000
 Quadrupole moment (field-independent basis, Debye-Ang):
   XX=              3.8245   YY=            -10.0902   ZZ=            -13.1811
   XY=             -0.0010   XZ=             -0.0000   YZ=             -0.0000
 Traceless Quadrupole moment (field-independent basis, Debye-Ang):
   XX=             10.3067   YY=             -3.6079   ZZ=             -6.6988
   XY=             -0.0010   XZ=             -0.0000   YZ=             -0.0000
 Octapole moment (field-independent basis, Debye-Ang**2):
  XXX=             -0.0000  YYY=             -0.0000  ZZZ=             -0.0000  XYY=              0.0000
  XXY=              0.0000  XXZ=             -0.0000  XZZ=             -0.0000  YZZ=             -0.0000
  YYZ=             -0.0000  XYZ=             -0.0000
 Hexadecapole moment (field-independent basis, Debye-Ang**3):
 XXXX=            -64.1323 YYYY=            -23.0789 ZZZZ=            -13.8190 XXXY=              0.1120
 XXXZ=              0.0000 YYYX=             -0.0391 YYYZ=             -0.0000 ZZZX=             -0.0000
 ZZZY=             -0.0000 XXYY=             -8.5106 XXZZ=            -23.7104 YYZZ=             -7.1918
 XXYZ=              0.0000 YYXZ=             -0.0000 ZZXY=              0.0064
 N-N= 2.481728519972D+01 E-N=-2.251837127242D+02  KE= 7.658433234438D+01
                          Isotropic Fermi Contact Couplings
        Atom                 a.u.       MegaHertz       Gauss      10(-4) cm-1
     1  C(13)              0.11037     124.07390      44.27265      41.38660
     2  C(13)              0.11037     124.07390      44.27265      41.38660
     3  H(1)              -0.01076     -48.11144     -17.16736     -16.04825
     4  H(1)              -0.01075     -48.04282     -17.14287     -16.02536
     5  H(1)              -0.01076     -48.11144     -17.16736     -16.04825
     6  H(1)              -0.01075     -48.04282     -17.14287     -16.02536
 --------------------------------------------------------
       Center         ----  Spin Dipole Couplings  ----
                      3XX-RR        3YY-RR        3ZZ-RR
 --------------------------------------------------------
     1   Atom       -0.298307     -0.267009      0.565316
     2   Atom       -0.298307     -0.267009      0.565316
     3   Atom        0.005967      0.003293     -0.009259
     4   Atom        0.005650      0.003617     -0.009267
     5   Atom        0.005967      0.003293     -0.009259
     6   Atom        0.005650      0.003617     -0.009267
 --------------------------------------------------------
                        XY            XZ            YZ
 --------------------------------------------------------
     1   Atom        0.000023     -0.000000     -0.000000
     2   Atom        0.000023     -0.000000     -0.000000
     3   Atom        0.033471     -0.000000     -0.000000
     4   Atom       -0.033470     -0.000000      0.000000
     5   Atom        0.033471     -0.000000     -0.000000
     6   Atom       -0.033470     -0.000000      0.000000
 --------------------------------------------------------


 ---------------------------------------------------------------------------------
              Anisotropic Spin Dipole Couplings in Principal Axis System
 ---------------------------------------------------------------------------------

       Atom             a.u.   MegaHertz   Gauss  10(-4) cm-1        Axes

              Baa    -0.2983   -40.030   -14.284   -13.353  1.0000 -0.0007  0.0000
     1 C(13)  Bbb    -0.2670   -35.830   -12.785   -11.952  0.0007  1.0000  0.0000
              Bcc     0.5653    75.860    27.069    25.304 -0.0000 -0.0000  1.0000
 
              Baa    -0.2983   -40.030   -14.284   -13.353  1.0000 -0.0007  0.0000
     2 C(13)  Bbb    -0.2670   -35.830   -12.785   -11.952  0.0007  1.0000  0.0000
              Bcc     0.5653    75.860    27.069    25.304 -0.0000 -0.0000  1.0000
 
              Baa    -0.0289   -15.402    -5.496    -5.138 -0.6929  0.7211 -0.0000
     3 H(1)   Bbb    -0.0093    -4.940    -1.763    -1.648 -0.0000  0.0000  1.0000
              Bcc     0.0381    20.343     7.259     6.786  0.7211  0.6929 -0.0000
 
              Baa    -0.0289   -15.394    -5.493    -5.135  0.6963  0.7178  0.0000
     4 H(1)   Bbb    -0.0093    -4.944    -1.764    -1.649  0.0000 -0.0000  1.0000
              Bcc     0.0381    20.339     7.257     6.784  0.7178 -0.6963 -0.0000
 
              Baa    -0.0289   -15.402    -5.496    -5.138 -0.6929  0.7211 -0.0000
     5 H(1)   Bbb    -0.0093    -4.940    -1.763    -1.648  0.0000  0.0000  1.0000
              Bcc     0.0381    20.343     7.259     6.786  0.7211  0.6929 -0.0000
 
              Baa    -0.0289   -15.394    -5.493    -5.135  0.6963  0.7178  0.0000
     6 H(1)   Bbb    -0.0093    -4.944    -1.764    -1.649  0.0000 -0.0000  1.0000
              Bcc     0.0381    20.339     7.257     6.784  0.7178 -0.6963 -0.0000
 

 ---------------------------------------------------------------------------------

 No NMR shielding tensors so no spin-rotation constants.
 Leave Link  601 at Tue Nov 19 11:22:37 2024, MaxMem=   536870912 cpu:               1.2 elap:               0.2
 (Enter /home/szhao/Apps/g16/l701.exe)
 ... and contract with generalized density number  0.
 Compute integral first derivatives.
 Leave Link  701 at Tue Nov 19 11:22:37 2024, MaxMem=   536870912 cpu:               0.7 elap:               0.1
 (Enter /home/szhao/Apps/g16/l702.exe)
 L702 exits ... SP integral derivatives will be done elsewhere.
 Leave Link  702 at Tue Nov 19 11:22:37 2024, MaxMem=   536870912 cpu:               0.3 elap:               0.0
 (Enter /home/szhao/Apps/g16/l703.exe)
 Integral derivatives from FoFJK, PRISM(SPDF).
 Compute integral first derivatives, UseDBF=F ICtDFT=           0.
 Calling FoFJK, ICntrl=      2127 FMM=F ISym2X=0 I1Cent= 0 IOpClX= 1 NMat=1 NMatS=1 NMatT=0.
 FoFJK:  IHMeth= 1 ICntrl=    2127 DoSepK=F KAlg= 0 I1Cent=           0 FoldK=F
 IRaf=         0 NMat=       1 IRICut=       1 DoRegI=T DoRafI=F ISym2E= 0 IDoP0=0 IntGTp=1.
 FoFCou: FMM=F IPFlag=           0 FMFlag=      100000 FMFlg1=         800
         NFxFlg=           0 DoJE=F BraDBF=F KetDBF=F FulRan=T
         wScrn=  0.000000 ICntrl=      2127 IOpCl=  1 I1Cent=           0 NGrid=           0
         NMat0=    1 NMatS0=      1 NMatT0=    0 NMatD0=    1 NMtDS0=    0 NMtDT0=    0
 Symmetry not used in FoFCou.
 Leave Link  703 at Tue Nov 19 11:22:38 2024, MaxMem=   536870912 cpu:               7.2 elap:               0.9
 (Enter /home/szhao/Apps/g16/l716.exe)
 Dipole        =-7.24917903D-11-2.86437540D-14-1.85803544D-15
 -------------------------------------------------------------------
 Center     Atomic                   Forces (Hartrees/Bohr)
 Number     Number              X              Y              Z
 -------------------------------------------------------------------
      1        6          -0.000000000   -0.000000000   -0.000000000
      2        6          -0.000000000   -0.000000000   -0.000000000
      3        1           0.065588211    0.026037199    0.000000000
      4        1           0.065383991   -0.026542446    0.000000000
      5        1          -0.065588211   -0.026037199    0.000000000
      6        1          -0.065383991    0.026542446   -0.000000000
 -------------------------------------------------------------------
 Cartesian Forces:  Max     0.065588211 RMS     0.033265459
 Leave Link  716 at Tue Nov 19 11:22:38 2024, MaxMem=   536870912 cpu:               0.3 elap:               0.0
 (Enter /home/szhao/Apps/g16/l103.exe)

 GradGradGradGradGradGradGradGradGradGradGradGradGradGradGradGradGradGrad
 Berny optimization.
 FormGI is forming the generalized inverse of G from B-inverse, IUseBI=4.
 Internal  Forces:  Max     0.130972203 RMS     0.053685991
 Search for a local minimum.
 Step number   1 out of a maximum of   30
 All quantities printed in internal units (Hartrees-Bohrs-Radians)
 RMS Force = .40827D-01 SwitMx=.10000D-02 MixMth= 1
 Mixed Optimization -- RFO/linear search
 Second derivative matrix not updated -- first step.
 The second derivative matrix:
                          X1        Y1        Z1        X2        Y2
           X1           0.50000
           Y1           0.00000   0.50000
           Z1           0.00000   0.00000   0.50000
           X2           0.00000   0.00000   0.00000   0.50000
           Y2           0.00000   0.00000   0.00000   0.00000   0.50000
           Z2           0.00000   0.00000   0.00000   0.00000   0.00000
           R1           0.00000   0.00000   0.00000   0.00000   0.00000
           R2           0.00000   0.00000   0.00000   0.00000   0.00000
           R3           0.00000   0.00000   0.00000   0.00000   0.00000
           R4           0.00000   0.00000   0.00000   0.00000   0.00000
           A1           0.00000   0.00000   0.00000   0.00000   0.00000
           A2           0.00000   0.00000   0.00000   0.00000   0.00000
           A3           0.00000   0.00000   0.00000   0.00000   0.00000
           A4           0.00000   0.00000   0.00000   0.00000   0.00000
           A5           0.00000   0.00000   0.00000   0.00000   0.00000
           A6           0.00000   0.00000   0.00000   0.00000   0.00000
           D1           0.00000   0.00000   0.00000   0.00000   0.00000
           D2           0.00000   0.00000   0.00000   0.00000   0.00000
           D3           0.00000   0.00000   0.00000   0.00000   0.00000
           D4           0.00000   0.00000   0.00000   0.00000   0.00000
                          Z2        R1        R2        R3        R4
           Z2           0.50000
           R1           0.00000   0.22213
           R2           0.00000   0.00000   0.22203
           R3           0.00000   0.00000   0.00000   0.22213
           R4           0.00000   0.00000   0.00000   0.00000   0.22203
           A1           0.00000   0.00000   0.00000   0.00000   0.00000
           A2           0.00000   0.00000   0.00000   0.00000   0.00000
           A3           0.00000   0.00000   0.00000   0.00000   0.00000
           A4           0.00000   0.00000   0.00000   0.00000   0.00000
           A5           0.00000   0.00000   0.00000   0.00000   0.00000
           A6           0.00000   0.00000   0.00000   0.00000   0.00000
           D1           0.00000   0.00000   0.00000   0.00000   0.00000
           D2           0.00000   0.00000   0.00000   0.00000   0.00000
           D3           0.00000   0.00000   0.00000   0.00000   0.00000
           D4           0.00000   0.00000   0.00000   0.00000   0.00000
                          A1        A2        A3        A4        A5
           A1           0.16000
           A2           0.00000   0.16000
           A3           0.00000   0.00000   0.16000
           A4           0.00000   0.00000   0.00000   0.16000
           A5           0.00000   0.00000   0.00000   0.00000   0.16000
           A6           0.00000   0.00000   0.00000   0.00000   0.00000
           D1           0.00000   0.00000   0.00000   0.00000   0.00000
           D2           0.00000   0.00000   0.00000   0.00000   0.00000
           D3           0.00000   0.00000   0.00000   0.00000   0.00000
           D4           0.00000   0.00000   0.00000   0.00000   0.00000
                          A6        D1        D2        D3        D4
           A6           0.16000
           D1           0.00000   0.00230
           D2           0.00000   0.00000   0.00230
           D3           0.00000   0.00000   0.00000   0.00230
           D4           0.00000   0.00000   0.00000   0.00000   0.00230
 ITU=  0
     Eigenvalues ---    0.00230   0.00230   0.00230   0.16000   0.16000
     Eigenvalues ---    0.16000   0.16000   0.22203   0.22203   0.22213
     Eigenvalues ---    0.222131000.000001000.000001000.000001000.00000
     Eigenvalues --- 1000.000001000.000001000.000001000.000001000.00000
 RFO step:  Lambda=-8.28802743D-02 EMin= 2.30000000D-03
 Linear search not attempted -- first point.
 Maximum step size (   0.300) exceeded in Quadratic search.
    -- Step size scaled by   0.550
 Iteration  1 RMS(Cart)=  0.07779382 RMS(Int)=  0.00279988
 Iteration  2 RMS(Cart)=  0.00324516 RMS(Int)=  0.00000519
 Iteration  3 RMS(Cart)=  0.00000593 RMS(Int)=  0.00000000
 Iteration  4 RMS(Cart)=  0.00000000 RMS(Int)=  0.00000000
 ITry= 1 IFail=0 DXMaxC= 1.73D-01 DCOld= 1.00D+10 DXMaxT= 3.00D-01 DXLimC= 3.00D+00 Rises=F
 Variable       Old X    -DE/DX   Delta X   Delta X   Delta X     New X
                                 (Linear)    (Quad)   (Total)
    X1       -1.95032   0.13097   0.00000   0.00000   0.00000  -1.95032
    Y1        0.00000  -0.00069   0.00000   0.00000   0.00000   0.00000
    Z1        0.00000  -0.00000   0.00000   0.00000   0.00000   0.00000
    X2        1.95032  -0.13097   0.00000   0.00000   0.00000   1.95032
    Y2        0.00000   0.00069   0.00000   0.00000   0.00000   0.00000
    Z2        0.00000  -0.00000   0.00000   0.00000   0.00000   0.00000
    R1        2.33572  -0.06270   0.00000  -0.11298  -0.11298   2.22274
    R2        2.33602  -0.06278   0.00000  -0.11316  -0.11316   2.22286
    R3        2.33572  -0.06270   0.00000  -0.11298  -0.11298   2.22274
    R4        2.33602  -0.06278   0.00000  -0.11316  -0.11316   2.22286
    A1        2.28704  -0.02533   0.00000  -0.05731  -0.05731   2.22973
    A2        2.28179  -0.02497   0.00000  -0.05650  -0.05650   2.22529
    A3        1.71436   0.05030   0.00000   0.11381   0.11381   1.82817
    A4        2.28704  -0.02533   0.00000  -0.05731  -0.05731   2.22973
    A5        2.28179  -0.02497   0.00000  -0.05650  -0.05650   2.22529
    A6        1.71436   0.05030   0.00000   0.11381   0.11381   1.82817
    D1        3.14159   0.00000   0.00000   0.00000   0.00000   3.14159
    D2        0.00000   0.00000   0.00000   0.00000   0.00000   0.00000
    D3        0.00000  -0.00000   0.00000   0.00000  -0.00000   0.00000
    D4        3.14159  -0.00000   0.00000  -0.00000   0.00000   3.14159
         Item               Value     Threshold  Converged?
 Maximum Force            0.062780     0.000450     NO 
 RMS     Force            0.040827     0.000300     NO 
 Maximum Displacement     0.172602     0.001800     NO 
 RMS     Displacement     0.076935     0.001200     NO 
 Predicted change in Energy=-3.676285D-02
 Lowest energy point so far.  Saving SCF results.
 GradGradGradGradGradGradGradGradGradGradGradGradGradGradGradGradGradGrad

 Leave Link  103 at Tue Nov 19 11:22:38 2024, MaxMem=   536870912 cpu:               0.1 elap:               0.0
 (Enter /home/szhao/Apps/g16/l202.exe)
                          Input orientation:                          
 ---------------------------------------------------------------------
 Center     Atomic      Atomic             Coordinates (Angstroms)
 Number     Number       Type             X           Y           Z
 ---------------------------------------------------------------------
      1          6           0       -1.032062    0.000000    0.000000
      2          6           0        1.032062    0.000000    0.000000
      3          1           0       -1.752231   -0.929977    0.000000
      4          1           0       -1.748133    0.933215    0.000000
      5          1           0        1.752231    0.929977   -0.000000
      6          1           0        1.748133   -0.933215   -0.000000
 ---------------------------------------------------------------------
                    Distance matrix (angstroms):
                    1          2          3          4          5
     1  C    0.000000
     2  C    2.064125   0.000000
     3  H    1.176223   2.935498   0.000000
     4  H    1.176285   2.932639   1.863196   0.000000
     5  H    2.935498   1.176223   3.967453   3.500365   0.000000
     6  H    2.932639   1.176285   3.500365   3.963260   1.863196
                    6
     6  H    0.000000
 Symmetry turned off by external request.
 Stoichiometry    C2H4(1+,2)
 Framework group  C2H[SGH(C2H4)]
 Deg. of freedom     5
 Full point group                 C2H     NOp   4
 Rotational constants (GHZ):         144.4493883          13.3302812          12.2040499
 Leave Link  202 at Tue Nov 19 11:22:38 2024, MaxMem=   536870912 cpu:               0.0 elap:               0.0
 (Enter /home/szhao/Apps/g16/l301.exe)
 Standard basis: 6-311+G(d,p) (5D, 7F)
 Ernie: Thresh=  0.10000D-02 Tol=  0.10000D-05 Strict=F.
    68 basis functions,   104 primitive gaussians,    70 cartesian basis functions
     8 alpha electrons        7 beta electrons
       nuclear repulsion energy        25.4923159196 Hartrees.
 IExCor= 4336 DFT=T Ex+Corr=M062X ExCW=0 ScaHFX=  0.540000
 ScaDFX=  1.000000  1.000000  1.000000  1.000000 ScalE2=  1.000000  1.000000
 IRadAn=      7 IRanWt=     -1 IRanGd=            0 ICorTp=0 IEmpDi=  4
 NAtoms=    6 NActive=    6 NUniq=    6 SFac= 1.00D+00 NAtFMM=   60 NAOKFM=F Big=F
 Integral buffers will be    131072 words long.
 Raffenetti 2 integral format.
 Two-electron integral symmetry is turned off.
 Leave Link  301 at Tue Nov 19 11:22:38 2024, MaxMem=   536870912 cpu:               0.3 elap:               0.0
 (Enter /home/szhao/Apps/g16/l302.exe)
 NPDir=0 NMtPBC=     1 NCelOv=     1 NCel=       1 NClECP=     1 NCelD=      1
         NCelK=      1 NCelE2=     1 NClLst=     1 CellRange=     0.0.
 One-electron integrals computed using PRISM.
 NBasis=    68 RedAO= T EigKep=  2.06D-03  NBF=    68
 NBsUse=    68 1.00D-06 EigRej= -1.00D+00 NBFU=    68
 Precomputing XC quadrature grid using
 IXCGrd= 4 IRadAn=           7 IRanWt=          -1 IRanGd=           0 AccXCQ= 0.00D+00.
 Generated NRdTot=       0 NPtTot=           0 NUsed=           0 NTot=          32
 NSgBfM=    70    70    70    70    70 MxSgAt=     6 MxSgA2=     6.
 Leave Link  302 at Tue Nov 19 11:22:38 2024, MaxMem=   536870912 cpu:               1.0 elap:               0.1
 (Enter /home/szhao/Apps/g16/l303.exe)
 DipDrv:  MaxL=1.
 Leave Link  303 at Tue Nov 19 11:22:38 2024, MaxMem=   536870912 cpu:               0.2 elap:               0.0
 (Enter /home/szhao/Apps/g16/l401.exe)
 Initial guess from the checkpoint file:  "opt.chk"
 B after Tr=     0.000000    0.000000   -0.000000
         Rot=    1.000000   -0.000000   -0.000000   -0.000079 Ang=  -0.01 deg.
 Guess basis will be translated and rotated to current coordinates.
 JPrj=2 DoOrth=T DoCkMO=T.
 Initial guess <Sx>= 0.0000 <Sy>= 0.0000 <Sz>= 0.5000 <S**2>= 0.7533 S= 0.5017
 Generating alternative initial guess.
 ExpMin= 4.38D-02 ExpMax= 4.56D+03 ExpMxC= 6.82D+02 IAcc=3 IRadAn=         5 AccDes= 0.00D+00
 Harris functional with IExCor= 1009 and IRadAn=       5 diagonalized for initial guess.
 HarFok:  IExCor= 1009 AccDes= 0.00D+00 IRadAn=         5 IDoV= 1 UseB2=F ITyADJ=14
 ICtDFT=  3500011 ScaDFX=  1.000000  1.000000  1.000000  1.000000
 FoFCou: FMM=F IPFlag=           0 FMFlag=      100000 FMFlg1=           0
         NFxFlg=           0 DoJE=T BraDBF=F KetDBF=T FulRan=T
         wScrn=  0.000000 ICntrl=       500 IOpCl=  0 I1Cent=   200000004 NGrid=           0
         NMat0=    1 NMatS0=      1 NMatT0=    0 NMatD0=    1 NMtDS0=    0 NMtDT0=    0
 Symmetry not used in FoFCou.
 Harris En= -78.0357472742384    
 Leave Link  401 at Tue Nov 19 11:22:39 2024, MaxMem=   536870912 cpu:               1.8 elap:               0.2
 (Enter /home/szhao/Apps/g16/l502.exe)
 Keep R1 and R2 ints in memory in canonical form, NReq=12681614.
 FoFCou: FMM=F IPFlag=           0 FMFlag=           0 FMFlg1=           0
         NFxFlg=           0 DoJE=F BraDBF=F KetDBF=F FulRan=T
         wScrn=  0.000000 ICntrl=       600 IOpCl=  0 I1Cent=           0 NGrid=           0
         NMat0=    1 NMatS0=   2346 NMatT0=    0 NMatD0=    1 NMtDS0=    0 NMtDT0=    0
 Symmetry not used in FoFCou.
 Two-electron integral symmetry not used.
 UHF open shell SCF:
 Using DIIS extrapolation, IDIIS=  1040.
 NGot=   536870912 LenX=   531353794 LenY=   531348453
 Requested convergence on RMS density matrix=1.00D-08 within 128 cycles.
 Requested convergence on MAX density matrix=1.00D-06.
 Requested convergence on             energy=1.00D-06.
 No special actions if energy rises.

 Cycle   1  Pass 1  IDiag  1:
 E= -78.0076557485270    
 DIIS: error= 7.66D-03 at cycle   1 NSaved=   1.
 NSaved= 1 IEnMin= 1 EnMin= -78.0076557485270     IErMin= 1 ErrMin= 7.66D-03
 ErrMax= 7.66D-03  0.00D+00 EMaxC= 1.00D-01 BMatC= 7.97D-03 BMatP= 7.97D-03
 IDIUse=3 WtCom= 9.23D-01 WtEn= 7.66D-02
 Coeff-Com:  0.100D+01
 Coeff-En:   0.100D+01
 Coeff:      0.100D+01
 Gap=     0.532 Goal=   None    Shift=    0.000
 Gap=     0.671 Goal=   None    Shift=    0.000
 GapD=    0.532 DampG=2.000 DampE=1.000 DampFc=2.0000 IDamp=-1.
 RMSDP=5.82D-04 MaxDP=6.99D-03              OVMax= 1.88D-02

 Cycle   2  Pass 1  IDiag  1:
 E= -78.0097175143196     Delta-E=       -0.002061765793 Rises=F Damp=F
 DIIS: error= 2.05D-03 at cycle   2 NSaved=   2.
 NSaved= 2 IEnMin= 2 EnMin= -78.0097175143196     IErMin= 2 ErrMin= 2.05D-03
 ErrMax= 2.05D-03  0.00D+00 EMaxC= 1.00D-01 BMatC= 5.79D-04 BMatP= 7.97D-03
 IDIUse=3 WtCom= 9.79D-01 WtEn= 2.05D-02
 Coeff-Com:  0.102D+00 0.898D+00
 Coeff-En:   0.000D+00 0.100D+01
 Coeff:      0.100D+00 0.900D+00
 Gap=     0.192 Goal=   None    Shift=    0.000
 Gap=     0.334 Goal=   None    Shift=    0.000
 RMSDP=1.86D-04 MaxDP=5.60D-03 DE=-2.06D-03 OVMax= 6.24D-03

 Cycle   3  Pass 1  IDiag  1:
 E= -78.0098430745329     Delta-E=       -0.000125560213 Rises=F Damp=F
 DIIS: error= 1.23D-03 at cycle   3 NSaved=   3.
 NSaved= 3 IEnMin= 3 EnMin= -78.0098430745329     IErMin= 3 ErrMin= 1.23D-03
 ErrMax= 1.23D-03  0.00D+00 EMaxC= 1.00D-01 BMatC= 1.19D-04 BMatP= 5.79D-04
 IDIUse=3 WtCom= 9.88D-01 WtEn= 1.23D-02
 Coeff-Com: -0.161D-01 0.294D+00 0.722D+00
 Coeff-En:   0.000D+00 0.000D+00 0.100D+01
 Coeff:     -0.159D-01 0.290D+00 0.726D+00
 Gap=     0.192 Goal=   None    Shift=    0.000
 Gap=     0.334 Goal=   None    Shift=    0.000
 RMSDP=5.60D-05 MaxDP=1.30D-03 DE=-1.26D-04 OVMax= 2.20D-03

 Cycle   4  Pass 1  IDiag  1:
 E= -78.0098760726174     Delta-E=       -0.000032998084 Rises=F Damp=F
 DIIS: error= 1.32D-04 at cycle   4 NSaved=   4.
 NSaved= 4 IEnMin= 4 EnMin= -78.0098760726174     IErMin= 4 ErrMin= 1.32D-04
 ErrMax= 1.32D-04  0.00D+00 EMaxC= 1.00D-01 BMatC= 1.42D-06 BMatP= 1.19D-04
 IDIUse=3 WtCom= 9.99D-01 WtEn= 1.32D-03
 Coeff-Com: -0.420D-02 0.770D-02 0.880D-01 0.909D+00
 Coeff-En:   0.000D+00 0.000D+00 0.000D+00 0.100D+01
 Coeff:     -0.420D-02 0.769D-02 0.879D-01 0.909D+00
 Gap=     0.192 Goal=   None    Shift=    0.000
 Gap=     0.334 Goal=   None    Shift=    0.000
 RMSDP=8.61D-06 MaxDP=2.05D-04 DE=-3.30D-05 OVMax= 3.20D-04

 Cycle   5  Pass 1  IDiag  1:
 E= -78.0098766292166     Delta-E=       -0.000000556599 Rises=F Damp=F
 DIIS: error= 4.45D-05 at cycle   5 NSaved=   5.
 NSaved= 5 IEnMin= 5 EnMin= -78.0098766292166     IErMin= 5 ErrMin= 4.45D-05
 ErrMax= 4.45D-05  0.00D+00 EMaxC= 1.00D-01 BMatC= 8.42D-08 BMatP= 1.42D-06
 IDIUse=1 WtCom= 1.00D+00 WtEn= 0.00D+00
 Coeff-Com:  0.824D-03-0.166D-01-0.424D-01 0.219D-01 0.104D+01
 Coeff:      0.824D-03-0.166D-01-0.424D-01 0.219D-01 0.104D+01
 Gap=     0.192 Goal=   None    Shift=    0.000
 Gap=     0.334 Goal=   None    Shift=    0.000
 RMSDP=2.46D-06 MaxDP=4.69D-05 DE=-5.57D-07 OVMax= 1.26D-04

 Cycle   6  Pass 1  IDiag  1:
 E= -78.0098766776162     Delta-E=       -0.000000048400 Rises=F Damp=F
 DIIS: error= 1.02D-05 at cycle   6 NSaved=   6.
 NSaved= 6 IEnMin= 6 EnMin= -78.0098766776162     IErMin= 6 ErrMin= 1.02D-05
 ErrMax= 1.02D-05  0.00D+00 EMaxC= 1.00D-01 BMatC= 6.69D-09 BMatP= 8.42D-08
 IDIUse=1 WtCom= 1.00D+00 WtEn= 0.00D+00
 Coeff-Com: -0.163D-03 0.701D-02 0.153D-01-0.506D-01-0.487D+00 0.152D+01
 Coeff:     -0.163D-03 0.701D-02 0.153D-01-0.506D-01-0.487D+00 0.152D+01
 Gap=     0.192 Goal=   None    Shift=    0.000
 Gap=     0.334 Goal=   None    Shift=    0.000
 RMSDP=1.16D-06 MaxDP=1.94D-05 DE=-4.84D-08 OVMax= 4.78D-05

 Cycle   7  Pass 1  IDiag  1:
 E= -78.0098766841133     Delta-E=       -0.000000006497 Rises=F Damp=F
 DIIS: error= 1.76D-06 at cycle   7 NSaved=   7.
 NSaved= 7 IEnMin= 7 EnMin= -78.0098766841133     IErMin= 7 ErrMin= 1.76D-06
 ErrMax= 1.76D-06  0.00D+00 EMaxC= 1.00D-01 BMatC= 2.34D-10 BMatP= 6.69D-09
 IDIUse=1 WtCom= 1.00D+00 WtEn= 0.00D+00
 Coeff-Com: -0.970D-05-0.532D-03-0.113D-02 0.874D-02 0.605D-01-0.377D+00
 Coeff-Com:  0.131D+01
 Coeff:     -0.970D-05-0.532D-03-0.113D-02 0.874D-02 0.605D-01-0.377D+00
 Coeff:      0.131D+01
 Gap=     0.192 Goal=   None    Shift=    0.000
 Gap=     0.334 Goal=   None    Shift=    0.000
 RMSDP=2.52D-07 MaxDP=6.08D-06 DE=-6.50D-09 OVMax= 8.96D-06

 Cycle   8  Pass 1  IDiag  1:
 E= -78.0098766843355     Delta-E=       -0.000000000222 Rises=F Damp=F
 DIIS: error= 1.45D-07 at cycle   8 NSaved=   8.
 NSaved= 8 IEnMin= 8 EnMin= -78.0098766843355     IErMin= 8 ErrMin= 1.45D-07
 ErrMax= 1.45D-07  0.00D+00 EMaxC= 1.00D-01 BMatC= 1.93D-12 BMatP= 2.34D-10
 IDIUse=1 WtCom= 1.00D+00 WtEn= 0.00D+00
 Coeff-Com:  0.505D-05-0.445D-04-0.578D-04-0.453D-03-0.156D-02 0.349D-01
 Coeff-Com: -0.212D+00 0.118D+01
 Coeff:      0.505D-05-0.445D-04-0.578D-04-0.453D-03-0.156D-02 0.349D-01
 Coeff:     -0.212D+00 0.118D+01
 Gap=     0.192 Goal=   None    Shift=    0.000
 Gap=     0.334 Goal=   None    Shift=    0.000
 RMSDP=2.04D-08 MaxDP=4.13D-07 DE=-2.22D-10 OVMax= 1.06D-06

 Cycle   9  Pass 1  IDiag  1:
 E= -78.0098766843368     Delta-E=       -0.000000000001 Rises=F Damp=F
 DIIS: error= 2.23D-08 at cycle   9 NSaved=   9.
 NSaved= 9 IEnMin= 9 EnMin= -78.0098766843368     IErMin= 9 ErrMin= 2.23D-08
 ErrMax= 2.23D-08  0.00D+00 EMaxC= 1.00D-01 BMatC= 2.10D-14 BMatP= 1.93D-12
 IDIUse=1 WtCom= 1.00D+00 WtEn= 0.00D+00
 Coeff-Com: -0.607D-06 0.119D-04 0.185D-04-0.245D-04-0.236D-03-0.198D-02
 Coeff-Com:  0.218D-01-0.199D+00 0.118D+01
 Coeff:     -0.607D-06 0.119D-04 0.185D-04-0.245D-04-0.236D-03-0.198D-02
 Coeff:      0.218D-01-0.199D+00 0.118D+01
 Gap=     0.192 Goal=   None    Shift=    0.000
 Gap=     0.334 Goal=   None    Shift=    0.000
 RMSDP=1.93D-09 MaxDP=3.39D-08 DE=-1.34D-12 OVMax= 1.24D-07

 SCF Done:  E(UM062X) =  -78.0098766843     A.U. after    9 cycles
            NFock=  9  Conv=0.19D-08     -V/T= 2.0156
 <Sx>= 0.0000 <Sy>= 0.0000 <Sz>= 0.5000 <S**2>= 0.7529 S= 0.5015
 <L.S>=  0.00000000000    
 KE= 7.680853480295D+01 PE=-2.266596260859D+02 EE= 4.634889867911D+01
 Annihilation of the first spin contaminant:
 S**2 before annihilation     0.7529,   after     0.7500
 Leave Link  502 at Tue Nov 19 11:22:43 2024, MaxMem=   536870912 cpu:              35.9 elap:               4.6
 (Enter /home/szhao/Apps/g16/l701.exe)
 ... and contract with generalized density number  0.
 Compute integral first derivatives.
 Leave Link  701 at Tue Nov 19 11:22:43 2024, MaxMem=   536870912 cpu:               0.8 elap:               0.1
 (Enter /home/szhao/Apps/g16/l702.exe)
 L702 exits ... SP integral derivatives will be done elsewhere.
 Leave Link  702 at Tue Nov 19 11:22:43 2024, MaxMem=   536870912 cpu:               0.3 elap:               0.0
 (Enter /home/szhao/Apps/g16/l703.exe)
 Integral derivatives from FoFJK, PRISM(SPDF).
 Compute integral first derivatives, UseDBF=F ICtDFT=           0.
 Calling FoFJK, ICntrl=      2127 FMM=F ISym2X=0 I1Cent= 0 IOpClX= 1 NMat=1 NMatS=1 NMatT=0.
 FoFJK:  IHMeth= 1 ICntrl=    2127 DoSepK=F KAlg= 0 I1Cent=           0 FoldK=F
 IRaf=         0 NMat=       1 IRICut=       1 DoRegI=T DoRafI=F ISym2E= 0 IDoP0=0 IntGTp=1.
 FoFCou: FMM=F IPFlag=           0 FMFlag=      100000 FMFlg1=         800
         NFxFlg=           0 DoJE=F BraDBF=F KetDBF=F FulRan=T
         wScrn=  0.000000 ICntrl=      2127 IOpCl=  1 I1Cent=           0 NGrid=           0
         NMat0=    1 NMatS0=      1 NMatT0=    0 NMatD0=    1 NMtDS0=    0 NMtDT0=    0
 Symmetry not used in FoFCou.
 Leave Link  703 at Tue Nov 19 11:22:44 2024, MaxMem=   536870912 cpu:               7.2 elap:               0.9
 (Enter /home/szhao/Apps/g16/l716.exe)
 Dipole        = 9.10044462D-08 7.06794623D-11-4.93782110D-13
 -------------------------------------------------------------------
 Center     Atomic                   Forces (Hartrees/Bohr)
 Number     Number              X              Y              Z
 -------------------------------------------------------------------
      1        6          -0.000000000   -0.000000000   -0.000000000
      2        6          -0.000000000   -0.000000000   -0.000000000
      3        1           0.048609718    0.018061410    0.000000000
      4        1           0.048441059   -0.018411907    0.000000000
      5        1          -0.048609723   -0.018061412   -0.000000000
      6        1          -0.048441064    0.018411909   -0.000000000
 -------------------------------------------------------------------
 Cartesian Forces:  Max     0.048609723 RMS     0.024437345
 Leave Link  716 at Tue Nov 19 11:22:44 2024, MaxMem=   536870912 cpu:               0.2 elap:               0.0
 (Enter /home/szhao/Apps/g16/l103.exe)

 GradGradGradGradGradGradGradGradGradGradGradGradGradGradGradGradGradGrad
 Berny optimization.
 Using GEDIIS/GDIIS optimizer.
 FormGI is forming the generalized inverse of G from B-inverse, IUseBI=4.
 Internal  Forces:  Max     0.097050787 RMS     0.039696414
 Search for a local minimum.
 Step number   2 out of a maximum of   30
 All quantities printed in internal units (Hartrees-Bohrs-Radians)
 RMS Force = .30093D-01 SwitMx=.10000D-02 MixMth= 1
 Mixed Optimization -- RFO/linear search
 Update second derivatives using D2CorX and points    1    2
 DE= -3.99D-02 DEPred=-3.68D-02 R= 1.09D+00
 TightC=F SS=  1.41D+00  RLast= 3.00D-01 DXNew= 5.0454D-01 9.0000D-01
 Trust test= 1.09D+00 RLast= 3.00D-01 DXMaxT set to 5.05D-01
 The second derivative matrix:
                          X1        Y1        Z1        X2        Y2
           X1           0.59746
           Y1          -0.00048   0.50000
           Z1          -0.00000   0.00000   0.50000
           X2          -0.09746   0.00048   0.00000   0.59746
           Y2           0.00048  -0.00000  -0.00000  -0.00048   0.50000
           Z2           0.00000  -0.00000  -0.00000  -0.00000   0.00000
           R1          -0.05361   0.00026   0.00000   0.05361  -0.00026
           R2          -0.05368   0.00026   0.00000   0.05368  -0.00026
           R3          -0.05361   0.00026   0.00000   0.05361  -0.00026
           R4          -0.05368   0.00026   0.00000   0.05368  -0.00026
           A1          -0.01417   0.00007   0.00000   0.01417  -0.00007
           A2          -0.01411   0.00007   0.00000   0.01411  -0.00007
           A3           0.02829  -0.00014  -0.00000  -0.02829   0.00014
           A4          -0.01417   0.00007   0.00000   0.01417  -0.00007
           A5          -0.01411   0.00007   0.00000   0.01411  -0.00007
           A6           0.02829  -0.00014  -0.00000  -0.02829   0.00014
           D1          -0.00000   0.00000   0.00000   0.00000  -0.00000
           D2          -0.00000   0.00000   0.00000   0.00000  -0.00000
           D3           0.00000  -0.00000  -0.00000  -0.00000   0.00000
           D4           0.00000  -0.00000  -0.00000  -0.00000   0.00000
                          Z2        R1        R2        R3        R4
           Z2           0.50000
           R1          -0.00000   0.21578
           R2          -0.00000  -0.00635   0.21568
           R3          -0.00000  -0.00635  -0.00635   0.21578
           R4          -0.00000  -0.00635  -0.00635  -0.00635   0.21568
           A1          -0.00000  -0.00530  -0.00530  -0.00530  -0.00530
           A2          -0.00000  -0.00515  -0.00515  -0.00515  -0.00515
           A3           0.00000   0.01044   0.01045   0.01044   0.01045
           A4          -0.00000  -0.00530  -0.00530  -0.00530  -0.00530
           A5          -0.00000  -0.00515  -0.00515  -0.00515  -0.00515
           A6           0.00000   0.01044   0.01045   0.01044   0.01045
           D1          -0.00000   0.00000   0.00000   0.00000   0.00000
           D2          -0.00000   0.00000   0.00000   0.00000   0.00000
           D3           0.00000  -0.00000  -0.00000  -0.00000  -0.00000
           D4           0.00000  -0.00000  -0.00000  -0.00000  -0.00000
                          A1        A2        A3        A4        A5
           A1           0.15728
           A2          -0.00266   0.15739
           A3           0.00539   0.00527   0.14934
           A4          -0.00272  -0.00266   0.00539   0.15728
           A5          -0.00266  -0.00261   0.00527  -0.00266   0.15739
           A6           0.00539   0.00527  -0.01066   0.00539   0.00527
           D1           0.00000   0.00000  -0.00000   0.00000   0.00000
           D2           0.00000   0.00000  -0.00000   0.00000   0.00000
           D3          -0.00000  -0.00000   0.00000  -0.00000  -0.00000
           D4          -0.00000  -0.00000   0.00000  -0.00000  -0.00000
                          A6        D1        D2        D3        D4
           A6           0.14934
           D1          -0.00000   0.00230
           D2          -0.00000   0.00000   0.00230
           D3           0.00000  -0.00000  -0.00000   0.00230
           D4           0.00000  -0.00000  -0.00000   0.00000   0.00230
 ITU=  1  0
 Use linear search instead of GDIIS.
 Linear search step of   0.578 exceeds DXMaxT=   0.505 but not scaled.
 Quartic linear search produced a step of  1.92528.
 Iteration  1 RMS(Cart)=  0.13448302 RMS(Int)=  0.01469920
 Iteration  2 RMS(Cart)=  0.01472646 RMS(Int)=  0.00002392
 Iteration  3 RMS(Cart)=  0.00002766 RMS(Int)=  0.00000000
 Iteration  4 RMS(Cart)=  0.00000000 RMS(Int)=  0.00000000
 ITry= 1 IFail=0 DXMaxC= 3.15D-01 DCOld= 1.00D+10 DXMaxT= 5.05D-01 DXLimC= 3.00D+00 Rises=F
 Variable       Old X    -DE/DX   Delta X   Delta X   Delta X     New X
                                 (Linear)    (Quad)   (Total)
    X1       -1.95032   0.09705   0.00000   0.00000   0.00000  -1.95032
    Y1        0.00000  -0.00052   0.00000   0.00000   0.00000   0.00000
    Z1        0.00000   0.00000   0.00000   0.00000   0.00000   0.00000
    X2        1.95032  -0.09705   0.00000   0.00000   0.00000   1.95032
    Y2        0.00000   0.00052   0.00000   0.00000   0.00000   0.00000
    Z2        0.00000  -0.00000   0.00000   0.00000   0.00000   0.00000
    R1        2.22274  -0.04404  -0.21752   0.00000  -0.21752   2.00522
    R2        2.22286  -0.04410  -0.21786   0.00000  -0.21786   2.00499
    R3        2.22274  -0.04404  -0.21752   0.00000  -0.21752   2.00522
    R4        2.22286  -0.04410  -0.21786   0.00000  -0.21786   2.00499
    A1        2.22973  -0.02039  -0.11033   0.00000  -0.11033   2.11939
    A2        2.22529  -0.02006  -0.10879   0.00000  -0.10879   2.11650
    A3        1.82817   0.04045   0.21912   0.00000   0.21912   2.04729
    A4        2.22973  -0.02039  -0.11033   0.00000  -0.11033   2.11939
    A5        2.22529  -0.02006  -0.10879   0.00000  -0.10879   2.11650
    A6        1.82817   0.04045   0.21912   0.00000   0.21912   2.04729
    D1        3.14159   0.00000   0.00000   0.00000   0.00000   3.14159
    D2        0.00000   0.00000   0.00000   0.00000   0.00000   0.00000
    D3       -0.00000  -0.00000   0.00000   0.00000   0.00000   0.00000
    D4        3.14159  -0.00000   0.00000   0.00000   0.00000   3.14159
         Item               Value     Threshold  Converged?
 Maximum Force            0.044096     0.000450     NO 
 RMS     Force            0.030093     0.000300     NO 
 Maximum Displacement     0.315219     0.001800     NO 
 RMS     Displacement     0.142013     0.001200     NO 
 Predicted change in Energy=-4.308604D-02
 Lowest energy point so far.  Saving SCF results.
 GradGradGradGradGradGradGradGradGradGradGradGradGradGradGradGradGradGrad

 Leave Link  103 at Tue Nov 19 11:22:44 2024, MaxMem=   536870912 cpu:               0.0 elap:               0.0
 (Enter /home/szhao/Apps/g16/l202.exe)
                          Input orientation:                          
 ---------------------------------------------------------------------
 Center     Atomic      Atomic             Coordinates (Angstroms)
 Number     Number       Type             X           Y           Z
 ---------------------------------------------------------------------
      1          6           0       -1.032062    0.000000    0.000000
      2          6           0        1.032062    0.000000    0.000000
      3          1           0       -1.585425   -0.905406    0.000000
      4          1           0       -1.582740    0.906900    0.000000
      5          1           0        1.585425    0.905406   -0.000000
      6          1           0        1.582740   -0.906900   -0.000000
 ---------------------------------------------------------------------
                    Distance matrix (angstroms):
                    1          2          3          4          5
     1  C    0.000000
     2  C    2.064125   0.000000
     3  H    1.061117   2.769657   0.000000
     4  H    1.060997   2.767609   1.812308   0.000000
     5  H    2.769657   1.061117   3.651483   3.168165   0.000000
     6  H    2.767609   1.060997   3.168165   3.648306   1.812308
                    6
     6  H    0.000000
 Symmetry turned off by external request.
 Stoichiometry    C2H4(1+,2)
 Framework group  C2H[SGH(C2H4)]
 Deg. of freedom     5
 Full point group                 C2H     NOp   4
 Rotational constants (GHZ):         152.6752985          14.1644152          12.9618798
 Leave Link  202 at Tue Nov 19 11:22:44 2024, MaxMem=   536870912 cpu:               0.0 elap:               0.0
 (Enter /home/szhao/Apps/g16/l301.exe)
 Standard basis: 6-311+G(d,p) (5D, 7F)
 Ernie: Thresh=  0.10000D-02 Tol=  0.10000D-05 Strict=F.
    68 basis functions,   104 primitive gaussians,    70 cartesian basis functions
     8 alpha electrons        7 beta electrons
       nuclear repulsion energy        26.9939162725 Hartrees.
 IExCor= 4336 DFT=T Ex+Corr=M062X ExCW=0 ScaHFX=  0.540000
 ScaDFX=  1.000000  1.000000  1.000000  1.000000 ScalE2=  1.000000  1.000000
 IRadAn=      7 IRanWt=     -1 IRanGd=            0 ICorTp=0 IEmpDi=  4
 NAtoms=    6 NActive=    6 NUniq=    6 SFac= 1.00D+00 NAtFMM=   60 NAOKFM=F Big=F
 Integral buffers will be    131072 words long.
 Raffenetti 2 integral format.
 Two-electron integral symmetry is turned off.
 Leave Link  301 at Tue Nov 19 11:22:44 2024, MaxMem=   536870912 cpu:               0.3 elap:               0.0
 (Enter /home/szhao/Apps/g16/l302.exe)
 NPDir=0 NMtPBC=     1 NCelOv=     1 NCel=       1 NClECP=     1 NCelD=      1
         NCelK=      1 NCelE2=     1 NClLst=     1 CellRange=     0.0.
 One-electron integrals computed using PRISM.
 NBasis=    68 RedAO= T EigKep=  1.72D-03  NBF=    68
 NBsUse=    68 1.00D-06 EigRej= -1.00D+00 NBFU=    68
 Precomputing XC quadrature grid using
 IXCGrd= 4 IRadAn=           7 IRanWt=          -1 IRanGd=           0 AccXCQ= 0.00D+00.
 Generated NRdTot=       0 NPtTot=           0 NUsed=           0 NTot=          32
 NSgBfM=    70    70    70    70    70 MxSgAt=     6 MxSgA2=     6.
 Leave Link  302 at Tue Nov 19 11:22:45 2024, MaxMem=   536870912 cpu:               1.0 elap:               0.1
 (Enter /home/szhao/Apps/g16/l303.exe)
 DipDrv:  MaxL=1.
 Leave Link  303 at Tue Nov 19 11:22:45 2024, MaxMem=   536870912 cpu:               0.3 elap:               0.0
 (Enter /home/szhao/Apps/g16/l401.exe)
 Initial guess from the checkpoint file:  "opt.chk"
 B after Tr=     0.000000    0.000000   -0.000000
         Rot=    1.000000   -0.000000   -0.000000   -0.000137 Ang=  -0.02 deg.
 Guess basis will be translated and rotated to current coordinates.
 JPrj=2 DoOrth=T DoCkMO=T.
 Initial guess <Sx>= 0.0000 <Sy>= 0.0000 <Sz>= 0.5000 <S**2>= 0.7525 S= 0.5012
 Generating alternative initial guess.
 ExpMin= 4.38D-02 ExpMax= 4.56D+03 ExpMxC= 6.82D+02 IAcc=3 IRadAn=         5 AccDes= 0.00D+00
 Harris functional with IExCor= 1009 and IRadAn=       5 diagonalized for initial guess.
 HarFok:  IExCor= 1009 AccDes= 0.00D+00 IRadAn=         5 IDoV= 1 UseB2=F ITyADJ=14
 ICtDFT=  3500011 ScaDFX=  1.000000  1.000000  1.000000  1.000000
 FoFCou: FMM=F IPFlag=           0 FMFlag=      100000 FMFlg1=           0
         NFxFlg=           0 DoJE=T BraDBF=F KetDBF=T FulRan=T
         wScrn=  0.000000 ICntrl=       500 IOpCl=  0 I1Cent=   200000004 NGrid=           0
         NMat0=    1 NMatS0=      1 NMatT0=    0 NMatD0=    1 NMtDS0=    0 NMtDT0=    0
 Symmetry not used in FoFCou.
 Harris En= -78.0682756095374    
 Leave Link  401 at Tue Nov 19 11:22:45 2024, MaxMem=   536870912 cpu:               1.8 elap:               0.2
 (Enter /home/szhao/Apps/g16/l502.exe)
 Keep R1 and R2 ints in memory in canonical form, NReq=12681614.
 FoFCou: FMM=F IPFlag=           0 FMFlag=           0 FMFlg1=           0
         NFxFlg=           0 DoJE=F BraDBF=F KetDBF=F FulRan=T
         wScrn=  0.000000 ICntrl=       600 IOpCl=  0 I1Cent=           0 NGrid=           0
         NMat0=    1 NMatS0=   2346 NMatT0=    0 NMatD0=    1 NMtDS0=    0 NMtDT0=    0
 Symmetry not used in FoFCou.
 Two-electron integral symmetry not used.
 UHF open shell SCF:
 Using DIIS extrapolation, IDIIS=  1040.
 NGot=   536870912 LenX=   531353794 LenY=   531348453
 Requested convergence on RMS density matrix=1.00D-08 within 128 cycles.
 Requested convergence on MAX density matrix=1.00D-06.
 Requested convergence on             energy=1.00D-06.
 No special actions if energy rises.

 Cycle   1  Pass 1  IDiag  1:
 E= -78.0341389182332    
 DIIS: error= 1.51D-02 at cycle   1 NSaved=   1.
 NSaved= 1 IEnMin= 1 EnMin= -78.0341389182332     IErMin= 1 ErrMin= 1.51D-02
 ErrMax= 1.51D-02  0.00D+00 EMaxC= 1.00D-01 BMatC= 3.84D-02 BMatP= 3.84D-02
 IDIUse=3 WtCom= 8.49D-01 WtEn= 1.51D-01
 Coeff-Com:  0.100D+01
 Coeff-En:   0.100D+01
 Coeff:      0.100D+01
 Recover alternate guess density for next cycle.
 RMSDP=1.83D-03 MaxDP=3.03D-02              OVMax= 0.00D+00

 Cycle   2  Pass 1  IDiag  1:
 E= -78.0341241495989     Delta-E=        0.000014768634 Rises=F Damp=F
 Switch densities from cycles 1 and 2 for lowest energy.
 DIIS: error= 1.84D-02 at cycle   2 NSaved=   2.
 NSaved= 2 IEnMin= 1 EnMin= -78.0341389182332     IErMin= 1 ErrMin= 1.51D-02
 ErrMax= 1.84D-02  0.00D+00 EMaxC= 1.00D+00 BMatC= 6.52D-02 BMatP= 3.84D-02
 IDIUse=1 WtCom= 1.00D+00 WtEn= 0.00D+00
 Coeff-Com:  0.605D+00 0.395D+00
 Coeff:      0.605D+00 0.395D+00
 Gap=     0.191 Goal=   None    Shift=    0.000
 Gap=     0.333 Goal=   None    Shift=    0.000
 RMSDP=1.13D-03 MaxDP=1.39D-02 DE= 1.48D-05 OVMax= 4.07D-02

 Cycle   3  Pass 1  IDiag  1:
 E= -78.0435688627489     Delta-E=       -0.009444713150 Rises=F Damp=F
 DIIS: error= 3.10D-03 at cycle   3 NSaved=   3.
 NSaved= 3 IEnMin= 3 EnMin= -78.0435688627489     IErMin= 3 ErrMin= 3.10D-03
 ErrMax= 3.10D-03  0.00D+00 EMaxC= 1.00D+00 BMatC= 1.43D-03 BMatP= 3.84D-02
 IDIUse=1 WtCom= 1.00D+00 WtEn= 0.00D+00
 Coeff-Com:  0.651D-01 0.440D-01 0.891D+00
 Coeff:      0.651D-01 0.440D-01 0.891D+00
 Gap=     0.192 Goal=   None    Shift=    0.000
 Gap=     0.321 Goal=   None    Shift=    0.000
 RMSDP=2.78D-04 MaxDP=8.44D-03 DE=-9.44D-03 OVMax= 8.55D-03

 Cycle   4  Pass 1  IDiag  1:
 E= -78.0439113977843     Delta-E=       -0.000342535035 Rises=F Damp=F
 DIIS: error= 1.59D-03 at cycle   4 NSaved=   4.
 NSaved= 4 IEnMin= 4 EnMin= -78.0439113977843     IErMin= 4 ErrMin= 1.59D-03
 ErrMax= 1.59D-03  0.00D+00 EMaxC= 1.00D+00 BMatC= 2.22D-04 BMatP= 1.43D-03
 IDIUse=1 WtCom= 1.00D+00 WtEn= 0.00D+00
 Coeff-Com: -0.131D-01-0.666D-02 0.263D+00 0.756D+00
 Coeff:     -0.131D-01-0.666D-02 0.263D+00 0.756D+00
 Gap=     0.192 Goal=   None    Shift=    0.000
 Gap=     0.322 Goal=   None    Shift=    0.000
 RMSDP=7.12D-05 MaxDP=1.94D-03 DE=-3.43D-04 OVMax= 2.58D-03

 Cycle   5  Pass 1  IDiag  1:
 E= -78.0439699241953     Delta-E=       -0.000058526411 Rises=F Damp=F
 DIIS: error= 1.17D-04 at cycle   5 NSaved=   5.
 NSaved= 5 IEnMin= 5 EnMin= -78.0439699241953     IErMin= 5 ErrMin= 1.17D-04
 ErrMax= 1.17D-04  0.00D+00 EMaxC= 1.00D+00 BMatC= 1.09D-06 BMatP= 2.22D-04
 IDIUse=1 WtCom= 1.00D+00 WtEn= 0.00D+00
 Coeff-Com:  0.103D-02-0.706D-03-0.477D-01-0.119D+00 0.117D+01
 Coeff:      0.103D-02-0.706D-03-0.477D-01-0.119D+00 0.117D+01
 Gap=     0.192 Goal=   None    Shift=    0.000
 Gap=     0.322 Goal=   None    Shift=    0.000
 RMSDP=1.19D-05 MaxDP=3.35D-04 DE=-5.85D-05 OVMax= 3.79D-04

 Cycle   6  Pass 1  IDiag  1:
 E= -78.0439705648622     Delta-E=       -0.000000640667 Rises=F Damp=F
 DIIS: error= 2.30D-05 at cycle   6 NSaved=   6.
 NSaved= 6 IEnMin= 6 EnMin= -78.0439705648622     IErMin= 6 ErrMin= 2.30D-05
 ErrMax= 2.30D-05  0.00D+00 EMaxC= 1.00D+00 BMatC= 5.57D-08 BMatP= 1.09D-06
 IDIUse=1 WtCom= 1.00D+00 WtEn= 0.00D+00
 Coeff-Com:  0.143D-03 0.286D-03-0.286D-02-0.916D-02-0.793D-01 0.109D+01
 Coeff:      0.143D-03 0.286D-03-0.286D-02-0.916D-02-0.793D-01 0.109D+01
 Gap=     0.192 Goal=   None    Shift=    0.000
 Gap=     0.323 Goal=   None    Shift=    0.000
 RMSDP=2.40D-06 MaxDP=5.23D-05 DE=-6.41D-07 OVMax= 8.96D-05

 Cycle   7  Pass 1  IDiag  1:
 E= -78.0439705977367     Delta-E=       -0.000000032874 Rises=F Damp=F
 DIIS: error= 8.92D-06 at cycle   7 NSaved=   7.
 NSaved= 7 IEnMin= 7 EnMin= -78.0439705977367     IErMin= 7 ErrMin= 8.92D-06
 ErrMax= 8.92D-06  0.00D+00 EMaxC= 1.00D+00 BMatC= 5.86D-09 BMatP= 5.57D-08
 IDIUse=1 WtCom= 1.00D+00 WtEn= 0.00D+00
 Coeff-Com: -0.842D-04-0.553D-04 0.469D-02 0.124D-01-0.851D-01-0.229D+00
 Coeff-Com:  0.130D+01
 Coeff:     -0.842D-04-0.553D-04 0.469D-02 0.124D-01-0.851D-01-0.229D+00
 Coeff:      0.130D+01
 Gap=     0.192 Goal=   None    Shift=    0.000
 Gap=     0.323 Goal=   None    Shift=    0.000
 RMSDP=9.88D-07 MaxDP=2.17D-05 DE=-3.29D-08 OVMax= 3.03D-05

 Cycle   8  Pass 1  IDiag  1:
 E= -78.0439706016427     Delta-E=       -0.000000003906 Rises=F Damp=F
 DIIS: error= 1.25D-06 at cycle   8 NSaved=   8.
 NSaved= 8 IEnMin= 8 EnMin= -78.0439706016427     IErMin= 8 ErrMin= 1.25D-06
 ErrMax= 1.25D-06  0.00D+00 EMaxC= 1.00D+00 BMatC= 8.74D-11 BMatP= 5.86D-09
 IDIUse=1 WtCom= 1.00D+00 WtEn= 0.00D+00
 Coeff-Com:  0.748D-05 0.557D-05-0.684D-03-0.174D-02 0.177D-01-0.257D-02
 Coeff-Com: -0.199D+00 0.119D+01
 Coeff:      0.748D-05 0.557D-05-0.684D-03-0.174D-02 0.177D-01-0.257D-02
 Coeff:     -0.199D+00 0.119D+01
 Gap=     0.192 Goal=   None    Shift=    0.000
 Gap=     0.323 Goal=   None    Shift=    0.000
 RMSDP=1.10D-07 MaxDP=2.20D-06 DE=-3.91D-09 OVMax= 4.73D-06

 Cycle   9  Pass 1  IDiag  1:
 E= -78.0439706016948     Delta-E=       -0.000000000052 Rises=F Damp=F
 DIIS: error= 4.03D-07 at cycle   9 NSaved=   9.
 NSaved= 9 IEnMin= 9 EnMin= -78.0439706016948     IErMin= 9 ErrMin= 4.03D-07
 ErrMax= 4.03D-07  0.00D+00 EMaxC= 1.00D+00 BMatC= 1.47D-11 BMatP= 8.74D-11
 IDIUse=1 WtCom= 1.00D+00 WtEn= 0.00D+00
 Coeff-Com:  0.433D-05 0.280D-05-0.351D-03-0.880D-03 0.866D-02 0.114D-02
 Coeff-Com: -0.102D+00 0.523D+00 0.570D+00
 Coeff:      0.433D-05 0.280D-05-0.351D-03-0.880D-03 0.866D-02 0.114D-02
 Coeff:     -0.102D+00 0.523D+00 0.570D+00
 Gap=     0.192 Goal=   None    Shift=    0.000
 Gap=     0.323 Goal=   None    Shift=    0.000
 RMSDP=2.92D-08 MaxDP=6.88D-07 DE=-5.21D-11 OVMax= 2.78D-06

 Cycle  10  Pass 1  IDiag  1:
 E= -78.0439706016973     Delta-E=       -0.000000000003 Rises=F Damp=F
 DIIS: error= 2.91D-07 at cycle  10 NSaved=  10.
 NSaved=10 IEnMin=10 EnMin= -78.0439706016973     IErMin=10 ErrMin= 2.91D-07
 ErrMax= 2.91D-07  0.00D+00 EMaxC= 1.00D+00 BMatC= 7.43D-12 BMatP= 1.47D-11
 IDIUse=1 WtCom= 1.00D+00 WtEn= 0.00D+00
 Coeff-Com: -0.727D-07-0.598D-06 0.494D-04 0.145D-03-0.164D-02 0.196D-02
 Coeff-Com:  0.146D-01-0.150D+00 0.439D+00 0.696D+00
 Coeff:     -0.727D-07-0.598D-06 0.494D-04 0.145D-03-0.164D-02 0.196D-02
 Coeff:      0.146D-01-0.150D+00 0.439D+00 0.696D+00
 Gap=     0.192 Goal=   None    Shift=    0.000
 Gap=     0.323 Goal=   None    Shift=    0.000
 RMSDP=1.33D-08 MaxDP=3.14D-07 DE=-2.52D-12 OVMax= 1.19D-06

 Cycle  11  Pass 1  IDiag  1:
 E= -78.0439706016997     Delta-E=       -0.000000000002 Rises=F Damp=F
 DIIS: error= 1.28D-08 at cycle  11 NSaved=  11.
 NSaved=11 IEnMin=11 EnMin= -78.0439706016997     IErMin=11 ErrMin= 1.28D-08
 ErrMax= 1.28D-08  0.00D+00 EMaxC= 1.00D+00 BMatC= 8.79D-15 BMatP= 7.43D-12
 IDIUse=1 WtCom= 1.00D+00 WtEn= 0.00D+00
 Coeff-Com: -0.979D-07 0.680D-07-0.434D-06-0.601D-05 0.859D-04-0.352D-03
 Coeff-Com: -0.927D-04 0.118D-01-0.795D-01-0.106D+00 0.117D+01
 Coeff:     -0.979D-07 0.680D-07-0.434D-06-0.601D-05 0.859D-04-0.352D-03
 Coeff:     -0.927D-04 0.118D-01-0.795D-01-0.106D+00 0.117D+01
 Gap=     0.192 Goal=   None    Shift=    0.000
 Gap=     0.323 Goal=   None    Shift=    0.000
 RMSDP=1.02D-09 MaxDP=1.40D-08 DE=-2.46D-12 OVMax= 6.07D-08

 SCF Done:  E(UM062X) =  -78.0439706017     A.U. after   11 cycles
            NFock= 11  Conv=0.10D-08     -V/T= 2.0086
 <Sx>= 0.0000 <Sy>= 0.0000 <Sz>= 0.5000 <S**2>= 0.7522 S= 0.5011
 <L.S>=  0.00000000000    
 KE= 7.737846809702D+01 PE=-2.299291882036D+02 EE= 4.751283323240D+01
 Annihilation of the first spin contaminant:
 S**2 before annihilation     0.7522,   after     0.7500
 Leave Link  502 at Tue Nov 19 11:22:51 2024, MaxMem=   536870912 cpu:              46.4 elap:               5.9
 (Enter /home/szhao/Apps/g16/l701.exe)
 ... and contract with generalized density number  0.
 Compute integral first derivatives.
 Leave Link  701 at Tue Nov 19 11:22:51 2024, MaxMem=   536870912 cpu:               0.6 elap:               0.1
 (Enter /home/szhao/Apps/g16/l702.exe)
 L702 exits ... SP integral derivatives will be done elsewhere.
 Leave Link  702 at Tue Nov 19 11:22:51 2024, MaxMem=   536870912 cpu:               0.2 elap:               0.0
 (Enter /home/szhao/Apps/g16/l703.exe)
 Integral derivatives from FoFJK, PRISM(SPDF).
 Compute integral first derivatives, UseDBF=F ICtDFT=           0.
 Calling FoFJK, ICntrl=      2127 FMM=F ISym2X=0 I1Cent= 0 IOpClX= 1 NMat=1 NMatS=1 NMatT=0.
 FoFJK:  IHMeth= 1 ICntrl=    2127 DoSepK=F KAlg= 0 I1Cent=           0 FoldK=F
 IRaf=         0 NMat=       1 IRICut=       1 DoRegI=T DoRafI=F ISym2E= 0 IDoP0=0 IntGTp=1.
 FoFCou: FMM=F IPFlag=           0 FMFlag=      100000 FMFlg1=         800
         NFxFlg=           0 DoJE=F BraDBF=F KetDBF=F FulRan=T
         wScrn=  0.000000 ICntrl=      2127 IOpCl=  1 I1Cent=           0 NGrid=           0
         NMat0=    1 NMatS0=      1 NMatT0=    0 NMatD0=    1 NMtDS0=    0 NMtDT0=    0
 Symmetry not used in FoFCou.
 Leave Link  703 at Tue Nov 19 11:22:52 2024, MaxMem=   536870912 cpu:               7.3 elap:               0.9
 (Enter /home/szhao/Apps/g16/l716.exe)
 Dipole        = 5.21470866D-10 3.92130772D-13-5.43502113D-13
 -------------------------------------------------------------------
 Center     Atomic                   Forces (Hartrees/Bohr)
 Number     Number              X              Y              Z
 -------------------------------------------------------------------
      1        6          -0.000000000   -0.000000000   -0.000000000
      2        6          -0.000000000   -0.000000000   -0.000000000
      3        1           0.003470724   -0.025666763    0.000000000
      4        1           0.003396399    0.025659866    0.000000000
      5        1          -0.003470724    0.025666763   -0.000000000
      6        1          -0.003396399   -0.025659866   -0.000000000
 -------------------------------------------------------------------
 Cartesian Forces:  Max     0.025666763 RMS     0.012205613
 Leave Link  716 at Tue Nov 19 11:22:52 2024, MaxMem=   536870912 cpu:               0.3 elap:               0.0
 (Enter /home/szhao/Apps/g16/l103.exe)

 GradGradGradGradGradGradGradGradGradGradGradGradGradGradGradGradGradGrad
 Berny optimization.
 Using GEDIIS/GDIIS optimizer.
 FormGI is forming the generalized inverse of G from B-inverse, IUseBI=4.
 Internal  Forces:  Max     0.021767098 RMS     0.012523511
 Search for a local minimum.
 Step number   3 out of a maximum of   30
 All quantities printed in internal units (Hartrees-Bohrs-Radians)
 RMS Force = .14742D-01 SwitMx=.10000D-02 MixMth= 1
 Mixed Optimization -- RFO/linear search
 Update second derivatives using D2CorX and points    2    3
 The second derivative matrix:
                          X1        Y1        Z1        X2        Y2
           X1           0.61928
           Y1          -0.00051   0.50000
           Z1          -0.00000   0.00000   0.50000
           X2          -0.11928   0.00051   0.00000   0.61928
           Y2           0.00051  -0.00000  -0.00000  -0.00051   0.50000
           Z2           0.00000  -0.00000  -0.00000  -0.00000   0.00000
           R1          -0.08482   0.00036   0.00000   0.08482  -0.00036
           R2          -0.08500   0.00036   0.00000   0.08500  -0.00036
           R3          -0.08482   0.00036   0.00000   0.08482  -0.00036
           R4          -0.08500   0.00036   0.00000   0.08500  -0.00036
           A1          -0.01241   0.00005   0.00000   0.01241  -0.00005
           A2          -0.01230   0.00005   0.00000   0.01230  -0.00005
           A3           0.02471  -0.00011  -0.00000  -0.02471   0.00011
           A4          -0.01241   0.00005   0.00000   0.01241  -0.00005
           A5          -0.01230   0.00005   0.00000   0.01230  -0.00005
           A6           0.02471  -0.00011  -0.00000  -0.02471   0.00011
           D1          -0.00000   0.00000   0.00000   0.00000  -0.00000
           D2          -0.00000   0.00000   0.00000   0.00000  -0.00000
           D3           0.00000  -0.00000  -0.00000  -0.00000   0.00000
           D4          -0.00000   0.00000   0.00000   0.00000  -0.00000
                          Z2        R1        R2        R3        R4
           Z2           0.50000
           R1          -0.00000   0.24661
           R2          -0.00000   0.02457   0.24668
           R3          -0.00000   0.02448   0.02457   0.24661
           R4          -0.00000   0.02457   0.02465   0.02457   0.24668
           A1          -0.00000  -0.00427  -0.00427  -0.00427  -0.00427
           A2          -0.00000  -0.00416  -0.00416  -0.00416  -0.00416
           A3           0.00000   0.00843   0.00842   0.00843   0.00842
           A4          -0.00000  -0.00427  -0.00427  -0.00427  -0.00427
           A5          -0.00000  -0.00416  -0.00416  -0.00416  -0.00416
           A6           0.00000   0.00843   0.00842   0.00843   0.00842
           D1          -0.00000   0.00000   0.00000   0.00000   0.00000
           D2          -0.00000   0.00000   0.00000   0.00000   0.00000
           D3           0.00000  -0.00000  -0.00000  -0.00000  -0.00000
           D4          -0.00000   0.00000   0.00000   0.00000   0.00000
                          A1        A2        A3        A4        A5
           A1           0.15651
           A2          -0.00344   0.15662
           A3           0.00693   0.00682   0.14625
           A4          -0.00349  -0.00344   0.00693   0.15651
           A5          -0.00344  -0.00338   0.00682  -0.00344   0.15662
[...]
           A6           0.03063  -0.00139  -0.00000  -0.03063   0.00139
           D1          -0.00000   0.00000   0.00000   0.00000  -0.00000
           D2          -0.00000   0.00000   0.00000   0.00000  -0.00000
           D3           0.00000  -0.00000  -0.00000  -0.00000   0.00000
           D4           0.00000  -0.00000  -0.00000  -0.00000   0.00000
                          Z2        R1        R2        R3        R4
           Z2           0.50000
           R1          -0.00000   0.25744
           R2          -0.00000   0.03695   0.26078
           R3          -0.00000   0.03531   0.03696   0.25745
           R4          -0.00000   0.03696   0.03875   0.03696   0.26078
           A1          -0.00000  -0.00163  -0.00137  -0.00163  -0.00137
           A2          -0.00000  -0.00203  -0.00179  -0.00203  -0.00179
           A3           0.00000   0.00366   0.00317   0.00366   0.00317
           A4          -0.00000  -0.00163  -0.00137  -0.00163  -0.00137
           A5          -0.00000  -0.00203  -0.00179  -0.00203  -0.00179
           A6           0.00000   0.00366   0.00317   0.00366   0.00317
           D1          -0.00000   0.00000   0.00000   0.00000   0.00000
           D2          -0.00000   0.00000   0.00000   0.00000   0.00000
           D3           0.00000  -0.00000  -0.00000  -0.00000  -0.00000
           D4           0.00000  -0.00000  -0.00000  -0.00000  -0.00000
                          A1        A2        A3        A4        A5
           A1           0.15380
           A2          -0.00608   0.15404
           A3           0.01228   0.01204   0.13568
           A4          -0.00620  -0.00608   0.01228   0.15380
           A5          -0.00608  -0.00596   0.01204  -0.00608   0.15404
           A6           0.01228   0.01204  -0.02432   0.01228   0.01204
           D1           0.00000   0.00000  -0.00000   0.00000   0.00000
           D2           0.00000   0.00000  -0.00000   0.00000   0.00000
           D3          -0.00000  -0.00000   0.00000  -0.00000  -0.00000
           D4          -0.00000  -0.00000   0.00000  -0.00000  -0.00000
                          A6        D1        D2        D3        D4
           A6           0.13568
           D1          -0.00000   0.00230
           D2          -0.00000   0.00000   0.00230
           D3           0.00000  -0.00000  -0.00000   0.00230
           D4           0.00000  -0.00000  -0.00000   0.00000   0.00230
 ITU=  1  1  1  0  1  0
     Eigenvalues ---    0.00230   0.00230   0.00230   0.08652   0.15999
     Eigenvalues ---    0.16000   0.16000   0.22203   0.22213   0.22216
     Eigenvalues ---    0.370631000.000001000.000001000.000001000.00000
     Eigenvalues --- 1000.000001000.000001000.000001000.000001000.00000
 En-DIIS/RFO-DIIS/Sim-DIIS IScMMF=       -3 using points:     6    5
 RFO step:  Lambda=-1.47005128D-08.
 NNeg= 0 NGDIIS= 2 SimSw=  2.50D-01 Rises=F DC= -6.02D-06 SmlDif=  1.00D-05
 NRisDI= 0 DoIntr=F SqrtH=F CThrHd= 10.0 CDAdj=  3.0
 RMS Error=  0.4935102987D-04 NUsed= 2 OKEnD=F EnDIS=F
 InvSVX:  RCond= 8.11D-05 Info=           0 Equed=N FErr=  9.04D-16 BErr=  4.55D-17
 DidBck=F Rises=F RFO-DIIS coefs:    0.98414    0.01586
 Iteration  1 RMS(Cart)=  0.00005074 RMS(Int)=  0.00000000
 Iteration  2 RMS(Cart)=  0.00000000 RMS(Int)=  0.00000000
 ITry= 1 IFail=0 DXMaxC= 1.38D-04 DCOld= 1.00D+10 DXMaxT= 8.49D-01 DXLimC= 3.00D+00 Rises=F
 Variable       Old X    -DE/DX   Delta X   Delta X   Delta X     New X
                                 (Linear)    (Quad)   (Total)
    X1       -1.95032   0.00003   0.00000   0.00000   0.00000  -1.95032
    Y1        0.00000  -0.00002   0.00000   0.00000   0.00000   0.00000
    Z1        0.00000  -0.00000   0.00000   0.00000   0.00000   0.00000
    X2        1.95032  -0.00003  -0.00000   0.00000   0.00000   1.95032
    Y2        0.00000   0.00002   0.00000   0.00000   0.00000   0.00000
    Z2        0.00000   0.00000   0.00000   0.00000   0.00000   0.00000
    R1        2.05017  -0.00003  -0.00004  -0.00002  -0.00006   2.05011
    R2        2.05022  -0.00005  -0.00004  -0.00010  -0.00014   2.05008
    R3        2.05017  -0.00003  -0.00004  -0.00002  -0.00006   2.05011
    R4        2.05022  -0.00005  -0.00004  -0.00010  -0.00014   2.05008
    A1        2.00525  -0.00000  -0.00003   0.00001  -0.00002   2.00523
    A2        2.00520   0.00000  -0.00003   0.00004   0.00001   2.00521
    A3        2.27273  -0.00000   0.00006  -0.00005   0.00001   2.27274
    A4        2.00525  -0.00000  -0.00003   0.00001  -0.00002   2.00523
    A5        2.00520   0.00000  -0.00003   0.00004   0.00001   2.00521
    A6        2.27273  -0.00000   0.00006  -0.00005   0.00001   2.27274
    D1        3.14159  -0.00000   0.00000  -0.00000  -0.00000   3.14159
    D2        0.00000  -0.00000  -0.00000  -0.00000  -0.00000  -0.00000
    D3       -0.00000   0.00000   0.00000   0.00000   0.00000   0.00000
    D4        3.14159   0.00000   0.00000   0.00000   0.00000  -3.14159
         Item               Value     Threshold  Converged?
 Maximum Force            0.000047     0.000450     YES
 RMS     Force            0.000021     0.000300     YES
 Maximum Displacement     0.000138     0.001800     YES
 RMS     Displacement     0.000051     0.001200     YES
 Predicted change in Energy=-8.362548D-09
 Optimization completed.
    -- Stationary point found.
                           ----------------------------
                           !   Optimized Parameters   !
                           ! (Angstroms and Degrees)  !
 --------------------------                            --------------------------
 ! Name  Definition              Value          Derivative Info.                !
 --------------------------------------------------------------------------------
 ! X1    R(1,-1)                -1.0321         -DE/DX =    0.0                 !
 ! Y1    R(1,-2)                 0.0            -DE/DX =    0.0                 !
 ! Z1    R(1,-3)                 0.0            -DE/DX =    0.0                 !
 ! X2    R(2,-1)                 1.0321         -DE/DX =    0.0                 !
 ! Y2    R(2,-2)                 0.0            -DE/DX =    0.0                 !
 ! Z2    R(2,-3)                 0.0            -DE/DX =    0.0                 !
 ! R1    R(1,3)                  1.0849         -DE/DX =    0.0                 !
 ! R2    R(1,4)                  1.0849         -DE/DX =    0.0                 !
 ! R3    R(2,5)                  1.0849         -DE/DX =    0.0                 !
 ! R4    R(2,6)                  1.0849         -DE/DX =    0.0                 !
 ! A1    A(2,1,3)              114.8923         -DE/DX =    0.0                 !
 ! A2    A(2,1,4)              114.8897         -DE/DX =    0.0                 !
 ! A3    A(3,1,4)              130.218          -DE/DX =    0.0                 !
 ! A4    A(1,2,5)              114.8923         -DE/DX =    0.0                 !
 ! A5    A(1,2,6)              114.8897         -DE/DX =    0.0                 !
 ! A6    A(5,2,6)              130.218          -DE/DX =    0.0                 !
 ! D1    D(3,1,2,5)            180.0            -DE/DX =    0.0                 !
 ! D2    D(3,1,2,6)              0.0            -DE/DX =    0.0                 !
 ! D3    D(4,1,2,5)              0.0            -DE/DX =    0.0                 !
 ! D4    D(4,1,2,6)           -180.0            -DE/DX =    0.0                 !
 --------------------------------------------------------------------------------
 Lowest energy point so far.  Saving SCF results.
 Largest change from initial coordinates is atom    5       0.353 Angstoms.
 GradGradGradGradGradGradGradGradGradGradGradGradGradGradGradGradGradGrad

 Leave Link  103 at Tue Nov 19 11:23:09 2024, MaxMem=   536870912 cpu:               0.0 elap:               0.0
 (Enter /home/szhao/Apps/g16/l202.exe)
                          Input orientation:                          
 ---------------------------------------------------------------------
 Center     Atomic      Atomic             Coordinates (Angstroms)
 Number     Number       Type             X           Y           Z
 ---------------------------------------------------------------------
      1          6           0       -1.032062    0.000000    0.000000
      2          6           0        1.032062    0.000000    0.000000
      3          1           0       -1.488714   -0.984117    0.000000
      4          1           0       -1.488681    0.984163    0.000000
      5          1           0        1.488714    0.984117   -0.000000
      6          1           0        1.488681   -0.984163   -0.000000
 ---------------------------------------------------------------------
                    Distance matrix (angstroms):
                    1          2          3          4          5
     1  C    0.000000
     2  C    2.064125   0.000000
     3  H    1.084904   2.706067   0.000000
     4  H    1.084932   2.706053   1.968280   0.000000
     5  H    2.706067   1.084904   3.569176   2.977395   0.000000
     6  H    2.706053   1.084932   2.977395   3.569172   1.968280
                    6
     6  H    0.000000
 Symmetry turned off by external request.
 Stoichiometry    C2H4(1+,2)
 Framework group  C1[X(C2H4)]
 Deg. of freedom    12
 Full point group                 C1      NOp   1
 Rotational constants (GHZ):         129.4369326          14.6495543          13.1601055
 Leave Link  202 at Tue Nov 19 11:23:09 2024, MaxMem=   536870912 cpu:               0.0 elap:               0.0
 (Enter /home/szhao/Apps/g16/l601.exe)
 Copying SCF densities to generalized density rwf, IOpCl= 1 IROHF=0.

 **********************************************************************

            Population analysis using the SCF density.

 **********************************************************************

 Alpha  occ. eigenvalues --  -10.92245 -10.92231  -1.06493  -1.00148  -0.80627
 Alpha  occ. eigenvalues --   -0.77606  -0.66662  -0.56002
 Alpha virt. eigenvalues --   -0.36689  -0.25053  -0.14093  -0.11010  -0.10151
 Alpha virt. eigenvalues --   -0.08353  -0.07482  -0.07157  -0.04756  -0.04101
 Alpha virt. eigenvalues --   -0.02851  -0.00447   0.02083   0.09340   0.17941
 Alpha virt. eigenvalues --    0.22859   0.24302   0.32358   0.37772   0.39102
 Alpha virt. eigenvalues --    0.41143   0.44642   0.45323   0.48923   0.53004
 Alpha virt. eigenvalues --    0.55972   0.79863   0.81626   0.86708   0.89938
 Alpha virt. eigenvalues --    1.13858   1.16006   1.17159   1.23912   1.26230
 Alpha virt. eigenvalues --    1.43087   1.46957   1.50647   1.54492   1.61542
 Alpha virt. eigenvalues --    1.67407   1.72555   1.76509   1.77757   2.11812
 Alpha virt. eigenvalues --    2.26135   2.29118   2.33941   2.37674   2.37936
 Alpha virt. eigenvalues --    2.40935   2.42868   2.44576   2.47294   2.48146
 Alpha virt. eigenvalues --    3.05328   3.41934   3.45745  23.50014  23.50944
  Beta  occ. eigenvalues --  -10.92008 -10.91999  -1.03431  -0.97906  -0.80103
  Beta  occ. eigenvalues --   -0.77252  -0.65091
  Beta virt. eigenvalues --   -0.35248  -0.27916  -0.22692  -0.15399  -0.11332
  Beta virt. eigenvalues --   -0.10220  -0.07796  -0.07550  -0.07382  -0.04173
  Beta virt. eigenvalues --   -0.03897  -0.02376   0.00121   0.01257   0.10091
  Beta virt. eigenvalues --    0.17963   0.23008   0.24770   0.33742   0.36447
  Beta virt. eigenvalues --    0.40286   0.42215   0.43674   0.46853   0.50256
  Beta virt. eigenvalues --    0.52956   0.56017   0.83012   0.84478   0.89766
  Beta virt. eigenvalues --    0.93531   1.14837   1.17604   1.19194   1.27441
  Beta virt. eigenvalues --    1.28830   1.44522   1.48392   1.52280   1.58183
  Beta virt. eigenvalues --    1.62713   1.68623   1.74311   1.78018   1.79437
  Beta virt. eigenvalues --    2.15540   2.27825   2.31666   2.35241   2.40885
  Beta virt. eigenvalues --    2.43159   2.43218   2.45042   2.48745   2.49548
  Beta virt. eigenvalues --    2.51447   3.09918   3.46552   3.50387  23.51268
  Beta virt. eigenvalues --   23.52189
          Condensed to atoms (all electrons):
               1          2          3          4          5          6
     1  C    5.016370   0.338960   0.369326   0.369322  -0.013245  -0.013247
     2  C    0.338960   5.016369  -0.013245  -0.013247   0.369326   0.369322
     3  H    0.369326  -0.013245   0.365615  -0.006454   0.000386   0.000630
     4  H    0.369322  -0.013247  -0.006454   0.365619   0.000630   0.000386
     5  H   -0.013245   0.369326   0.000386   0.000630   0.365615  -0.006454
     6  H   -0.013247   0.369322   0.000630   0.000386  -0.006454   0.365619
          Atomic-Atomic Spin Densities.
               1          2          3          4          5          6
     1  C    0.489747   0.061363  -0.005676  -0.005676   0.000782   0.000783
     2  C    0.061363   0.489747   0.000782   0.000783  -0.005676  -0.005676
     3  H   -0.005676   0.000782  -0.015740   0.000097  -0.000017  -0.000108
     4  H   -0.005676   0.000783   0.000097  -0.015740  -0.000108  -0.000017
     5  H    0.000782  -0.005676  -0.000017  -0.000108  -0.015740   0.000097
     6  H    0.000783  -0.005676  -0.000108  -0.000017   0.000097  -0.015740
 Mulliken charges and spin densities:
               1          2
     1  C   -0.067486   0.541323
     2  C   -0.067486   0.541323
     3  H    0.283742  -0.020661
     4  H    0.283744  -0.020662
     5  H    0.283742  -0.020661
     6  H    0.283744  -0.020662
 Sum of Mulliken charges =   1.00000   1.00000
 Mulliken charges and spin densities with hydrogens summed into heavy atoms:
               1          2
     1  C    0.500000   0.500000
     2  C    0.500000   0.500000
 Electronic spatial extent (au):  <R**2>=            107.8264
 Charge=              1.0000 electrons
 Dipole moment (field-independent basis, Debye):
    X=              0.0000    Y=             -0.0000    Z=              0.0000  Tot=              0.0000
 Quadrupole moment (field-independent basis, Debye-Ang):
   XX=             -1.7812   YY=             -8.1205   ZZ=            -12.5467
   XY=             -0.0000   XZ=             -0.0000   YZ=             -0.0000
 Traceless Quadrupole moment (field-independent basis, Debye-Ang):
   XX=              5.7016   YY=             -0.6377   ZZ=             -5.0639
   XY=             -0.0000   XZ=             -0.0000   YZ=             -0.0000
 Octapole moment (field-independent basis, Debye-Ang**2):
  XXX=              0.0000  YYY=              0.0000  ZZZ=             -0.0000  XYY=              0.0000
  XXY=             -0.0000  XXZ=              0.0000  XZZ=              0.0000  YZZ=              0.0000
  YYZ=              0.0000  XYZ=             -0.0000
 Hexadecapole moment (field-independent basis, Debye-Ang**3):
 XXXX=            -84.6820 YYYY=            -17.6850 ZZZZ=            -12.8477 XXXY=              0.0007
 XXXZ=              0.0000 YYYX=             -0.0003 YYYZ=              0.0000 ZZZX=              0.0000
 ZZZY=              0.0000 XXYY=             -9.2130 XXZZ=            -19.3154 YYZZ=             -6.4997
 XXYZ=             -0.0000 YYXZ=             -0.0000 ZZXY=              0.0001
 N-N= 2.681842223680D+01 E-N=-2.295758964094D+02  KE= 7.726275816179D+01
                          Isotropic Fermi Contact Couplings
        Atom                 a.u.       MegaHertz       Gauss      10(-4) cm-1
     1  C(13)              0.09141     102.75863      36.66683      34.27659
     2  C(13)              0.09141     102.75866      36.66684      34.27660
     3  H(1)              -0.00805     -35.98750     -12.84123     -12.00414
     4  H(1)              -0.00805     -35.98834     -12.84154     -12.00442
     5  H(1)              -0.00805     -35.98750     -12.84124     -12.00414
     6  H(1)              -0.00805     -35.98835     -12.84154     -12.00442
 --------------------------------------------------------
       Center         ----  Spin Dipole Couplings  ----
                      3XX-RR        3YY-RR        3ZZ-RR
 --------------------------------------------------------
     1   Atom       -0.281414     -0.284306      0.565719
     2   Atom       -0.281413     -0.284306      0.565719
     3   Atom       -0.015093      0.020718     -0.005625
     4   Atom       -0.015095      0.020720     -0.005626
     5   Atom       -0.015093      0.020718     -0.005625
     6   Atom       -0.015095      0.020720     -0.005626
 --------------------------------------------------------
                        XY            XZ            YZ
 --------------------------------------------------------
     1   Atom       -0.000001     -0.000000     -0.000000
     2   Atom       -0.000001     -0.000000      0.000000
     3   Atom        0.033242     -0.000000     -0.000000
     4   Atom       -0.033239     -0.000000      0.000000
     5   Atom        0.033242     -0.000000     -0.000000
     6   Atom       -0.033239     -0.000000      0.000000
 --------------------------------------------------------


 ---------------------------------------------------------------------------------
              Anisotropic Spin Dipole Couplings in Principal Axis System
 ---------------------------------------------------------------------------------

       Atom             a.u.   MegaHertz   Gauss  10(-4) cm-1        Axes

              Baa    -0.2843   -38.151   -13.613   -12.726  0.0002  1.0000  0.0000
     1 C(13)  Bbb    -0.2814   -37.763   -13.475   -12.596  1.0000 -0.0002  0.0000
              Bcc     0.5657    75.914    27.088    25.322 -0.0000 -0.0000  1.0000
 
              Baa    -0.2843   -38.151   -13.613   -12.726  0.0002  1.0000 -0.0000
     2 C(13)  Bbb    -0.2814   -37.763   -13.475   -12.596  1.0000 -0.0002  0.0000
              Bcc     0.5657    75.914    27.088    25.322 -0.0000  0.0000  1.0000
 
              Baa    -0.0349   -18.645    -6.653    -6.219  0.8586 -0.5127 -0.0000
     3 H(1)   Bbb    -0.0056    -3.001    -1.071    -1.001  0.0000  0.0000  1.0000
              Bcc     0.0406    21.646     7.724     7.220  0.5127  0.8586 -0.0000
 
              Baa    -0.0349   -18.644    -6.653    -6.219  0.8586  0.5127 -0.0000
     4 H(1)   Bbb    -0.0056    -3.002    -1.071    -1.001  0.0000 -0.0000  1.0000
              Bcc     0.0406    21.646     7.724     7.220 -0.5127  0.8586  0.0000
 
              Baa    -0.0349   -18.645    -6.653    -6.219  0.8586 -0.5127  0.0000
     5 H(1)   Bbb    -0.0056    -3.001    -1.071    -1.001 -0.0000  0.0000  1.0000
              Bcc     0.0406    21.646     7.724     7.220  0.5127  0.8586 -0.0000
 
              Baa    -0.0349   -18.644    -6.653    -6.219  0.8586  0.5127  0.0000
     6 H(1)   Bbb    -0.0056    -3.002    -1.071    -1.001 -0.0000 -0.0000  1.0000
              Bcc     0.0406    21.646     7.724     7.220 -0.5127  0.8586  0.0000
 

 ---------------------------------------------------------------------------------

 No NMR shielding tensors so no spin-rotation constants.
 Leave Link  601 at Tue Nov 19 11:23:09 2024, MaxMem=   536870912 cpu:               1.2 elap:               0.2
 (Enter /home/szhao/Apps/g16/l9999.exe)
 1\1\GINC-NODE01\FOpt\UM062X\6-311+G(d,p)\C2H4(1+,2)\SZHAO\19-Nov-2024\
 0\\#p opt UM062X/6-311+G** nosymm int=superfine\\Title Card Required\\
 1,2\C,-1.03206232,0.,0.\C,1.03206232,0.,0.\H,-1.4887137022,-0.98411720
 36,0.0000000141\H,-1.4886809782,0.9841629412,0.0000000163\H,1.48871368
 82,0.9841172504,-0.0000000069\H,1.4886809644,-0.984162988,-0.000000004
 8\\Version=ES64L-G16RevA.03\HF=-78.0528739\S2=0.752171\S2-1=0.\S2A=0.7
 50004\RMSD=6.445e-09\RMSF=1.813e-05\Dipole=0.0000004,0.,0.\Quadrupole=
 4.2389988,-0.4740891,-3.7649097,-0.0000179,0.,0.\PG=C01 [X(C2H4)]\\@


 THE HURRIEDER I GO, THE BEHINDER I GET.
 Job cpu time:       0 days  0 hours  4 minutes 54.5 seconds.
 Elapsed time:       0 days  0 hours  0 minutes 37.4 seconds.
 File lengths (MBytes):  RWF=     10 Int=      0 D2E=      0 Chk=      2 Scr=      1
 Normal termination of Gaussian 16 at Tue Nov 19 11:23:09 2024.
