Title Card Required                                                     
FOpt      UM062X                                                      6-311+G(d,p)        
Number of atoms                            I                6
Info1-9                                    I   N=           9
          15          15           0           0           0         110
           2          18        -502
Full Title                                 C   N=           2
Title Card Required     
Route                                      C   N=           6
#p opt UM062X/6-311+G** nosymm int=superfine SCF=NoVarAcc SC
F=tight     
Charge                                     I                1
Multiplicity                               I                2
Number of electrons                        I               15
Number of alpha electrons                  I                8
Number of beta electrons                   I                7
Number of basis functions                  I               68
Number of independent functions            I               68
Number of point charges in /Mol/           I                0
Number of translation vectors              I                0
Atomic numbers                             I   N=           6
           6           6           1           1           1           1
Nuclear charges                            R   N=           6
  6.00000000E+00  6.00000000E+00  1.00000000E+00  1.00000000E+00  1.00000000E+00
  1.00000000E+00
Current cartesian coordinates              R   N=          18
 -1.81527602E+01  0.00000000E+00  0.00000000E+00  1.81527602E+01  0.00000000E+00
  0.00000000E+00 -1.92163554E+01 -1.77926352E+00 -6.33614586E-09 -1.92162309E+01
  1.77933663E+00 -6.01572526E-09  1.92163554E+01  1.77926352E+00  9.60764815E-11
  1.92162308E+01 -1.77933663E+00  4.16614943E-10
Number of symbols in /Mol/                 I                0
Force Field                                I                0
Atom Types                                 C   N=           6
                                                            
            
Int Atom Types                             I   N=           6
           0           0           0           0           0           0
MM charges                                 R   N=           6
  0.00000000E+00  0.00000000E+00  0.00000000E+00  0.00000000E+00  0.00000000E+00
  0.00000000E+00
Integer atomic weights                     I   N=           6
          12          12           1           1           1           1
Real atomic weights                        R   N=           6
  1.20000000E+01  1.20000000E+01  1.00782504E+00  1.00782504E+00  1.00782504E+00
  1.00782504E+00
Atom fragment info                         I   N=           6
           0           0           0           0           0           0
Atom residue num                           I   N=           6
           0           0           0           0           0           0
Nuclear spins                              I   N=           6
           0           0           1           1           1           1
Nuclear ZEff                               R   N=           6
 -3.60000000E+00 -3.60000000E+00 -1.00000000E+00 -1.00000000E+00 -1.00000000E+00
 -1.00000000E+00
Nuclear ZNuc                               R   N=           6
  6.00000000E+00  6.00000000E+00  1.00000000E+00  1.00000000E+00  1.00000000E+00
  1.00000000E+00
Nuclear QMom                               R   N=           6
  0.00000000E+00  0.00000000E+00  0.00000000E+00  0.00000000E+00  0.00000000E+00
  0.00000000E+00
Nuclear GFac                               R   N=           6
  0.00000000E+00  0.00000000E+00  2.79284600E+00  2.79284600E+00  2.79284600E+00
  2.79284600E+00
MicOpt                                     I   N=           6
          -2          -2          -1          -1          -1          -1
Number of residues                         I                0
Number of secondary structures             I                0
Redundant internal dimensions              I   N=           4
          20          10           6           4
Redundant internal coordinate indices      I   N=          80
           1          -1           0           0           1          -2
           0           0           1          -3           0           0
           2          -1           0           0           2          -2
           0           0           2          -3           0           0
           1           3           0           0           1           4
           0           0           2           5           0           0
           2           6           0           0           2           1
           3           0           2           1           4           0
           3           1           4           0           1           2
           5           0           1           2           6           0
           5           2           6           0           3           1
           2           5           3           1           2           6
           4           1           2           5           4           1
           2           6
Redundant internal coordinates             R   N=          20
 -1.81527602E+01  0.00000000E+00  0.00000000E+00  1.81527602E+01  0.00000000E+00
  0.00000000E+00  2.07292390E+00  2.07292276E+00  2.07292390E+00  2.07292275E+00
  2.10957653E+00  2.10950686E+00  2.06410192E+00  2.10957653E+00  2.10950686E+00
  2.06410192E+00  3.14159265E+00 -0.00000000E+00  0.00000000E+00  3.14159265E+00
ZRed-IntVec                                I   N=          20
          -1          -1          -1          -1          -1          -1
           0           0           0           0           0           0
           0           0           0           0           0           0
           0           0
ZRed-FPVec                                 R   N=          20
  0.00000000E+00  0.00000000E+00  0.00000000E+00  0.00000000E+00  0.00000000E+00
  0.00000000E+00  0.00000000E+00  0.00000000E+00  0.00000000E+00  0.00000000E+00
  0.00000000E+00  0.00000000E+00  0.00000000E+00  0.00000000E+00  0.00000000E+00
  0.00000000E+00  0.00000000E+00  0.00000000E+00  0.00000000E+00  0.00000000E+00
ZRed-Constraint1                           R   N=          20
 -1.81527602E+01  0.00000000E+00  0.00000000E+00  1.81527602E+01  0.00000000E+00
  0.00000000E+00  2.05067934E+00  2.05048469E+00  2.05067934E+00  2.05048469E+00
  1.98162443E+00  1.98155420E+00  2.32000667E+00  1.98162443E+00  1.98155420E+00
  2.32000667E+00  3.14159265E+00  0.00000000E+00  0.00000000E+00  3.14159265E+00
ZRed-Constraint2                           R   N=          20
 -1.81527602E+01  0.00000000E+00  0.00000000E+00  1.81527602E+01  0.00000000E+00
  0.00000000E+00  0.00000000E+00  0.00000000E+00  0.00000000E+00  0.00000000E+00
  0.00000000E+00  0.00000000E+00  0.00000000E+00  0.00000000E+00  0.00000000E+00
  0.00000000E+00  0.00000000E+00  0.00000000E+00  0.00000000E+00  0.00000000E+00
Number of contracted shells                I               28
Number of primitive shells                 I               50
Pure/Cartesian d shells                    I                0
Pure/Cartesian f shells                    I                0
Highest angular momentum                   I                2
Largest degree of contraction              I                6
Shell types                                I   N=          28
           0          -1          -1          -1          -1          -2
           0          -1          -1          -1          -1          -2
           0           0           0           1           0           0
           0           1           0           0           0           1
           0           0           0           1
Number of primitives per shell             I   N=          28
           6           3           1           1           1           1
           6           3           1           1           1           1
           3           1           1           1           3           1
           1           1           3           1           1           1
           3           1           1           1
Shell to atom map                          I   N=          28
           1           1           1           1           1           1
           2           2           2           2           2           2
           3           3           3           3           4           4
           4           4           5           5           5           5
           6           6           6           6
Primitive exponents                        R   N=          50
  4.56324000E+03  6.82024000E+02  1.54973000E+02  4.44553000E+01  1.30290000E+01
  1.82773000E+00  2.09642000E+01  4.80331000E+00  1.45933000E+00  4.83456000E-01
  1.45585000E-01  4.38000000E-02  6.26000000E-01  4.56324000E+03  6.82024000E+02
  1.54973000E+02  4.44553000E+01  1.30290000E+01  1.82773000E+00  2.09642000E+01
  4.80331000E+00  1.45933000E+00  4.83456000E-01  1.45585000E-01  4.38000000E-02
  6.26000000E-01  3.38650000E+01  5.09479000E+00  1.15879000E+00  3.25840000E-01
  1.02741000E-01  7.50000000E-01  3.38650000E+01  5.09479000E+00  1.15879000E+00
  3.25840000E-01  1.02741000E-01  7.50000000E-01  3.38650000E+01  5.09479000E+00
  1.15879000E+00  3.25840000E-01  1.02741000E-01  7.50000000E-01  3.38650000E+01
  5.09479000E+00  1.15879000E+00  3.25840000E-01  1.02741000E-01  7.50000000E-01
Contraction coefficients                   R   N=          50
  1.96665025E-03  1.52306019E-02  7.61269097E-02  2.60801033E-01  6.16462078E-01
  2.21006028E-01  1.14660081E-01  9.19999648E-01 -3.03068213E-03  1.00000000E+00
  1.00000000E+00  1.00000000E+00  1.00000000E+00  1.96665025E-03  1.52306019E-02
  7.61269097E-02  2.60801033E-01  6.16462078E-01  2.21006028E-01  1.14660081E-01
  9.19999648E-01 -3.03068213E-03  1.00000000E+00  1.00000000E+00  1.00000000E+00
  1.00000000E+00  2.54938145E-02  1.90373109E-01  8.52161486E-01  1.00000000E+00
  1.00000000E+00  1.00000000E+00  2.54938145E-02  1.90373109E-01  8.52161486E-01
  1.00000000E+00  1.00000000E+00  1.00000000E+00  2.54938145E-02  1.90373109E-01
  8.52161486E-01  1.00000000E+00  1.00000000E+00  1.00000000E+00  2.54938145E-02
  1.90373109E-01  8.52161486E-01  1.00000000E+00  1.00000000E+00  1.00000000E+00
P(S=P) Contraction coefficients            R   N=          50
  0.00000000E+00  0.00000000E+00  0.00000000E+00  0.00000000E+00  0.00000000E+00
  0.00000000E+00  4.02486927E-02  2.37593957E-01  8.15853851E-01  1.00000000E+00
  1.00000000E+00  1.00000000E+00  0.00000000E+00  0.00000000E+00  0.00000000E+00
  0.00000000E+00  0.00000000E+00  0.00000000E+00  0.00000000E+00  4.02486927E-02
  2.37593957E-01  8.15853851E-01  1.00000000E+00  1.00000000E+00  1.00000000E+00
  0.00000000E+00  0.00000000E+00  0.00000000E+00  0.00000000E+00  0.00000000E+00
  0.00000000E+00  0.00000000E+00  0.00000000E+00  0.00000000E+00  0.00000000E+00
  0.00000000E+00  0.00000000E+00  0.00000000E+00  0.00000000E+00  0.00000000E+00
  0.00000000E+00  0.00000000E+00  0.00000000E+00  0.00000000E+00  0.00000000E+00
  0.00000000E+00  0.00000000E+00  0.00000000E+00  0.00000000E+00  0.00000000E+00
Coordinates of each shell                  R   N=          84
 -1.81527602E+01  0.00000000E+00  0.00000000E+00 -1.81527602E+01  0.00000000E+00
  0.00000000E+00 -1.81527602E+01  0.00000000E+00  0.00000000E+00 -1.81527602E+01
  0.00000000E+00  0.00000000E+00 -1.81527602E+01  0.00000000E+00  0.00000000E+00
 -1.81527602E+01  0.00000000E+00  0.00000000E+00  1.81527602E+01  0.00000000E+00
  0.00000000E+00  1.81527602E+01  0.00000000E+00  0.00000000E+00  1.81527602E+01
  0.00000000E+00  0.00000000E+00  1.81527602E+01  0.00000000E+00  0.00000000E+00
  1.81527602E+01  0.00000000E+00  0.00000000E+00  1.81527602E+01  0.00000000E+00
  0.00000000E+00 -1.92163554E+01 -1.77926352E+00 -6.33614586E-09 -1.92163554E+01
 -1.77926352E+00 -6.33614586E-09 -1.92163554E+01 -1.77926352E+00 -6.33614586E-09
 -1.92163554E+01 -1.77926352E+00 -6.33614586E-09 -1.92162309E+01  1.77933663E+00
 -6.01572526E-09 -1.92162309E+01  1.77933663E+00 -6.01572526E-09 -1.92162309E+01
  1.77933663E+00 -6.01572526E-09 -1.92162309E+01  1.77933663E+00 -6.01572526E-09
  1.92163554E+01  1.77926352E+00  9.60764815E-11  1.92163554E+01  1.77926352E+00
  9.60764815E-11  1.92163554E+01  1.77926352E+00  9.60764815E-11  1.92163554E+01
  1.77926352E+00  9.60764815E-11  1.92162308E+01 -1.77933663E+00  4.16614943E-10
  1.92162308E+01 -1.77933663E+00  4.16614943E-10  1.92162308E+01 -1.77933663E+00
  4.16614943E-10  1.92162308E+01 -1.77933663E+00  4.16614943E-10
Num ILSW                                   I              100
ILSW                                       I   N=         100
           1           0           0           1           2           0
           0           0           0           0        4336          -1
           7           0           0           0           2           0
           0           0           0           0           1           0
           1           1           0           0           0           0
           0           0      100000           0          -1           0
           0           0           0           0           0           0
           0           0           0           1           0           0
           0 -2000000000           1           0           0           0
           0           0           4          52           0           0
           0           0          55           0           0           0
           0           0           0           6           0           1
           0           0           0           0           0           0
           0           0           0           0           0           0
           0           0           0           0           0           0
           0           0           0           0           0           0
           0           0           0           0
Num RLSW                                   I               52
RLSW                                       R   N=          52
  1.00000000E+00  1.00000000E+00  1.00000000E+00  1.00000000E+00  5.40000000E-01
  0.00000000E+00  0.00000000E+00  1.00000000E+00  0.00000000E+00  0.00000000E+00
  0.00000000E+00  0.00000000E+00  1.00000000E+00  0.00000000E+00  0.00000000E+00
  0.00000000E+00  0.00000000E+00  1.00000000E+00  0.00000000E+00  0.00000000E+00
  0.00000000E+00  0.00000000E+00  1.00000000E+00  0.00000000E+00  0.00000000E+00
  0.00000000E+00  0.00000000E+00  1.00000000E+00  0.00000000E+00  0.00000000E+00
  0.00000000E+00  0.00000000E+00  1.00000000E+00  0.00000000E+00  0.00000000E+00
  0.00000000E+00  0.00000000E+00  0.00000000E+00  1.00000000E+00  1.00000000E+00
  0.00000000E+00  1.00000000E+00  0.00000000E+00  0.00000000E+00  0.00000000E+00
  0.00000000E+00  0.00000000E+00  0.00000000E+00  0.00000000E+00  0.00000000E+00
  0.00000000E+00  0.00000000E+00
MxBond                                     I                3
NBond                                      I   N=           6
           3           3           1           1           1           1
IBond                                      I   N=          18
           2           3           4           1           5           6
           1           0           0           1           0           0
           2           0           0           2           0           0
RBond                                      R   N=          18
  1.00000000E-01  1.00000000E+00  1.00000000E+00  1.00000000E-01  1.00000000E+00
  1.00000000E+00  1.00000000E+00  0.00000000E+00  0.00000000E+00  1.00000000E+00
  0.00000000E+00  0.00000000E+00  1.00000000E+00  0.00000000E+00  0.00000000E+00
  1.00000000E+00  0.00000000E+00  0.00000000E+00
Virial Ratio                               R      2.003447987229094E+00
SCF Energy                                 R     -7.789650835329600E+01
Total Energy                               R     -7.789650835329600E+01
S**2                                       R      7.585563341320212E-01
S**2 after annihilation                    R      7.500093120958899E-01
RMS Force                                  R      1.166156245735768E-05
RMS Density                                R      4.918072751605978E-09
Job Status                                 I                1
Nuclear derivative order                   I                1
External E-field                           R   N=          35
  0.00000000E+00  0.00000000E+00  0.00000000E+00  0.00000000E+00  0.00000000E+00
  0.00000000E+00  0.00000000E+00  0.00000000E+00  0.00000000E+00  0.00000000E+00
  0.00000000E+00  0.00000000E+00  0.00000000E+00  0.00000000E+00  0.00000000E+00
  0.00000000E+00  0.00000000E+00  0.00000000E+00  0.00000000E+00  0.00000000E+00
  0.00000000E+00  0.00000000E+00  0.00000000E+00  0.00000000E+00  0.00000000E+00
  0.00000000E+00  0.00000000E+00  0.00000000E+00  0.00000000E+00  0.00000000E+00
  0.00000000E+00  0.00000000E+00  0.00000000E+00  0.00000000E+00  0.00000000E+00
IOpCl                                      I                1
IROHF                                      I                0
Alpha Orbital Energies                     R   N=          68
 -1.08422638E+01 -1.08422638E+01 -9.58472739E-01 -9.58472736E-01 -7.04854577E-01
 -7.04854573E-01 -5.32029779E-01 -5.32029778E-01 -2.75103349E-01 -2.75103348E-01
 -8.41101839E-02 -8.41101835E-02 -4.04206748E-02 -4.04206742E-02 -2.25463962E-02
 -2.25463957E-02 -2.00447576E-02 -2.00447571E-02  3.99272986E-02  3.99272986E-02
  4.71887229E-02  4.71887238E-02  3.11187810E-01  3.11187811E-01  3.13055219E-01
  3.13055221E-01  4.25387749E-01  4.25387750E-01  4.38677321E-01  4.38677321E-01
  4.65910463E-01  4.65910464E-01  5.49171024E-01  5.49171025E-01  8.88041461E-01
  8.88041462E-01  9.83227462E-01  9.83227463E-01  1.02954086E+00  1.02954086E+00
  1.26935631E+00  1.26935631E+00  1.34445970E+00  1.34445970E+00  1.51738642E+00
  1.51738643E+00  1.61650193E+00  1.61650193E+00  1.75601450E+00  1.75601450E+00
  1.87076628E+00  1.87076628E+00  2.21783721E+00  2.21783721E+00  2.29635049E+00
  2.29635050E+00  2.31444099E+00  2.31444100E+00  2.44956423E+00  2.44956423E+00
  2.53797805E+00  2.53797805E+00  2.73886609E+00  2.73886609E+00  3.49799159E+00
  3.49799160E+00  2.35488001E+01  2.35488001E+01
Beta Orbital Energies                      R   N=          68
 -1.08349951E+01 -1.08349950E+01 -9.37196092E-01 -9.37182535E-01 -6.94848520E-01
 -6.94848484E-01 -3.83326029E-01 -3.68014985E-01 -2.59233304E-01 -2.59231116E-01
 -8.71275433E-02 -8.71193611E-02 -4.54572907E-02 -4.54571212E-02 -2.74163156E-02
 -2.74161801E-02 -2.30811191E-02 -2.30791153E-02  4.05054234E-02  4.05055138E-02
  5.19348416E-02  5.19435407E-02  3.08756937E-01  3.08760153E-01  3.09997416E-01
  3.09997993E-01  4.25914067E-01  4.25914235E-01  4.57582311E-01  4.57583069E-01
  4.77753639E-01  4.77753644E-01  5.60635383E-01  5.60637113E-01  9.00315890E-01
  9.00315891E-01  1.00655006E+00  1.00656289E+00  1.04824545E+00  1.04825016E+00
  1.27898285E+00  1.27898286E+00  1.35597134E+00  1.35597148E+00  1.53010783E+00
  1.53010820E+00  1.62149933E+00  1.62149941E+00  1.76369768E+00  1.76369769E+00
  1.88085293E+00  1.88085301E+00  2.22909804E+00  2.22909810E+00  2.31112942E+00
  2.31112956E+00  2.34270099E+00  2.34270102E+00  2.46207303E+00  2.46207306E+00
  2.55207786E+00  2.55207798E+00  2.77310250E+00  2.77310269E+00  3.52428931E+00
  3.52428932E+00  2.35539169E+01  2.35539169E+01
Alpha MO coefficients                      R   N=        4624
 -1.21704410E-07 -1.00122328E-07  1.88113589E-10 -8.56807977E-15  8.08158222E-16
 -2.42148813E-09  4.13958705E-10 -8.08913098E-15 -1.83945193E-15  7.80777740E-10
 -3.45833583E-11  3.17267205E-15  2.11244340E-15  1.71336669E-10 -1.31220657E-10
  3.72782716E-15 -9.21143370E-16  2.41436349E-10  3.24634883E-16 -4.82555856E-16
  1.95817485E-10 -1.70707013E-14  5.64147536E-01  4.64106145E-01  8.71976312E-04
 -3.05929014E-08  1.97707397E-13  1.12245217E-02  1.91888283E-03 -7.46318700E-08
  4.56576870E-13 -3.61912252E-03 -1.60347959E-04  5.39265492E-09 -2.78234312E-14
 -7.94155733E-04 -6.08168561E-04  2.25210200E-08 -1.49760957E-13 -1.11915323E-03
  2.70451263E-13 -3.01932767E-13 -9.07690919E-04  5.93506636E-08 -6.77258720E-11
  6.42139052E-10 -5.11495480E-10  2.22841734E-10  3.51753041E-10 -1.62846837E-16
 -6.77264163E-11  6.42128501E-10 -5.11492782E-10  2.22813703E-10 -3.51763936E-10
 -4.74345628E-17  3.13932207E-04 -2.97650874E-03  2.37088098E-03  1.03295013E-03
  1.63050438E-03  1.05252619E-13  3.13930313E-04 -2.97652217E-03  2.37088872E-03
  1.03284026E-03 -1.63058251E-03  3.68266155E-13  5.64147536E-01  4.64106145E-01
 -8.71976325E-04  3.05928914E-08 -4.69936036E-12  1.12245216E-02 -1.91888278E-03
  7.46322207E-08 -1.09280149E-11 -3.61912254E-03  1.60347957E-04 -5.39267222E-09
  5.75209974E-13 -7.94155701E-04  6.08168560E-04 -2.25210794E-08  3.59579740E-12
 -1.11915320E-03  5.25024089E-12  3.01133568E-13 -9.07690884E-04  5.93505135E-08
  1.21704411E-07  1.00122329E-07  1.88111181E-10 -7.20092946E-15  1.41012602E-16
  2.42147827E-09  4.13968413E-10 -1.45831164E-14 -2.04392770E-16 -7.80746723E-10
 -3.46048483E-11  1.53239838E-15  8.25106557E-17 -1.71315935E-10 -1.31181463E-10
  4.49404677E-15  2.79210637E-16 -2.41436043E-10  1.36982436E-16 -1.11510094E-15
 -1.95817763E-10  1.37468507E-14  3.13932218E-04 -2.97650866E-03  2.37088095E-03
 -1.03295011E-03 -1.63050435E-03 -5.92599316E-12  3.13930324E-04 -2.97652209E-03
  2.37088868E-03 -1.03284024E-03  1.63058248E-03 -5.66122297E-12  6.77234912E-11
 -6.42121053E-10  5.11459239E-10  2.22840696E-10  3.51751776E-10  7.13672459E-16
  6.77231127E-11 -6.42120358E-10  5.11459924E-10  2.22816298E-10 -3.51767321E-10
 -9.83985011E-16  9.00352776E-09  1.45983740E-08  4.01594354E-09 -1.48895604E-13
  1.40670227E-17 -4.12068500E-08  5.79922464E-09 -2.14153276E-13 -3.58865809E-16
 -2.63103025E-08  2.49826616E-09 -8.33727484E-14  2.07319795E-15 -2.25554687E-10
  3.22441292E-10 -1.00469265E-14 -9.83962554E-16  6.09255408E-10 -2.51198466E-16
 -1.96300635E-16  3.74071307E-10 -2.44147267E-14 -1.11854486E-01 -1.81361521E-01
  4.98916860E-02 -1.84910665E-06  1.31169490E-11  5.11929394E-01  7.20461924E-02
 -2.64165128E-06  1.97776692E-11  3.26863709E-01  3.10367510E-02 -1.12789517E-06
  8.66149916E-12  2.80221892E-03  4.00618166E-03 -1.40808742E-07  1.06561773E-13
 -7.56902264E-03  1.35643771E-12 -1.46139062E-12 -4.64724086E-03  3.05048976E-07
 -8.85512213E-09 -1.05991414E-08  5.30477597E-10 -6.27071640E-10 -1.51341134E-09
  9.07563271E-17 -8.85513866E-09 -1.05991573E-08  5.30465188E-10 -6.26967517E-10
  1.51345613E-09 -2.11348821E-17  1.10010775E-01  1.31677525E-01 -6.59042911E-03
 -7.79036102E-03 -1.88017230E-02 -3.83192075E-13  1.10010972E-01  1.31677712E-01
 -6.59043112E-03 -7.78906403E-03  1.88022818E-02 -3.68912857E-12 -1.11854486E-01
 -1.81361521E-01 -4.98916858E-02  1.84911139E-06 -3.89338966E-10  5.11929395E-01
 -7.20461925E-02  2.64165679E-06 -5.94214445E-10  3.26863711E-01 -3.10367513E-02
  1.12789702E-06 -2.32353424E-10  2.80221892E-03 -4.00618168E-03  1.40808850E-07
 -1.86670162E-11 -7.56902260E-03  8.64057602E-12  1.45904861E-12 -4.64724072E-03
  3.05048343E-07 -9.00352793E-09 -1.45983730E-08  4.01594167E-09 -1.49695915E-13
  3.18265033E-16  4.12068423E-08  5.79923427E-09 -2.08208664E-13 -1.36427576E-15
  2.63103290E-08  2.49823282E-09 -9.15984224E-14  1.03737535E-15  2.25569866E-10
  3.22500717E-10 -1.18040000E-14 -7.06094103E-16 -6.09254446E-10 -6.03832455E-16
  2.14767573E-16 -3.74071322E-10  2.58495322E-14  1.10010774E-01  1.31677525E-01
 -6.59042891E-03  7.79036109E-03  1.88017230E-02  5.39523176E-11  1.10010971E-01
  1.31677712E-01 -6.59043092E-03  7.78906410E-03 -1.88022818E-02  5.06537194E-11
  8.85512072E-09  1.05991511E-08 -5.30500716E-10 -6.27070029E-10 -1.51341027E-09
  9.13213111E-17  8.85513666E-09  1.05991746E-08 -5.30506680E-10 -6.26967302E-10
  1.51345758E-09 -4.14519837E-16  2.21201019E-15  3.47396843E-15  3.22603480E-13
  9.33211484E-09 -2.05353495E-15 -1.16291651E-14  4.81355906E-13  1.38651916E-08
 -3.77417762E-15 -1.19775398E-14  2.35297543E-13  6.77668823E-09 -1.96668231E-15
  3.97879098E-15 -7.77160362E-15 -1.83111114E-10 -1.90637903E-15 -1.55149804E-17
  4.06675812E-16  2.90148876E-16 -1.02568473E-13 -1.48767387E-09 -4.95881487E-08
 -8.37966189E-08  7.73159522E-06  2.23282486E-01 -2.01298514E-11  2.54926455E-07
  1.15137156E-05  3.31742003E-01 -2.96815460E-11  3.53873480E-07  5.65951758E-06
  1.62140707E-01 -1.48602659E-11  2.32346790E-08 -1.45025469E-07 -4.38109230E-03
  8.28065372E-13  4.11131104E-09 -2.89073032E-12  8.79092690E-12  2.48430584E-06
  3.55944543E-02 -6.23254751E-09 -8.96741058E-09 -2.35824061E-09 -4.85114370E-10
 -4.47990997E-10 -2.64569336E-16  6.23254481E-09  8.96741297E-09  2.35823076E-09
  4.85084300E-10 -4.48023929E-10 -8.84124681E-16  1.49121445E-01  2.14556582E-01
  5.64236336E-02 -1.16069836E-02 -1.07187429E-02 -1.93112347E-12 -1.49121413E-01
 -2.14556493E-01 -5.64236833E-02  1.16062328E-02 -1.07195339E-02  3.78802030E-12
  4.95899570E-08  8.37996529E-08  7.73159413E-06  2.23282486E-01  2.01268952E-11
 -2.54935487E-07  1.15137149E-05  3.31742002E-01  2.96684817E-11 -3.53886177E-07
  5.65951817E-06  1.62140708E-01  1.48786257E-11 -2.32354356E-08 -1.45025300E-07
 -4.38109229E-03 -8.59188240E-13 -4.11151636E-09 -2.90149523E-12 -2.32180635E-10
 -2.48430619E-06 -3.55944544E-02  2.08515538E-15  3.51933669E-15 -3.23028712E-13
 -9.33211520E-09 -2.58350288E-16 -1.04281286E-14 -4.80493288E-13 -1.38651900E-08
 -1.15833285E-16 -1.43479985E-14 -2.35957704E-13 -6.77668933E-09  1.43133797E-15
 -6.91672268E-16  6.13462057E-15  1.83103597E-10 -1.38987551E-15 -4.05527391E-16
 -3.24666580E-17  3.57041199E-16 -1.04155389E-13 -1.48767329E-09 -1.49121445E-01
 -2.14556582E-01 -5.64236344E-02 -1.16069836E-02 -1.07187428E-02 -7.26729118E-11
  1.49121412E-01  2.14556493E-01  5.64236841E-02  1.16062328E-02 -1.07195338E-02
  7.08176613E-11 -6.23254591E-09 -8.96741747E-09 -2.35822574E-09  4.85115570E-10
  4.47991607E-10 -7.72518755E-17  6.23254503E-09  8.96741214E-09  2.35822740E-09
 -4.85084044E-10  4.48024258E-10 -1.45672957E-17  1.10812489E-07  1.86856776E-07
 -6.53818747E-07  2.27484156E-11 -2.82739384E-15 -5.96851633E-07 -9.84049251E-07
  3.41798825E-11 -6.39200815E-16 -7.05569758E-07 -7.97532138E-07  2.76134629E-11
 -1.84112650E-15 -2.31226698E-08 -3.58403075E-08  1.21671961E-12 -6.90907625E-16
 -4.55759008E-08  6.75117749E-16  3.84526379E-17  2.13523494E-08 -1.49608194E-12
  4.53352960E-02  7.64463207E-02  2.67488510E-01 -9.30705701E-06  4.95444934E-11
 -2.44182243E-01  4.02591451E-01 -1.39825695E-05  7.26530973E-11 -2.88660875E-01
  3.26284256E-01 -1.12970451E-05  5.93259006E-11 -9.45999020E-03  1.46625868E-02
 -4.97511982E-07  3.01548560E-12 -1.86458881E-02  9.90251271E-12 -1.61920511E-12
  8.73561307E-03 -6.11677071E-07  1.63123475E-07  2.63504451E-07  9.75966602E-08
 -2.91164894E-08  3.10473450E-08 -1.76094833E-16  1.63123378E-07  2.63504251E-07
  9.75966461E-08 -2.91186765E-08 -3.10453186E-08 -3.21888629E-16  6.67366283E-02
  1.07804150E-01  3.99286502E-02  1.19120530E-02 -1.27020036E-02  2.93920545E-12
  6.67365888E-02  1.07804069E-01  3.99286454E-02  1.19129474E-02  1.27011751E-02
  8.51182684E-13 -4.53352962E-02 -7.64463210E-02  2.67488510E-01 -9.30705710E-06
  7.28228553E-10  2.44182244E-01  4.02591450E-01 -1.39825687E-05  1.03159999E-09
  2.88660875E-01  3.26284256E-01 -1.12970440E-05  8.38080272E-10  9.45999029E-03
  1.46625871E-02 -4.97511766E-07  7.82266949E-11  1.86458881E-02 -2.61312390E-10
 -1.61519589E-12 -8.73561317E-03  6.11677368E-07  1.10812490E-07  1.86856769E-07
  6.53818800E-07 -2.27490949E-11 -1.60431573E-16 -5.96851490E-07  9.84049108E-07
 -3.41762884E-11 -5.34860524E-16 -7.05570470E-07  7.97532802E-07 -2.76137574E-11
  6.35349025E-16 -2.31231996E-08  3.58388438E-08 -1.21627485E-12  4.28185562E-16
 -4.55759154E-08 -5.75405224E-17 -1.30504991E-17  2.13523474E-08 -1.49491186E-12
 -6.67366287E-02 -1.07804151E-01 -3.99286509E-02  1.19120528E-02 -1.27020036E-02
  1.80307074E-11 -6.67365891E-02 -1.07804070E-01 -3.99286460E-02  1.19129472E-02
  1.27011752E-02  2.01176762E-11  1.63123516E-07  2.63504183E-07  9.75975297E-08
  2.91164702E-08 -3.10473470E-08  3.42438431E-17  1.63123419E-07  2.63503986E-07
  9.75975154E-08  2.91186561E-08  3.10453225E-08  2.17305677E-16 -2.23453996E-16
 -7.37931263E-16 -1.22944344E-15 -5.89932010E-16  4.11086065E-07  1.84112362E-15
 -2.87554492E-15  1.29457001E-16  6.60045035E-07  4.22567060E-15 -4.07325142E-15
  4.42015119E-16  7.06792204E-07  3.61522638E-15 -1.59478464E-15 -1.90699662E-15
  1.62197090E-07 -5.05804442E-16 -2.23844901E-08  7.97984069E-13 -4.14043135E-16
 -4.80321619E-16  2.18357112E-12  3.50202654E-12 -5.14943074E-11  2.32047783E-11
  2.60911020E-01 -8.17433353E-12 -8.38785595E-11  3.92534401E-11  4.18922046E-01
 -2.61890971E-11 -9.31871256E-11  4.08406484E-11  4.48591946E-01 -2.36629783E-11
 -2.60174984E-11  1.24005550E-11  1.02944282E-01  7.43527781E-12  1.42071473E-02
 -5.06398708E-07 -3.04308051E-12  2.58036786E-12 -5.00821233E-17 -7.10000356E-16
 -4.85825324E-15  9.53798961E-17 -4.70876238E-16  3.68486924E-08 -6.68396791E-16
 -1.91629733E-15 -7.78493286E-16  3.14585138E-17  1.43696600E-16  3.68487151E-08
  2.94385027E-12  2.07324126E-12  1.60688114E-11 -4.70274359E-12  1.90027324E-12
  2.33873880E-02  3.25141138E-12  4.01724323E-12  2.12190281E-11 -5.47175473E-12
  3.83523540E-12  2.33874021E-02 -1.25611064E-10 -1.95268968E-10 -8.99438435E-10
 -2.31722847E-11  2.60911020E-01  4.95206998E-10 -1.51002742E-09 -3.90999387E-11
  4.18922046E-01  9.80103679E-10 -1.63400957E-09 -4.07431926E-11  4.48591946E-01
  2.77862913E-10 -3.02127867E-10 -1.22316849E-11  1.02944283E-01 -2.46744754E-10
 -1.42071473E-02  5.06399117E-07  5.15744495E-11  2.53509999E-12 -4.12123231E-17
  3.78287289E-17  7.80939658E-17  8.52995608E-16 -4.11086092E-07 -1.46333325E-16
 -8.60971868E-16  1.28990663E-15 -6.60045017E-07  8.19589603E-16  1.06920746E-15