Title Card Required                                                     
FOpt      UM062X                                                      6-311+G(d,p)        
Number of atoms                            I                4
Info1-9                                    I   N=           9
          13          13           0           0           0         110
           2          18        -502
Full Title                                 C   N=           2
Title Card Required     
Route                                      C   N=           5
#p opt UM062X/6-311+G** nosymm int=superfine SCF=NoVarAcc   
Charge                                     I                1
Multiplicity                               I                2
Number of electrons                        I               13
Number of alpha electrons                  I                7
Number of beta electrons                   I                6
Number of basis functions                  I               56
Number of independent functions            I               56
Number of point charges in /Mol/           I                0
Number of translation vectors              I                0
Atomic numbers                             I   N=           4
           6           6           1           1
Nuclear charges                            R   N=           4
  6.00000000E+00  6.00000000E+00  1.00000000E+00  1.00000000E+00
Current cartesian coordinates              R   N=          12
 -9.22594530E+00  0.00000000E+00  0.00000000E+00  9.22594530E+00  0.00000000E+00
  0.00000000E+00 -1.13385017E+01  3.05777810E-13  3.47279157E-13  1.13385000E+01
  1.93344233E-14  3.47275616E-13
Number of symbols in /Mol/                 I                0
Force Field                                I                0
Atom Types                                 C   N=           4
                                                
Int Atom Types                             I   N=           4
           0           0           0           0
MM charges                                 R   N=           4
  0.00000000E+00  0.00000000E+00  0.00000000E+00  0.00000000E+00
Integer atomic weights                     I   N=           4
          12          12           1           1
Real atomic weights                        R   N=           4
  1.20000000E+01  1.20000000E+01  1.00782504E+00  1.00782504E+00
Atom fragment info                         I   N=           4
           0           0           0           0
Atom residue num                           I   N=           4
           0           0           0           0
Nuclear spins                              I   N=           4
           0           0           1           1
Nuclear ZEff                               R   N=           4
 -3.60000000E+00 -3.60000000E+00 -1.00000000E+00 -1.00000000E+00
Nuclear ZNuc                               R   N=           4
  6.00000000E+00  6.00000000E+00  1.00000000E+00  1.00000000E+00
Nuclear QMom                               R   N=           4
  0.00000000E+00  0.00000000E+00  0.00000000E+00  0.00000000E+00
Nuclear GFac                               R   N=           4
  0.00000000E+00  0.00000000E+00  2.79284600E+00  2.79284600E+00
MicOpt                                     I   N=           4
          -2          -2          -1          -1
Number of residues                         I                0
Number of secondary structures             I                0
Redundant internal dimensions              I   N=           4
          12           8           4           0
Redundant internal coordinate indices      I   N=          48
           1          -1           0           0           1          -2
           0           0           1          -3           0           0
           2          -1           0           0           2          -2
           0           0           2          -3           0           0
           1           3           0           0           2           4
           0           0           2           1           3          -4
           1           2           4          -4           2           1
           3          -8           1           2           4          -8
Redundant internal coordinates             R   N=          12
 -9.22594530E+00  0.00000000E+00  0.00000000E+00  9.22594530E+00  0.00000000E+00
  0.00000000E+00  2.11255641E+00  2.11255475E+00  3.14159265E+00  3.14159265E+00
  3.14159265E+00  3.14159265E+00
ZRed-IntVec                                I   N=          12
          -1          -1          -1          -1          -1          -1
           0           0           0           0           0           0
ZRed-FPVec                                 R   N=          12
  0.00000000E+00  0.00000000E+00  0.00000000E+00  0.00000000E+00  0.00000000E+00
  0.00000000E+00  0.00000000E+00  0.00000000E+00  0.00000000E+00  0.00000000E+00
  0.00000000E+00  0.00000000E+00
ZRed-Constraint1                           R   N=          12
 -9.22594530E+00  0.00000000E+00  0.00000000E+00  9.22594530E+00  0.00000000E+00
  0.00000000E+00  2.08057524E+00  2.08053366E+00  3.14159265E+00  3.14159265E+00
  3.14159265E+00  3.14159265E+00
ZRed-Constraint2                           R   N=          12
 -9.22594530E+00  0.00000000E+00  0.00000000E+00  9.22594530E+00  0.00000000E+00
  0.00000000E+00  0.00000000E+00  0.00000000E+00  0.00000000E+00  0.00000000E+00
  0.00000000E+00  0.00000000E+00
Number of contracted shells                I               20
Number of primitive shells                 I               38
Pure/Cartesian d shells                    I                0
Pure/Cartesian f shells                    I                0
Highest angular momentum                   I                2
Largest degree of contraction              I                6
Shell types                                I   N=          20
           0          -1          -1          -1          -1          -2
           0          -1          -1          -1          -1          -2
           0           0           0           1           0           0
           0           1
Number of primitives per shell             I   N=          20
           6           3           1           1           1           1
           6           3           1           1           1           1
           3           1           1           1           3           1
           1           1
Shell to atom map                          I   N=          20
           1           1           1           1           1           1
           2           2           2           2           2           2
           3           3           3           3           4           4
           4           4
Primitive exponents                        R   N=          38
  4.56324000E+03  6.82024000E+02  1.54973000E+02  4.44553000E+01  1.30290000E+01
  1.82773000E+00  2.09642000E+01  4.80331000E+00  1.45933000E+00  4.83456000E-01
  1.45585000E-01  4.38000000E-02  6.26000000E-01  4.56324000E+03  6.82024000E+02
  1.54973000E+02  4.44553000E+01  1.30290000E+01  1.82773000E+00  2.09642000E+01
  4.80331000E+00  1.45933000E+00  4.83456000E-01  1.45585000E-01  4.38000000E-02
  6.26000000E-01  3.38650000E+01  5.09479000E+00  1.15879000E+00  3.25840000E-01
  1.02741000E-01  7.50000000E-01  3.38650000E+01  5.09479000E+00  1.15879000E+00
  3.25840000E-01  1.02741000E-01  7.50000000E-01
Contraction coefficients                   R   N=          38
  1.96665025E-03  1.52306019E-02  7.61269097E-02  2.60801033E-01  6.16462078E-01
  2.21006028E-01  1.14660081E-01  9.19999648E-01 -3.03068213E-03  1.00000000E+00
  1.00000000E+00  1.00000000E+00  1.00000000E+00  1.96665025E-03  1.52306019E-02
  7.61269097E-02  2.60801033E-01  6.16462078E-01  2.21006028E-01  1.14660081E-01
  9.19999648E-01 -3.03068213E-03  1.00000000E+00  1.00000000E+00  1.00000000E+00
  1.00000000E+00  2.54938145E-02  1.90373109E-01  8.52161486E-01  1.00000000E+00
  1.00000000E+00  1.00000000E+00  2.54938145E-02  1.90373109E-01  8.52161486E-01
  1.00000000E+00  1.00000000E+00  1.00000000E+00
P(S=P) Contraction coefficients            R   N=          38
  0.00000000E+00  0.00000000E+00  0.00000000E+00  0.00000000E+00  0.00000000E+00
  0.00000000E+00  4.02486927E-02  2.37593957E-01  8.15853851E-01  1.00000000E+00
  1.00000000E+00  1.00000000E+00  0.00000000E+00  0.00000000E+00  0.00000000E+00
  0.00000000E+00  0.00000000E+00  0.00000000E+00  0.00000000E+00  4.02486927E-02
  2.37593957E-01  8.15853851E-01  1.00000000E+00  1.00000000E+00  1.00000000E+00
  0.00000000E+00  0.00000000E+00  0.00000000E+00  0.00000000E+00  0.00000000E+00
  0.00000000E+00  0.00000000E+00  0.00000000E+00  0.00000000E+00  0.00000000E+00
  0.00000000E+00  0.00000000E+00  0.00000000E+00
Coordinates of each shell                  R   N=          60
 -9.22594530E+00  0.00000000E+00  0.00000000E+00 -9.22594530E+00  0.00000000E+00
  0.00000000E+00 -9.22594530E+00  0.00000000E+00  0.00000000E+00 -9.22594530E+00
  0.00000000E+00  0.00000000E+00 -9.22594530E+00  0.00000000E+00  0.00000000E+00
 -9.22594530E+00  0.00000000E+00  0.00000000E+00  9.22594530E+00  0.00000000E+00
  0.00000000E+00  9.22594530E+00  0.00000000E+00  0.00000000E+00  9.22594530E+00
  0.00000000E+00  0.00000000E+00  9.22594530E+00  0.00000000E+00  0.00000000E+00
  9.22594530E+00  0.00000000E+00  0.00000000E+00  9.22594530E+00  0.00000000E+00
  0.00000000E+00 -1.13385017E+01  3.05777810E-13  3.47279157E-13 -1.13385017E+01
  3.05777810E-13  3.47279157E-13 -1.13385017E+01  3.05777810E-13  3.47279157E-13
 -1.13385017E+01  3.05777810E-13  3.47279157E-13  1.13385000E+01  1.93344233E-14
  3.47275616E-13  1.13385000E+01  1.93344233E-14  3.47275616E-13  1.13385000E+01
  1.93344233E-14  3.47275616E-13  1.13385000E+01  1.93344233E-14  3.47275616E-13
Num ILSW                                   I              100
ILSW                                       I   N=         100
           1           0           0           0           2           0
           0           0           0           0        4336          -1
           7           0           0           0           2           0
           0           0           0           0           1           0
           1           1           0           0           0           0
           0           0      100000           0          -1           0
           0           0           0           0           0           0
           0           0           0           1           0           0
           0 -2000000000           1           0           0           0
           0           0           4          52           0           0
           0           0          55           0           0           0
           0           0           0           4           0           1
           0           0           0           0           0           0
           0           0           0           0           0           0
           0           0           0           0           0           0
           0           0           0           0           0           0
           0           0           0           0
Num RLSW                                   I               52
RLSW                                       R   N=          52
  1.00000000E+00  1.00000000E+00  1.00000000E+00  1.00000000E+00  5.40000000E-01
  0.00000000E+00  0.00000000E+00  1.00000000E+00  0.00000000E+00  0.00000000E+00
  0.00000000E+00  0.00000000E+00  1.00000000E+00  0.00000000E+00  0.00000000E+00
  0.00000000E+00  0.00000000E+00  1.00000000E+00  0.00000000E+00  0.00000000E+00
  0.00000000E+00  0.00000000E+00  1.00000000E+00  0.00000000E+00  0.00000000E+00
  0.00000000E+00  0.00000000E+00  1.00000000E+00  0.00000000E+00  0.00000000E+00
  0.00000000E+00  0.00000000E+00  1.00000000E+00  0.00000000E+00  0.00000000E+00
  0.00000000E+00  0.00000000E+00  0.00000000E+00  1.00000000E+00  1.00000000E+00
  0.00000000E+00  1.00000000E+00  0.00000000E+00  0.00000000E+00  0.00000000E+00
  0.00000000E+00  0.00000000E+00  0.00000000E+00  0.00000000E+00  0.00000000E+00
  0.00000000E+00  0.00000000E+00
MxBond                                     I                2
NBond                                      I   N=           4
           2           2           1           1
IBond                                      I   N=           8
           2           3           1           4           1           0
           2           0
RBond                                      R   N=           8
  1.00000000E-01  1.00000000E+00  1.00000000E-01  1.00000000E+00  1.00000000E+00
  0.00000000E+00  1.00000000E+00  0.00000000E+00
Virial Ratio                               R      2.002702780942526E+00
SCF Energy                                 R     -7.658394174923032E+01
Total Energy                               R     -7.658394174923032E+01
S**2                                       R      7.513044620663871E-01
S**2 after annihilation                    R      7.500012242695475E-01
RMS Force                                  R      1.380022930562404E-04
RMS Density                                R      3.134132794689522E-09
Job Status                                 I                1
Nuclear derivative order                   I                1
External E-field                           R   N=          35
  0.00000000E+00  0.00000000E+00  0.00000000E+00  0.00000000E+00  0.00000000E+00
  0.00000000E+00  0.00000000E+00  0.00000000E+00  0.00000000E+00  0.00000000E+00
  0.00000000E+00  0.00000000E+00  0.00000000E+00  0.00000000E+00  0.00000000E+00
  0.00000000E+00  0.00000000E+00  0.00000000E+00  0.00000000E+00  0.00000000E+00
  0.00000000E+00  0.00000000E+00  0.00000000E+00  0.00000000E+00  0.00000000E+00
  0.00000000E+00  0.00000000E+00  0.00000000E+00  0.00000000E+00  0.00000000E+00
  0.00000000E+00  0.00000000E+00  0.00000000E+00  0.00000000E+00  0.00000000E+00
IOpCl                                      I                1
IROHF                                      I                0
Alpha Orbital Energies                     R   N=          56
 -1.09161524E+01 -1.09161519E+01 -9.53996605E-01 -9.53948394E-01 -6.04529652E-01
 -6.04507027E-01 -4.30062903E-01 -4.01088123E-01 -3.03533811E-01 -3.03532771E-01
 -9.28762582E-02 -9.28264699E-02 -4.30177423E-02 -4.07049953E-02 -4.02652784E-02
 -3.90287437E-02 -3.85786592E-02 -3.69566839E-02  2.05644154E-02  2.15017206E-02
  3.01583958E-01  3.05016072E-01  3.95633249E-01  3.96022940E-01  4.04691688E-01
  4.05091904E-01  4.31044605E-01  4.31514501E-01  4.95879994E-01  4.99968568E-01
  9.21526888E-01  9.21529460E-01  9.23444867E-01  9.23515186E-01  1.10590689E+00
  1.10594191E+00  1.11627834E+00  1.11631274E+00  1.38099956E+00  1.38215463E+00
  1.65460677E+00  1.65462062E+00  1.65740328E+00  1.65742399E+00  2.18526741E+00
  2.18556261E+00  2.30482890E+00  2.30625371E+00  2.46732852E+00  2.46756037E+00
  2.48164284E+00  2.48187607E+00  2.96046887E+00  2.96224175E+00  2.32668024E+01
  2.32677194E+01
Beta Orbital Energies                      R   N=          56
 -1.09120040E+01 -1.09120038E+01 -9.30343450E-01 -9.30343157E-01 -5.90617490E-01
 -5.90617231E-01 -2.84689026E-01 -2.84687938E-01 -2.68359147E-01 -2.68357451E-01
 -9.49944723E-02 -9.49422252E-02 -4.29654369E-02 -3.70229492E-02 -3.27664231E-02
 -3.23261896E-02 -2.35244450E-02 -2.30871514E-02  3.85628536E-02  3.96366155E-02
  2.94746817E-01  2.98496604E-01  4.00225637E-01  4.00680732E-01  4.02804374E-01
  4.03233144E-01  4.60178150E-01  4.61519835E-01  5.18167784E-01  5.21329829E-01
  9.92883598E-01  9.92886648E-01  1.00191828E+00  1.00192121E+00  1.13856996E+00
  1.13857082E+00  1.13867342E+00  1.13867345E+00  1.38501106E+00  1.38619317E+00
  1.67185785E+00  1.67187164E+00  1.67861820E+00  1.67863186E+00  2.34380393E+00
  2.34495422E+00  2.35295422E+00  2.35322124E+00  2.49342199E+00  2.49365533E+00
  2.51697616E+00  2.51720535E+00  3.05457276E+00  3.05664568E+00  2.32799523E+01
  2.32808685E+01
Alpha MO coefficients                      R   N=        3136
  4.44312234E-01  3.66056106E-01 -1.59300217E-03  1.06303429E-16  2.02473404E-16
  7.36185918E-03 -9.37298024E-04 -6.55257357E-16 -1.10182598E-15 -3.11548584E-03
 -5.24612162E-05 -4.74804558E-16  6.77514721E-16  3.43013302E-04  4.98563307E-04
  2.91092846E-16 -3.94232007E-16 -3.91817312E-04 -4.60144154E-16 -9.08251208E-06
  6.52025034E-04 -1.02336070E-15  3.47428089E-01  2.86236230E-01  1.24537762E-03
  4.76498364E-16 -6.11325207E-16  5.75525574E-03  7.33661285E-04 -1.86064744E-15
  3.84477321E-16 -2.43267018E-03  3.87895176E-05  7.62218919E-16 -7.10222641E-17
  2.69427185E-04 -3.84617600E-04 -2.06623012E-16 -4.50152685E-17 -3.06220357E-04
  6.81536407E-16 -7.07054250E-06  5.09663325E-04  1.96794478E-15  2.88864451E-04
 -2.06653341E-03  1.71098679E-03 -1.45721483E-03  8.39613824E-16  1.09902278E-15
  2.25219142E-04 -1.61289505E-03  1.33139278E-03  1.13951732E-03 -2.74770017E-17
  1.40902199E-16 -3.47428180E-01 -2.86235314E-01  1.24673579E-03 -6.03267419E-18
  8.16223032E-16 -5.76207313E-03  7.29857153E-04  1.05968453E-15 -4.68404566E-16
  2.45053155E-03  5.02791106E-05 -9.19129947E-16  8.00612068E-16 -2.63191599E-04
 -4.11551571E-04  6.11260006E-16 -3.89048425E-16  3.07049869E-04  6.12918389E-16
  7.23159685E-06 -5.10628316E-04  9.24475215E-16  4.44312305E-01  3.66055388E-01
  1.59406432E-03  1.04158415E-15 -9.56637562E-16  7.36720279E-03  9.34338541E-04
 -2.78966484E-15  6.55173826E-16 -3.12945008E-03  6.14451609E-05  1.03183893E-15
 -3.58119076E-16  3.38132062E-04 -5.19626317E-04 -2.73681331E-16  4.19163456E-17
 -3.92470021E-04  4.47735468E-16 -9.20793523E-06  6.52786087E-04  2.45143807E-15
 -2.28597312E-04  1.62849320E-03 -1.36490550E-03  1.13926177E-03 -4.77621047E-16
 -6.16847677E-16  2.91503679E-04 -2.07875138E-03  1.73720372E-03  1.45702674E-03
  9.52068873E-17  6.63896161E-16 -7.96008219E-02 -1.29954511E-01 -5.62110192E-02
 -3.12632707E-14 -1.71177207E-14  3.83230926E-01 -8.62154599E-02 -6.61306805E-14
 -4.27046253E-14  2.42198438E-01 -3.20308329E-02 -3.22464251E-14 -2.57793622E-14
 -5.42089680E-03 -2.24577932E-03  5.29409642E-15  6.73293408E-15 -3.98217280E-03
 -3.37789871E-15  2.14506092E-04  7.52756186E-03 -1.31015555E-14 -7.99472911E-02
 -1.30520142E-01  5.64558424E-02 -8.33449667E-14 -2.38187016E-15  3.84898904E-01
  8.65909542E-02 -1.46601959E-13 -1.93957058E-14  2.43252575E-01  3.21700677E-02
 -6.15860979E-14 -1.59276503E-14 -5.44455110E-03  2.25607970E-03  6.74644155E-15
  5.66019073E-15 -3.99956465E-03 -5.39167176E-15  2.15398675E-04  7.56033799E-03
  4.65124456E-14  9.82506609E-02  1.22062023E-01 -2.17827040E-03  1.68429359E-02
  3.86704321E-14  3.93808573E-14  9.86784772E-02  1.22593789E-01 -2.18822288E-03
 -1.69162732E-02  2.67380413E-14  3.63637979E-14 -7.99452765E-02 -1.30516132E-01
 -5.64668879E-02 -3.17729150E-14 -1.77507510E-14  3.84887308E-01 -8.66171158E-02
 -6.65471279E-14 -4.50094679E-14  2.43267245E-01 -3.21247222E-02 -3.32503992E-14
 -2.71794475E-14 -5.45999979E-03 -2.37601666E-03  5.42545641E-15  6.23709372E-15
 -4.01164612E-03 -3.36016111E-15  2.07320179E-04  7.55751932E-03 -1.33586277E-14
  7.95987634E-02  1.29950419E-01 -5.62222985E-02  8.18486702E-14  4.06828614E-15
 -3.83218996E-01 -8.62419178E-02  1.48415767E-13  2.03477878E-14 -2.42212781E-01
 -3.19853001E-02  6.09289139E-14  1.78123820E-14  5.43639327E-03 -2.36624131E-03
 -6.36240708E-15 -5.49880983E-15  3.99431700E-03  5.45372662E-15 -2.06380675E-04
 -7.52477391E-03 -4.62941784E-14  9.86815274E-02  1.22675450E-01 -2.29220146E-03
  1.69192526E-02  3.85477847E-14  3.94919505E-14 -9.82539757E-02 -1.22144207E-01
  2.28273554E-03  1.68459451E-02 -2.66551013E-14 -3.61699587E-14 -4.25918813E-02
 -7.10077502E-02  1.66256997E-01 -3.04873424E-13 -2.85036850E-13  2.20039824E-01
  2.45967092E-01 -4.47803912E-13 -4.01119765E-13  2.62625124E-01  1.41594484E-01
 -3.40516795E-13 -3.29480888E-13  1.79943374E-02 -1.83112933E-03  1.38816384E-14
  1.88916010E-14  1.48685759E-02 -8.43943427E-15  6.34465614E-06 -2.57345497E-02
 -1.38634601E-14 -4.26397937E-02 -7.10876296E-02 -1.66443895E-01 -6.00300433E-13
 -1.80829190E-13  2.20287353E-01 -2.46243547E-01 -9.78091602E-13 -2.31302776E-13
  2.62920654E-01 -1.41753594E-01 -6.43130687E-13 -2.17424041E-13  1.80145500E-02
  1.83325328E-03  2.77716453E-15  1.82757343E-14  1.48852832E-02  5.17374043E-15
  6.34468188E-06 -2.57634872E-02  2.42750105E-14 -9.53571558E-02 -1.71381215E-01
 -7.73901622E-02 -7.90233737E-03 -1.82132868E-14 -1.41151030E-14 -9.54643056E-02
 -1.71573731E-01 -7.74771954E-02  7.91120512E-03 -4.83450057E-14 -7.51903564E-15
 -4.26495124E-02 -7.11037075E-02  1.66441693E-01 -3.06520250E-13 -2.90618934E-13
  2.20343728E-01  2.46238208E-01 -4.51438921E-13 -4.09224471E-13  2.62948582E-01
  1.41783964E-01 -3.43151655E-13 -3.37644519E-13  1.79790685E-02 -1.88591863E-03
  1.36521788E-14  1.88115800E-14  1.48753645E-02 -8.10013762E-15 -2.76952354E-07
 -2.57657456E-02 -1.38771423E-14  4.26016620E-02  7.10239346E-02  1.66254827E-01
  5.99830303E-13  1.84353732E-13 -2.20096517E-01  2.45961705E-01  9.78828986E-13
  2.36221268E-13 -2.62653666E-01  1.41624718E-01  6.43251341E-13  2.22365014E-13
 -1.79588675E-02 -1.88386667E-03 -2.78350906E-15 -1.78257819E-14 -1.48586566E-02
 -4.84038926E-15  2.83733334E-07  2.57368262E-02 -2.39471125E-14 -9.54564185E-02
 -1.71528024E-01 -7.75105899E-02 -7.90740067E-03 -1.83716740E-14 -1.47242771E-14
  9.53492026E-02  1.71335306E-01  7.74236029E-02 -7.89850730E-03  4.87286818E-14
  7.58196117E-15 -6.84545334E-14 -9.86638661E-14  1.48405096E-13  6.13437716E-02
  1.98984521E-01  6.49908270E-14  5.06859508E-13  9.65735664E-02  3.13262031E-01
  1.96294491E-12 -8.11046068E-13  8.73653434E-02  2.83390672E-01  1.96985990E-12
 -1.10266292E-12  7.20101447E-03  2.33582699E-02  1.78426826E-14 -1.78842654E-02
 -2.92865726E-14 -5.08538071E-14 -5.51330200E-03 -6.77457629E-14 -1.01223268E-13
 -1.52409945E-13  6.13415437E-02  1.98985218E-01  1.10032335E-13 -4.30096927E-13
  9.65700625E-02  3.13263140E-01  1.74689395E-12  6.75304301E-13  8.73621744E-02
  2.83391679E-01  1.62342921E-12  8.96055757E-13  7.20075268E-03  2.33583510E-02
  2.06593452E-14  1.78843444E-02 -5.31102511E-14 -2.20218633E-14  5.51310679E-03
 -2.51474290E-13  4.26161331E-13 -4.37605917E-12  5.64393150E-15  4.78760509E-03
  1.55296797E-02 -2.20259666E-13  2.27984498E-13 -3.62870557E-12  2.15193836E-14
  4.78743512E-03  1.55297468E-02  6.99008687E-14  1.00922763E-13 -1.49839077E-13
 -6.13329808E-02 -1.98950149E-01 -7.09629417E-14 -5.09731247E-13 -9.65530516E-02
 -3.13196505E-01 -1.98209735E-12  8.16691822E-13 -8.73528691E-02 -2.83351178E-01
 -1.98432366E-12  1.11318463E-12 -7.23367922E-03 -2.34643742E-02 -1.79550539E-14
  1.82974631E-02  2.94712653E-14  5.23503428E-14  5.64066847E-03 -6.93705402E-14
 -1.03788250E-13 -1.54762544E-13  6.13307413E-02  1.98950808E-01  1.16418171E-13
 -4.33877221E-13  9.65495296E-02  3.13197553E-01  1.76958304E-12  6.79370242E-13
  8.73496835E-02  2.83352130E-01  1.64058392E-12  9.10149019E-13  7.23341480E-03
  2.34644511E-02  2.08581019E-14  1.82975399E-02 -5.29550735E-14 -2.32860039E-14
  5.64046750E-03  2.53892257E-13 -4.26305667E-13  4.41202907E-12 -6.00320369E-15
 -4.84758525E-03 -1.57242928E-02 -2.23263363E-13  2.27193302E-13 -3.67003699E-12
  2.05972422E-14  4.84741215E-03  1.57243575E-02 -4.13117267E-14 -6.10695979E-14
  7.99080339E-14  1.88913615E-01 -5.82392460E-02  5.85221627E-14  2.49753001E-13
  3.05238008E-01 -9.41004518E-02  1.04556351E-12 -3.88886072E-13  2.91609203E-01
 -8.98982469E-02  1.04797137E-12 -5.44850202E-13  5.52382342E-02 -1.70290591E-02
  3.78175759E-14  5.25151488E-03 -1.06932404E-14 -5.76695380E-15 -1.70341940E-02
 -1.10530315E-13 -1.87418871E-13 -2.97541376E-13  1.84783743E-01 -5.69638038E-02
  5.18722317E-13 -2.86789063E-13  2.98565202E-01 -9.20396637E-02  8.53648702E-13
 -3.21113790E-13  2.85234166E-01 -8.79294340E-02 -6.15486180E-14 -2.57376168E-13
  5.40310348E-02 -1.66562364E-02  2.98520178E-14 -5.13650994E-03  5.45658962E-15
  5.21223562E-14  1.66618178E-02 -1.32422593E-13  1.71580452E-13 -2.23824974E-12
  2.81510577E-15  1.66184651E-02 -5.12317358E-03 -1.64813148E-13 -7.61724850E-13
  1.57267846E-13  9.22059841E-14  1.62551822E-02 -5.01098079E-03  4.04378775E-14
  5.98159784E-14 -7.75224627E-14 -1.84785304E-01  5.69663467E-02 -5.75251695E-14
 -2.43247382E-13 -2.98565455E-01  9.20430813E-02 -1.02344007E-12  3.81941799E-13
 -2.85242995E-01  8.79353629E-02 -1.02654276E-12  5.33318171E-13 -5.40146612E-02
  1.66518265E-02 -3.67095202E-14 -5.13674731E-03  1.03298462E-14  6.06386796E-15
  1.66619912E-02 -1.13026359E-13 -1.91529417E-13 -3.04369513E-13  1.88916400E-01
 -5.82375825E-02  5.29300381E-13 -2.93127411E-13  3.05240296E-01 -9.40970905E-02
  8.77104714E-13 -3.28410517E-13  2.91619821E-01 -8.98976518E-02 -6.24309211E-14
 -2.58500275E-13  5.52226047E-02 -1.70235379E-02  3.04742708E-14 -5.25138026E-03
  5.78399477E-15  5.34200336E-14  1.70345012E-02  1.29925515E-13 -1.65193339E-13
  2.18981973E-12 -2.91041177E-15 -1.62551319E-02  5.01114770E-03 -1.68526904E-13
 -7.78612417E-13  1.55580744E-13  9.45264803E-14  1.66185512E-02 -5.12297931E-03
  2.58247594E-02  4.32706959E-02  4.82543464E-02 -2.64896250E-15  3.94198684E-15
 -1.26758456E-01  1.02906700E-01  5.67419138E-14  7.51694033E-14 -5.19327228E-01
  1.21694716E-01 -4.00832634E-14 -3.13091288E-14  9.59318553E-01 -3.65675778E-01
 -4.60798299E-14 -6.77390657E-14  7.64358246E-03 -1.21340314E-14  1.05809953E-03
 -1.01334788E-02 -1.10658515E-14 -2.58067606E-02 -4.32405392E-02  4.82203979E-02
 -1.47151823E-14 -1.97368115E-15  1.26670083E-01  1.02834737E-01 -2.61384061E-14
 -7.04687698E-14  5.18965508E-01  1.21608664E-01 -1.27630047E-14  3.32792943E-14
 -9.58651672E-01 -3.65419446E-01  4.52077465E-14  6.19504437E-14 -7.63828840E-03
 -1.25685052E-14 -1.05732247E-03  1.01264398E-02  1.06202926E-15 -2.09555595E-04
  1.31816368E-01 -8.82637290E-02 -4.31733050E-03 -6.18087256E-14 -7.10227808E-14
  2.09507212E-04 -1.31724416E-01  8.82035372E-02 -4.31422181E-03  6.81039311E-15
  7.13492853E-14  2.57714691E-02  4.31879896E-02  4.84170451E-02 -1.88003540E-15
  5.10178124E-15 -1.26648147E-01  1.02927840E-01  5.58486074E-14  7.47146578E-14
 -5.17648612E-01  1.22459632E-01 -3.88238236E-14 -2.64524639E-14  9.56981212E-01
 -3.68117751E-01 -4.97275937E-14 -8.49724286E-14  7.65631410E-03 -1.22119944E-14
  1.06380453E-03 -1.01387833E-02 -1.09152106E-14  2.57894572E-02  4.32181354E-02
 -4.84505200E-02  1.52055404E-14  2.37598526E-15 -1.26736517E-01 -1.02999438E-01
  2.59983805E-14  6.97019312E-14 -5.18010158E-01 -1.22543862E-01  1.44633871E-14
 -2.79344136E-14  9.57650893E-01  3.68373188E-01 -4.86088558E-14 -7.90223326E-14
  7.66169098E-03  1.26272885E-14  1.06450746E-03 -1.01458832E-02 -1.09248441E-15
 -2.65675294E-04  1.31626662E-01 -8.83934177E-02 -4.37640785E-03 -6.14299750E-14
 -7.12146663E-14 -2.65957848E-04  1.31718450E-01 -8.84564273E-02  4.37936257E-03
 -6.84594414E-15 -7.16000676E-14  1.30677828E-02  2.14999278E-02 -5.93663664E-02
  4.42942973E-13  1.32672582E-13 -5.93116200E-02 -4.97807788E-02  4.49117140E-13
  6.91327909E-14 -2.62638266E-01 -2.57750725E-01  1.58717825E-12  5.16244475E-13
  4.27452788E-01  7.75501188E-01 -4.51474695E-12 -1.55209289E-12 -4.21579003E-03
  5.48917111E-17  5.21368172E-04  8.83241030E-03 -2.36057408E-14  1.30677556E-02
  2.14998835E-02  5.93661626E-02  9.52241997E-13 -2.33029776E-14 -5.93114782E-02
  4.97805482E-02  1.05530688E-12 -1.05994963E-13 -2.62637849E-01  2.57749894E-01
  3.34515894E-12 -2.76655607E-14  4.27451620E-01 -7.75499218E-01 -9.73215802E-12
  3.80782403E-14 -4.21576964E-03 -9.76905571E-15  5.21349546E-04  8.83239362E-03
  5.87750921E-14  1.46414537E-02 -2.27472845E-02  5.08418648E-02  9.44698095E-03
 -1.42657231E-14 -5.01948198E-15  1.46414620E-02 -2.27471168E-02  5.08420193E-02
 -9.44696381E-03 -4.04217116E-14  1.75613474E-15  1.45189121E-13  2.35961711E-13
 -5.14031022E-13 -8.23073803E-02  2.53774997E-02 -5.97225291E-13 -4.53756102E-13
 -9.25431172E-02  2.85329543E-02 -3.38867044E-12 -1.99180429E-12 -2.94877965E-01
  9.09189205E-02  3.24731717E-12  8.26835800E-12  8.06186786E-01 -2.48571584E-01
 -6.26265912E-14 -2.07209407E-03  9.23427219E-15  1.03455972E-13  6.72031291E-03
  8.51726130E-14  1.41330751E-13  3.79468875E-13 -8.23051164E-02  2.53759895E-02
 -3.67994162E-13  2.51598544E-13 -9.25405760E-02  2.85312190E-02 -1.53802436E-12
  1.77250905E-12 -2.94869893E-01  9.09135679E-02  2.89212384E-12 -4.28655729E-12
  8.06164618E-01 -2.48556980E-01 -2.55638142E-14  2.07197322E-03  2.20498016E-15
  1.95637784E-14 -6.72013812E-03  2.18542143E-13 -2.25120419E-13  2.54539448E-12
  6.67688702E-14  2.71208576E-03 -8.36306308E-04  8.68207230E-14  7.08895755E-14
 -4.22554717E-13 -8.80485931E-14  2.71199826E-03 -8.36257261E-04  9.99988183E-14
  1.69045284E-13 -6.47391501E-13  8.24121268E-02 -2.54099556E-02 -5.47639456E-13
 -5.51198676E-13  9.29564966E-02 -2.86605594E-02 -1.32049689E-12 -3.02581860E-12
  2.94430552E-01 -9.07815776E-02  5.14963437E-12  6.26289010E-12 -8.06541936E-01
  2.48682809E-01 -1.45885640E-14  2.07337460E-03  8.45384084E-16  5.93253511E-14
 -6.72442517E-03 -2.26927258E-14 -3.68115213E-14 -1.30145442E-13 -8.24149857E-02
  2.54095005E-02  1.34940666E-13 -1.89114302E-13 -9.29596968E-02  2.86601017E-02
  5.40469696E-13 -4.26617970E-13 -2.94440839E-01  9.07798984E-02 -7.86014460E-13
  2.10888159E-12  8.06570060E-01 -2.48678093E-01  8.50430886E-15  2.07334149E-03
 -2.16484008E-15 -5.22042603E-14 -6.72466801E-03  3.89782027E-14 -1.85956204E-13
 -2.24446115E-12  1.17481963E-13 -2.70472777E-03  8.34046849E-04 -2.71525569E-14
  2.51326247E-13 -5.78885139E-13 -7.16876329E-15  2.70481215E-03 -8.34021290E-04
  6.96981361E-14  1.09088835E-13 -2.71847856E-14 -2.33518713E-02 -7.57346085E-02
 -2.09238375E-13 -4.55763593E-14 -2.20611668E-02 -7.15466137E-02 -2.31468442E-12
  2.63428158E-13 -8.80893962E-02 -2.85692721E-01 -4.54984769E-13  3.53996818E-12
  2.49785808E-01  8.10116226E-01 -3.57754058E-14  5.91453895E-03  9.81176604E-15