Title Card Required                                                     
FOpt      UM062X                                                      6-311+G(d,p)        
Number of atoms                            I                6
Info1-9                                    I   N=           9
          15          15           0           0           0         110
           2          18        -502
Full Title                                 C   N=           2
Title Card Required     
Route                                      C   N=           4
#p opt UM062X/6-311+G** nosymm int=superfine    
Charge                                     I                0
Multiplicity                               I                1
Number of electrons                        I               16
Number of alpha electrons                  I                8
Number of beta electrons                   I                8
Number of basis functions                  I               68
Number of independent functions            I               68
Number of point charges in /Mol/           I                0
Number of translation vectors              I                0
Atomic numbers                             I   N=           6
           6           6           1           1           1           1
Nuclear charges                            R   N=           6
  6.00000000E+00  6.00000000E+00  1.00000000E+00  1.00000000E+00  1.00000000E+00
  1.00000000E+00
Current cartesian coordinates              R   N=          18
 -1.84139041E+00  0.00000000E+00  0.00000000E+00  1.84139041E+00  0.00000000E+00
  0.00000000E+00 -2.73542685E+00 -1.83129652E+00 -2.00886186E-09 -2.73537610E+00
  1.83129561E+00 -1.72337103E-09  2.73542687E+00  1.83129637E+00 -3.76281056E-11
  2.73537611E+00 -1.83129546E+00  2.46569036E-10
Number of symbols in /Mol/                 I                0
Force Field                                I                0
Atom Types                                 C   N=           6
                                                            
            
Int Atom Types                             I   N=           6
           0           0           0           0           0           0
MM charges                                 R   N=           6
  0.00000000E+00  0.00000000E+00  0.00000000E+00  0.00000000E+00  0.00000000E+00
  0.00000000E+00
Integer atomic weights                     I   N=           6
          12          12           1           1           1           1
Real atomic weights                        R   N=           6
  1.20000000E+01  1.20000000E+01  1.00782504E+00  1.00782504E+00  1.00782504E+00
  1.00782504E+00
Atom fragment info                         I   N=           6
           0           0           0           0           0           0
Atom residue num                           I   N=           6
           0           0           0           0           0           0
Nuclear spins                              I   N=           6
           0           0           1           1           1           1
Nuclear ZEff                               R   N=           6
 -3.60000000E+00 -3.60000000E+00 -1.00000000E+00 -1.00000000E+00 -1.00000000E+00
 -1.00000000E+00
Nuclear ZNuc                               R   N=           6
  6.00000000E+00  6.00000000E+00  1.00000000E+00  1.00000000E+00  1.00000000E+00
  1.00000000E+00
Nuclear QMom                               R   N=           6
  0.00000000E+00  0.00000000E+00  0.00000000E+00  0.00000000E+00  0.00000000E+00
  0.00000000E+00
Nuclear GFac                               R   N=           6
  0.00000000E+00  0.00000000E+00  2.79284600E+00  2.79284600E+00  2.79284600E+00
  2.79284600E+00
MicOpt                                     I   N=           6
          -2          -2          -1          -1          -1          -1
Number of residues                         I                0
Number of secondary structures             I                0
Redundant internal dimensions              I   N=           4
          20          10           6           4
Redundant internal coordinate indices      I   N=          80
           1          -1           0           0           1          -2
           0           0           1          -3           0           0
           2          -1           0           0           2          -2
           0           0           2          -3           0           0
           1           3           0           0           1           4
           0           0           2           5           0           0
           2           6           0           0           2           1
           3           0           2           1           4           0
           3           1           4           0           1           2
           5           0           1           2           6           0
           5           2           6           0           3           1
           2           5           3           1           2           6
           4           1           2           5           4           1
           2           6
Redundant internal coordinates             R   N=          20
 -1.84139041E+00  0.00000000E+00  0.00000000E+00  1.84139041E+00  0.00000000E+00
  0.00000000E+00  2.03787834E+00  2.03785525E+00  2.03787821E+00  2.03785512E+00
  2.02495834E+00  2.02493616E+00  2.23329081E+00  2.02495838E+00  2.02493620E+00
  2.23329073E+00  3.14159265E+00 -0.00000000E+00  0.00000000E+00  3.14159265E+00
ZRed-IntVec                                I   N=          20
          -1          -1          -1          -1          -1          -1
           0           0           0           0           0           0
           0           0           0           0           0           0
           0           0
ZRed-FPVec                                 R   N=          20
  0.00000000E+00  0.00000000E+00  0.00000000E+00  0.00000000E+00  0.00000000E+00
  0.00000000E+00  0.00000000E+00  0.00000000E+00  0.00000000E+00  0.00000000E+00
  0.00000000E+00  0.00000000E+00  0.00000000E+00  0.00000000E+00  0.00000000E+00
  0.00000000E+00  0.00000000E+00  0.00000000E+00  0.00000000E+00  0.00000000E+00
ZRed-Constraint1                           R   N=          20
 -1.84139041E+00  0.00000000E+00  0.00000000E+00  1.84139041E+00  0.00000000E+00
  0.00000000E+00  2.35266706E+00  2.35270861E+00  2.35266706E+00  2.35270861E+00
  2.30840474E+00  2.30324761E+00  1.67153296E+00  2.30840474E+00  2.30324761E+00
  1.67153296E+00  3.14159265E+00  0.00000000E+00  0.00000000E+00  3.14159265E+00
ZRed-Constraint2                           R   N=          20
 -1.84139041E+00  0.00000000E+00  0.00000000E+00  1.84139041E+00  0.00000000E+00
  0.00000000E+00  0.00000000E+00  0.00000000E+00  0.00000000E+00  0.00000000E+00
  0.00000000E+00  0.00000000E+00  0.00000000E+00  0.00000000E+00  0.00000000E+00
  0.00000000E+00  0.00000000E+00  0.00000000E+00  0.00000000E+00  0.00000000E+00
Number of contracted shells                I               28
Number of primitive shells                 I               50
Pure/Cartesian d shells                    I                0
Pure/Cartesian f shells                    I                0
Highest angular momentum                   I                2
Largest degree of contraction              I                6
Shell types                                I   N=          28
           0          -1          -1          -1          -1          -2
           0          -1          -1          -1          -1          -2
           0           0           0           1           0           0
           0           1           0           0           0           1
           0           0           0           1
Number of primitives per shell             I   N=          28
           6           3           1           1           1           1
           6           3           1           1           1           1
           3           1           1           1           3           1
           1           1           3           1           1           1
           3           1           1           1
Shell to atom map                          I   N=          28
           1           1           1           1           1           1
           2           2           2           2           2           2
           3           3           3           3           4           4
           4           4           5           5           5           5
           6           6           6           6
Primitive exponents                        R   N=          50
  4.56324000E+03  6.82024000E+02  1.54973000E+02  4.44553000E+01  1.30290000E+01
  1.82773000E+00  2.09642000E+01  4.80331000E+00  1.45933000E+00  4.83456000E-01
  1.45585000E-01  4.38000000E-02  6.26000000E-01  4.56324000E+03  6.82024000E+02
  1.54973000E+02  4.44553000E+01  1.30290000E+01  1.82773000E+00  2.09642000E+01
  4.80331000E+00  1.45933000E+00  4.83456000E-01  1.45585000E-01  4.38000000E-02
  6.26000000E-01  3.38650000E+01  5.09479000E+00  1.15879000E+00  3.25840000E-01
  1.02741000E-01  7.50000000E-01  3.38650000E+01  5.09479000E+00  1.15879000E+00
  3.25840000E-01  1.02741000E-01  7.50000000E-01  3.38650000E+01  5.09479000E+00
  1.15879000E+00  3.25840000E-01  1.02741000E-01  7.50000000E-01  3.38650000E+01
  5.09479000E+00  1.15879000E+00  3.25840000E-01  1.02741000E-01  7.50000000E-01
Contraction coefficients                   R   N=          50
  1.96665025E-03  1.52306019E-02  7.61269097E-02  2.60801033E-01  6.16462078E-01
  2.21006028E-01  1.14660081E-01  9.19999648E-01 -3.03068213E-03  1.00000000E+00
  1.00000000E+00  1.00000000E+00  1.00000000E+00  1.96665025E-03  1.52306019E-02
  7.61269097E-02  2.60801033E-01  6.16462078E-01  2.21006028E-01  1.14660081E-01
  9.19999648E-01 -3.03068213E-03  1.00000000E+00  1.00000000E+00  1.00000000E+00
  1.00000000E+00  2.54938145E-02  1.90373109E-01  8.52161486E-01  1.00000000E+00
  1.00000000E+00  1.00000000E+00  2.54938145E-02  1.90373109E-01  8.52161486E-01
  1.00000000E+00  1.00000000E+00  1.00000000E+00  2.54938145E-02  1.90373109E-01
  8.52161486E-01  1.00000000E+00  1.00000000E+00  1.00000000E+00  2.54938145E-02
  1.90373109E-01  8.52161486E-01  1.00000000E+00  1.00000000E+00  1.00000000E+00
P(S=P) Contraction coefficients            R   N=          50
  0.00000000E+00  0.00000000E+00  0.00000000E+00  0.00000000E+00  0.00000000E+00
  0.00000000E+00  4.02486927E-02  2.37593957E-01  8.15853851E-01  1.00000000E+00
  1.00000000E+00  1.00000000E+00  0.00000000E+00  0.00000000E+00  0.00000000E+00
  0.00000000E+00  0.00000000E+00  0.00000000E+00  0.00000000E+00  4.02486927E-02
  2.37593957E-01  8.15853851E-01  1.00000000E+00  1.00000000E+00  1.00000000E+00
  0.00000000E+00  0.00000000E+00  0.00000000E+00  0.00000000E+00  0.00000000E+00
  0.00000000E+00  0.00000000E+00  0.00000000E+00  0.00000000E+00  0.00000000E+00
  0.00000000E+00  0.00000000E+00  0.00000000E+00  0.00000000E+00  0.00000000E+00
  0.00000000E+00  0.00000000E+00  0.00000000E+00  0.00000000E+00  0.00000000E+00
  0.00000000E+00  0.00000000E+00  0.00000000E+00  0.00000000E+00  0.00000000E+00
Coordinates of each shell                  R   N=          84
 -1.84139041E+00  0.00000000E+00  0.00000000E+00 -1.84139041E+00  0.00000000E+00
  0.00000000E+00 -1.84139041E+00  0.00000000E+00  0.00000000E+00 -1.84139041E+00
  0.00000000E+00  0.00000000E+00 -1.84139041E+00  0.00000000E+00  0.00000000E+00
 -1.84139041E+00  0.00000000E+00  0.00000000E+00  1.84139041E+00  0.00000000E+00
  0.00000000E+00  1.84139041E+00  0.00000000E+00  0.00000000E+00  1.84139041E+00
  0.00000000E+00  0.00000000E+00  1.84139041E+00  0.00000000E+00  0.00000000E+00
  1.84139041E+00  0.00000000E+00  0.00000000E+00  1.84139041E+00  0.00000000E+00
  0.00000000E+00 -2.73542685E+00 -1.83129652E+00 -2.00886186E-09 -2.73542685E+00
 -1.83129652E+00 -2.00886186E-09 -2.73542685E+00 -1.83129652E+00 -2.00886186E-09
 -2.73542685E+00 -1.83129652E+00 -2.00886186E-09 -2.73537610E+00  1.83129561E+00
 -1.72337103E-09 -2.73537610E+00  1.83129561E+00 -1.72337103E-09 -2.73537610E+00
  1.83129561E+00 -1.72337103E-09 -2.73537610E+00  1.83129561E+00 -1.72337103E-09
  2.73542687E+00  1.83129637E+00 -3.76281056E-11  2.73542687E+00  1.83129637E+00
 -3.76281056E-11  2.73542687E+00  1.83129637E+00 -3.76281056E-11  2.73542687E+00
  1.83129637E+00 -3.76281056E-11  2.73537611E+00 -1.83129546E+00  2.46569036E-10
  2.73537611E+00 -1.83129546E+00  2.46569036E-10  2.73537611E+00 -1.83129546E+00
  2.46569036E-10  2.73537611E+00 -1.83129546E+00  2.46569036E-10
Num ILSW                                   I              100
ILSW                                       I   N=         100
           1           0           0           1           2           0
           0           0           0           0        4336          -1
           7           0           0           0           2           0
           0           0           0           0           1           0
           1           1           0           0           0           0
           0           0      100000           0          -1           0
           0           0           0           0           0           0
           0           0           0           1           0           0
           0 -2000000000           1           0           0           0
           0           0           4          52           0           0
           0           0          55           0           0           0
           0           0           0           6           0           1
           0           0           0           0           0           0
           0           0           0           0           0           0
           0           0           0           0           0           0
           0           0           0           0           0           0
           0           0           0           0
Num RLSW                                   I               52
RLSW                                       R   N=          52
  1.00000000E+00  1.00000000E+00  1.00000000E+00  1.00000000E+00  5.40000000E-01
  0.00000000E+00  0.00000000E+00  1.00000000E+00  0.00000000E+00  0.00000000E+00
  0.00000000E+00  0.00000000E+00  1.00000000E+00  0.00000000E+00  0.00000000E+00
  0.00000000E+00  0.00000000E+00  1.00000000E+00  0.00000000E+00  0.00000000E+00
  0.00000000E+00  0.00000000E+00  1.00000000E+00  0.00000000E+00  0.00000000E+00
  0.00000000E+00  0.00000000E+00  1.00000000E+00  0.00000000E+00  0.00000000E+00
  0.00000000E+00  0.00000000E+00  1.00000000E+00  0.00000000E+00  0.00000000E+00
  0.00000000E+00  0.00000000E+00  0.00000000E+00  1.00000000E+00  1.00000000E+00
  0.00000000E+00  1.00000000E+00  0.00000000E+00  0.00000000E+00  0.00000000E+00
  0.00000000E+00  0.00000000E+00  0.00000000E+00  0.00000000E+00  0.00000000E+00
  0.00000000E+00  0.00000000E+00
MxBond                                     I                3
NBond                                      I   N=           6
           3           3           1           1           1           1
IBond                                      I   N=          18
           2           3           4           1           5           6
           1           0           0           1           0           0
           2           0           0           2           0           0
RBond                                      R   N=          18
  1.00000000E-01  1.00000000E+00  1.00000000E+00  1.00000000E-01  1.00000000E+00
  1.00000000E+00  1.00000000E+00  0.00000000E+00  0.00000000E+00  1.00000000E+00
  0.00000000E+00  0.00000000E+00  1.00000000E+00  0.00000000E+00  0.00000000E+00
  1.00000000E+00  0.00000000E+00  0.00000000E+00
Virial Ratio                               R      2.012248005454952E+00
SCF Energy                                 R     -7.839467692967318E+01
Total Energy                               R     -7.839467692967318E+01
S**2                                       R     -3.552713678800501E-14
S**2 after annihilation                    R     -7.283063041540917E-14
RMS Force                                  R      4.219581922976572E-05
RMS Density                                R      1.322087615236853E-09
Job Status                                 I                1
Nuclear derivative order                   I                1
External E-field                           R   N=          35
  0.00000000E+00  0.00000000E+00  0.00000000E+00  0.00000000E+00  0.00000000E+00
  0.00000000E+00  0.00000000E+00  0.00000000E+00  0.00000000E+00  0.00000000E+00
  0.00000000E+00  0.00000000E+00  0.00000000E+00  0.00000000E+00  0.00000000E+00
  0.00000000E+00  0.00000000E+00  0.00000000E+00  0.00000000E+00  0.00000000E+00
  0.00000000E+00  0.00000000E+00  0.00000000E+00  0.00000000E+00  0.00000000E+00
  0.00000000E+00  0.00000000E+00  0.00000000E+00  0.00000000E+00  0.00000000E+00
  0.00000000E+00  0.00000000E+00  0.00000000E+00  0.00000000E+00  0.00000000E+00
IOpCl                                      I                1
IROHF                                      I                0
Alpha Orbital Energies                     R   N=          68
 -1.06067927E+01 -1.06066368E+01 -7.78534877E-01 -7.11062156E-01 -5.29563237E-01
 -4.93363439E-01 -3.88156545E-01 -2.65443386E-01 -5.93246363E-02  2.33223029E-02
  3.36258036E-02  5.39348853E-02  7.38845179E-02  9.01506395E-02  9.84594199E-02
  1.09193546E-01  1.14541447E-01  1.54435332E-01  1.64976837E-01  2.10058013E-01
  2.12086611E-01  2.83209090E-01  3.99065754E-01  4.38118508E-01  4.54461919E-01
  5.90542865E-01  6.18585622E-01  6.27524584E-01  6.52786647E-01  6.86054189E-01
  7.01688503E-01  7.52173740E-01  7.68257759E-01  8.26867205E-01  1.07880415E+00
  1.10190285E+00  1.13710282E+00  1.24226168E+00  1.40743738E+00  1.43552764E+00
  1.49336538E+00  1.50957559E+00  1.53053742E+00  1.64353718E+00  1.73767516E+00
  1.81340098E+00  1.86694110E+00  1.89627009E+00  1.95692469E+00  1.98426578E+00
  2.05280316E+00  2.06458970E+00  2.36416436E+00  2.52804986E+00  2.58172438E+00
  2.59914264E+00  2.61977277E+00  2.62760108E+00  2.68237278E+00  2.72024437E+00
  2.75853372E+00  2.77719972E+00  2.80255807E+00  3.51974512E+00  3.72246429E+00
  3.76497889E+00  2.38119179E+01  2.38462384E+01
Beta Orbital Energies                      R   N=          68
 -1.06067927E+01 -1.06066368E+01 -7.78534877E-01 -7.11062156E-01 -5.29563237E-01
 -4.93363439E-01 -3.88156545E-01 -2.65443386E-01 -5.93246363E-02  2.33223029E-02
  3.36258036E-02  5.39348853E-02  7.38845179E-02  9.01506395E-02  9.84594199E-02
  1.09193546E-01  1.14541447E-01  1.54435332E-01  1.64976837E-01  2.10058013E-01
  2.12086611E-01  2.83209090E-01  3.99065754E-01  4.38118508E-01  4.54461919E-01
  5.90542865E-01  6.18585622E-01  6.27524584E-01  6.52786647E-01  6.86054189E-01
  7.01688503E-01  7.52173740E-01  7.68257759E-01  8.26867205E-01  1.07880415E+00
  1.10190285E+00  1.13710282E+00  1.24226168E+00  1.40743738E+00  1.43552764E+00
  1.49336538E+00  1.50957559E+00  1.53053742E+00  1.64353718E+00  1.73767516E+00
  1.81340098E+00  1.86694110E+00  1.89627009E+00  1.95692469E+00  1.98426578E+00
  2.05280316E+00  2.06458970E+00  2.36416436E+00  2.52804986E+00  2.58172438E+00
  2.59914264E+00  2.61977277E+00  2.62760108E+00  2.68237278E+00  2.72024437E+00
  2.75853372E+00  2.77719972E+00  2.80255807E+00  3.51974512E+00  3.72246429E+00
  3.76497889E+00  2.38119179E+01  2.38462384E+01
Alpha MO coefficients                      R   N=        4624
  3.98992880E-01  3.28081442E-01  3.50458921E-04 -2.01263108E-08  5.18241330E-14
  8.16740830E-03 -1.35138709E-03  1.52808831E-07 -3.06842794E-12 -1.97611658E-03
 -4.22388551E-05  1.36894287E-08 -2.60554278E-14 -5.54850559E-04  4.37145420E-04
 -3.41212078E-08  9.23722953E-13 -8.71936673E-04  1.08270656E-12  2.18598200E-13
 -9.63306691E-04 -2.01373532E-08  3.98956669E-01  3.28051664E-01 -3.50423120E-04
  2.01246581E-08  7.91501982E-13  8.16666480E-03  1.35122376E-03 -1.52794832E-07
 -2.72685367E-13 -1.97581090E-03  4.21941075E-05 -1.36915944E-08  3.22521092E-13
 -5.54943576E-04 -4.37054408E-04  3.41189054E-08 -4.48556902E-13 -8.71865523E-04
 -9.41712108E-14 -1.92098799E-13 -9.63203287E-04 -2.01345677E-08  1.23463042E-04
 -2.37040942E-03  1.50234891E-03 -7.00221278E-04 -1.30803233E-03 -1.55242543E-12
  1.23433338E-04 -2.37062451E-03  1.50246390E-03 -7.00238011E-04  1.30813642E-03
 -1.36502211E-12  1.23454866E-04 -2.37020690E-03  1.50219629E-03  7.00162581E-04
  1.30791176E-03 -3.47039905E-14  1.23425166E-04 -2.37042197E-03  1.50231127E-03
  7.00179313E-04 -1.30801585E-03  2.25804949E-13 -3.98972690E-01 -3.28101320E-01
 -3.95078097E-04  1.82117472E-08 -5.32781415E-14 -8.20344880E-03  1.80735798E-03
 -1.49720921E-07  3.14293935E-12  3.36362690E-03  4.90013847E-04  2.30497297E-08
 -4.16572163E-13 -1.00105748E-03 -9.97017357E-04  2.44498228E-08 -8.83043605E-13
  7.86745704E-04 -1.12652041E-12 -2.04376190E-13  1.14142310E-03  2.59915667E-08
  3.99008899E-01  3.28131094E-01 -3.95109923E-04  1.82135884E-08  8.18247660E-13
  8.20419106E-03  1.80748120E-03 -1.49734410E-07 -2.19323924E-13 -3.36380621E-03
  4.90017651E-04  2.30487402E-08  1.35105277E-13  1.00100682E-03 -9.97057093E-04
  2.44526796E-08  2.02300403E-13 -7.86825056E-04 -3.27133157E-14 -1.76592063E-13
 -1.14151063E-03 -2.59929050E-08 -8.90286211E-05  2.24138351E-03 -1.68867925E-03
  6.49170239E-04  1.33174569E-03  1.60969633E-12 -8.89938122E-05  2.24156718E-03
 -1.68882164E-03  6.49181895E-04 -1.33185039E-03  1.41664524E-12  8.90397217E-05
 -2.24159936E-03  1.68881599E-03  6.49233970E-04  1.33186467E-03 -2.89644221E-14
  8.90049102E-05 -2.24178304E-03  1.68895839E-03  6.49245626E-04 -1.33196938E-03
  2.37697746E-13 -7.83560743E-02 -1.26248456E-01 -7.73159540E-03  1.46707171E-06
 -5.22150381E-11  3.37820787E-01 -3.54587404E-03  1.43151022E-06 -7.10528112E-11
  2.30858862E-01 -4.32132839E-04  3.91118147E-07 -2.85581657E-11  2.88294811E-03
 -4.14480261E-03 -4.27757741E-08 -4.47377442E-12 -8.91605004E-03  5.90662254E-12
  1.00893118E-12  9.39730450E-05  3.39285123E-08 -7.83560949E-02 -1.26248490E-01
  7.73161300E-03 -1.46707043E-06  1.37292472E-12  3.37820872E-01  3.54589630E-03
 -1.43150967E-06  7.44713210E-12  2.30858911E-01  4.32143715E-04 -3.91118542E-07
 -1.07705421E-12  2.88295146E-03  4.14480251E-03  4.27760320E-08  1.81071028E-12
 -8.91605158E-03 -3.33671576E-12 -9.91431945E-13  9.39711447E-05  3.39306985E-08
  7.16829064E-02  8.24254693E-02  4.03184185E-03  4.61432732E-03  1.10427469E-02
  9.47977972E-12  7.16852501E-02  8.24275588E-02  4.03202216E-03  4.61423779E-03
 -1.10431567E-02  7.92043528E-12  7.16829345E-02  8.24254991E-02  4.03184226E-03
 -4.61432886E-03 -1.10427507E-02  2.38466279E-13  7.16852783E-02  8.24275885E-02
  4.03202258E-03 -4.61423933E-03  1.10431605E-02 -1.31274607E-12 -7.40481927E-02
 -1.19635176E-01 -5.11819193E-02  2.15750218E-06 -7.38855712E-11  3.25331600E-01
 -7.49008370E-02  2.42612851E-06 -1.04048111E-10  2.27025764E-01 -3.57822379E-02
  9.33147589E-07 -4.12695396E-11 -2.54299734E-02 -1.19058793E-02 -2.60931054E-09
 -5.30732656E-12 -6.58777452E-03  1.20921927E-11  1.44149874E-12 -9.57296975E-03
  8.74694436E-08  7.40481711E-02  1.19635140E-01 -5.11819272E-02  2.15749566E-06
 -1.01402766E-11 -3.25331502E-01 -7.49008476E-02  2.42612235E-06 -1.97241577E-11
 -2.27025685E-01 -3.57822423E-02  9.33148634E-07 -5.85849530E-12  2.54299745E-02
 -1.19058779E-02 -2.61036461E-09  2.46433576E-12  6.58777205E-03  3.50125860E-12
  1.45988195E-12  9.57296957E-03 -8.74720234E-08  8.57334114E-02  1.03213573E-01
  1.25517648E-02  3.10409505E-03  1.23066758E-02  1.01762434E-11  8.57361142E-02
  1.03216061E-01  1.25520304E-02  3.10396977E-03 -1.23070590E-02  8.31796952E-12
 -8.57333991E-02 -1.03213554E-01 -1.25517627E-02  3.10409402E-03  1.23066735E-02
 -1.09333213E-12 -8.57361019E-02 -1.03216042E-01 -1.25520283E-02  3.10396874E-03
 -1.23070567E-02  9.21420712E-13  5.70966026E-07  9.57522396E-07  1.30723440E-06
  1.48247865E-01  9.71301354E-12 -2.79356019E-06  2.01181348E-06  2.06866745E-01
  1.27438177E-11 -3.59590715E-06  1.18125965E-06  1.21139770E-01  7.59995550E-12
  1.44720793E-06  7.64157329E-07  4.13118390E-03 -3.96234221E-13  1.47060485E-08
 -1.20116370E-12 -3.34667506E-11 -3.39107997E-07 -9.90272628E-03 -5.70965468E-07
 -9.57521308E-07  1.30726512E-06  1.48247922E-01 -9.60380306E-12  2.79355676E-06
  2.01185580E-06  2.06866818E-01 -1.26544466E-11  3.59590099E-06  1.18128549E-06
  1.21139810E-01 -7.62301920E-12 -1.44720712E-06  7.64158838E-07  4.13118477E-03
  8.62588020E-13 -1.47053339E-08 -1.23180412E-12  4.19392826E-12  3.39109911E-07
  9.90273402E-03 -1.05627037E-01 -1.45445972E-01 -4.21187106E-02 -7.37196099E-03
 -9.66667744E-03 -1.87403768E-11  1.05626382E-01  1.45443647E-01  4.21179311E-02
  7.37163905E-03 -9.66657238E-03  1.70097761E-11  1.05627080E-01  1.45446026E-01
  4.21187274E-02 -7.37196483E-03 -9.66668072E-03 -6.49498305E-13 -1.05626424E-01
 -1.45443701E-01 -4.21179479E-02  7.37164289E-03 -9.66657566E-03  2.32607477E-12
  3.68195625E-07  6.35065583E-07  1.79714733E-06  1.51667572E-01  1.36417892E-11
 -1.94415181E-06  2.87212716E-06  2.08599323E-01  1.92761816E-11 -3.22768369E-06
  1.72123031E-06  1.27545577E-01  1.13941015E-11 -4.00167296E-07  2.11527028E-07
  1.11455591E-02  6.29248985E-13  5.25085815E-09 -8.68818189E-13 -3.57161934E-11
 -2.74265147E-07 -2.00946590E-02  3.68191100E-07  6.35058036E-07 -1.79715818E-06
 -1.51667526E-01  1.36342281E-11 -1.94413015E-06 -2.87213932E-06 -2.08599253E-01
  1.90351761E-11 -3.22765481E-06 -1.72123716E-06 -1.27545531E-01  1.21598660E-11
 -4.00148611E-07 -2.11532970E-07 -1.11455558E-02 -7.30184745E-13  5.25065634E-09
  8.10604437E-13 -6.12787119E-12 -2.74269927E-07 -2.00946571E-02 -1.12623097E-01
 -1.61353774E-01 -5.33198125E-02 -7.75944234E-03 -9.59590956E-03 -1.85088933E-11
  1.12622270E-01  1.61351230E-01  5.33191188E-02  7.75923252E-03 -9.59591407E-03
  1.73243986E-11 -1.12623065E-01 -1.61353722E-01 -5.33197962E-02  7.75944101E-03
  9.59590583E-03  8.64960846E-13  1.12622238E-01  1.61351178E-01  5.33191025E-02
 -7.75923119E-03  9.59591034E-03 -2.13465630E-12 -1.33394705E-02 -2.22635159E-02
  1.73473106E-01 -2.71664381E-06  1.40356831E-10  6.13465587E-02  2.67450927E-01
 -3.59073574E-06  1.99512211E-10  9.88309277E-02  2.04653752E-01 -2.52414199E-06
  1.63329156E-10  3.43591958E-03  1.56713518E-02 -8.41692558E-10  2.14533635E-11
  1.11341358E-04 -2.07244038E-11 -1.10950688E-12  1.38465174E-02  2.04980756E-07
 -1.33394740E-02 -2.22635218E-02 -1.73473106E-01  2.71667084E-06  8.19260992E-12
  6.13465762E-02 -2.67450926E-01  3.59077721E-06  2.39008755E-11  9.88309551E-02
 -2.04653751E-01  2.52417350E-06  6.22378053E-12  3.43592532E-03 -1.56713519E-02
  8.44907121E-10 -8.50876087E-12  1.11341777E-04 -1.02785710E-11  1.05335442E-12
  1.38465156E-02  2.04979969E-07 -5.72139662E-02 -8.86851189E-02 -4.42229853E-02
  7.09710453E-03 -8.16308402E-03 -4.55160239E-13 -5.72153294E-02 -8.86867452E-02
 -4.42242212E-02  7.09732183E-03  8.16304187E-03  9.09275743E-13 -5.72139651E-02
 -8.86851130E-02 -4.42229815E-02 -7.09710484E-03  8.16308426E-03  3.52759889E-13
 -5.72153283E-02 -8.86867394E-02 -4.42242174E-02 -7.09732213E-03 -8.16304211E-03
  1.63239499E-12 -4.97034173E-11 -8.30255202E-11 -9.88227189E-11 -1.56650121E-11
  1.71199652E-01  2.48155653E-10 -1.65586200E-10 -2.44009821E-11  2.67686876E-01
  3.38639592E-10 -1.73659162E-10 -2.96610492E-11  2.94864231E-01  8.95582753E-11
 -3.07501351E-11 -1.92200063E-11  5.78436145E-02 -9.52342126E-12  7.72272038E-03
  7.56652012E-08 -5.24721828E-13  2.10033686E-12  1.95651562E-11  3.27571099E-11
  8.77079844E-11  1.56807720E-11  1.71199650E-01 -9.92333734E-11  1.28147478E-10
  2.26754228E-11  2.67686875E-01 -1.08704592E-10  1.03721514E-10  2.90802037E-11
  2.94864230E-01 -7.40874582E-11  5.55066986E-11  1.97088043E-11  5.78436141E-02
  3.43756286E-12 -7.72271968E-03 -7.56656236E-08  1.19621481E-13  1.46177435E-12
 -4.43480669E-11 -5.34356660E-11 -3.64326363E-11 -1.33010839E-11 -1.00659105E-11
  1.43064924E-02 -5.01197684E-11 -6.32875552E-11 -2.55038004E-11 -1.25528778E-11
  7.24863750E-12  1.43066384E-02  2.67846346E-11  3.96623139E-11  4.03164332E-11
  5.76411849E-12 -4.25633373E-12  1.43064930E-02  2.08944608E-11  2.65882328E-11
  5.35548436E-11  5.71910257E-12  5.78563799E-12  1.43066390E-02 -5.66961744E-11
 -9.48572356E-11 -8.52871581E-11 -1.15242070E-11  1.84023027E-01  2.70050685E-10
 -1.49713881E-10 -1.93681287E-11  2.81205803E-01  5.89122039E-10 -2.04991893E-10
 -3.10951226E-11  3.69589186E-01 -3.31131592E-10 -2.74955647E-10 -2.48580103E-11
  2.83214506E-01 -9.18174977E-12 -1.84923207E-02  7.83531811E-08  7.64380087E-12
 -2.38446192E-13  1.61356139E-11  2.68803472E-11  8.31102510E-11 -1.13719006E-11
 -1.84023027E-01 -8.24601573E-11  1.34892648E-10 -1.99641082E-11 -2.81205803E-01
 -1.02991445E-10  1.24844305E-10 -3.08588201E-11 -3.69589187E-01  4.85656877E-10
 -6.31487742E-11 -2.38697601E-11 -2.83214505E-01 -1.02410839E-11 -1.84923214E-02
  7.83535602E-08  3.43232558E-12 -8.97606370E-14 -9.03588138E-11 -1.81385055E-10
 -1.09307178E-10 -1.09696302E-11 -1.53404136E-11  1.91188851E-02 -8.30914488E-11
 -1.68724304E-10 -6.86829438E-11 -1.09623963E-11  1.09167662E-11  1.91188948E-02
  1.61109735E-11  2.62918699E-11  3.14462820E-11  8.21962569E-12 -2.39979915E-12
 -1.91188859E-02  8.75975479E-12  1.23170420E-11 -7.16477342E-12  8.30965554E-12
 -2.80970907E-12 -1.91188956E-02 -3.75248958E-02 -6.32877412E-02  6.39776844E-02
 -1.38196185E-06 -5.17482797E-11  1.90062371E-01  1.02669826E-01 -1.63406258E-06
 -1.01372670E-10  3.92904565E-01  1.01722069E-01 -5.44275858E-06 -1.67838209E-10
  2.55620325E+00  1.74407116E+00 -4.82335086E-06  3.58888032E-10  4.62258524E-03
 -4.81680051E-13  7.70498753E-13 -1.82048894E-02 -2.40547840E-07  3.75248929E-02
  6.32877368E-02  6.39776889E-02 -1.38197377E-06  2.04830462E-11 -1.90062364E-01
  1.02669830E-01 -1.63411396E-06  1.20713063E-11 -3.92904483E-01  1.01722091E-01