 running on   28 total cores
 distrk:  each k-point on   28 cores,    1 groups
 distr:  one band on   14 cores,    2 groups
 vasp.6.3.1 04May22 (build Aug 04 2022 13:02:54) complex                        
  
 POSCAR found type information on POSCAR C 
 POSCAR found :  1 types and       2 ions
 scaLAPACK will be used
 -----------------------------------------------------------------------------
|                                                                             |
|           W    W    AA    RRRRR   N    N  II  N    N   GGGG   !!!           |
|           W    W   A  A   R    R  NN   N  II  NN   N  G    G  !!!           |
|           W    W  A    A  R    R  N N  N  II  N N  N  G       !!!           |
|           W WW W  AAAAAA  RRRRR   N  N N  II  N  N N  G  GGG   !            |
|           WW  WW  A    A  R   R   N   NN  II  N   NN  G    G                |
|           W    W  A    A  R    R  N    N  II  N    N   GGGG   !!!           |
|                                                                             |
|     For optimal performance we recommend to set                             |
|       NCORE = 2 up to number-of-cores-per-socket                            |
|     NCORE specifies how many cores store one orbital (NPAR=cpu/NCORE).      |
|     This setting can greatly improve the performance of VASP for DFT.       |
|     The default, NCORE=1 might be grossly inefficient on modern             |
|     multi-core architectures or massively parallel machines. Do your        |
|     own testing! More info at https://www.vasp.at/wiki/index.php/NCORE      |
|     Unfortunately you need to use the default for GW and RPA                |
|     calculations (for HF NCORE is supported but not extensively tested      |
|     yet).                                                                   |
|                                                                             |
 -----------------------------------------------------------------------------

 LDA part: xc-table for Pade appr. of Perdew
 POSCAR, INCAR and KPOINTS ok, starting setup
 FFT: planning ... GRIDC
 FFT: planning ... GRID_SOFT
 FFT: planning ... GRID
 WAVECAR not read
 WARNING: random wavefunctions but no delay for mixing, default for NELMDL
 entering main loop
       N       E                     dE             d eps       ncg     rms          rms(c)
DAV:   1     0.420981940494E+02    0.42098E+02   -0.23067E+03  1184   0.626E+02
DAV:   2    -0.143385711450E+01   -0.43532E+02   -0.42128E+02  2096   0.858E+01
DAV:   3    -0.572886193387E+01   -0.42950E+01   -0.40916E+01  1744   0.391E+01
DAV:   4    -0.585022324687E+01   -0.12136E+00   -0.11813E+00  1896   0.656E+00
DAV:   5    -0.585146967627E+01   -0.12464E-02   -0.12443E-02  1688   0.525E-01    0.171E+00
DAV:   6    -0.581745571587E+01    0.34014E-01   -0.38125E-02  1592   0.134E+00    0.873E-01
DAV:   7    -0.581047646692E+01    0.69792E-02   -0.33436E-02  1328   0.133E+00    0.183E-01
DAV:   8    -0.581113405852E+01   -0.65759E-03   -0.14739E-03  1976   0.298E-01    0.352E-02
DAV:   9    -0.581117094891E+01   -0.36890E-04   -0.74195E-05  1424   0.754E-02    0.134E-02
DAV:  10    -0.581120459459E+01   -0.33646E-04   -0.43083E-06  2064   0.175E-02    0.419E-03
DAV:  11    -0.581125006049E+01   -0.45466E-04   -0.17192E-05  1184   0.189E-02    0.640E-03
DAV:  12    -0.581125467738E+01   -0.46169E-05   -0.93720E-06  1232   0.114E-02    0.307E-03
DAV:  13    -0.581126104518E+01   -0.63678E-05   -0.12280E-06  1376   0.646E-03    0.173E-03
DAV:  14    -0.581127909370E+01   -0.18049E-04   -0.28285E-06  1184   0.829E-03    0.883E-04
DAV:  15    -0.581128523099E+01   -0.61373E-05   -0.20457E-07  1616   0.205E-03    0.512E-04
DAV:  16    -0.581129669365E+01   -0.11463E-04   -0.56092E-07  1184   0.245E-03    0.241E-04
DAV:  17    -0.581130035129E+01   -0.36576E-05   -0.27904E-07  1184   0.132E-03    0.817E-05
DAV:  18    -0.581130101649E+01   -0.66520E-06   -0.33924E-08  1528   0.547E-04    0.479E-05
DAV:  19    -0.581130118638E+01   -0.16989E-06   -0.46884E-09   760   0.177E-04    0.131E-05
DAV:  20    -0.581130120033E+01   -0.13947E-07   -0.54229E-10   592   0.714E-05    0.404E-06
DAV:  21    -0.581130120552E+01   -0.51892E-08   -0.23704E-10   592   0.462E-05
   1 F= -.59114601E+01 E0= -.59087646E+01  d E =-.539117E-02
