 Entering Gaussian System, Link 0=g16
 Initial command:
 /home/szhao/Apps/g16/l1.exe "/home/szhao/tmp/Gau-81763.inp" -scrdir="/home/szhao/tmp/"
 Default is to use a total of  16 processors:
                               16 via shared-memory
                                1 via Linda
 Entering Link 1 = /home/szhao/Apps/g16/l1.exe PID=     81764.
  
 Copyright (c) 1988,1990,1992,1993,1995,1998,2003,2009,2016,
            Gaussian, Inc.  All Rights Reserved.
  
 This is part of the Gaussian(R) 16 program.  It is based on
 the Gaussian(R) 09 system (copyright 2009, Gaussian, Inc.),
 the Gaussian(R) 03 system (copyright 2003, Gaussian, Inc.),
 the Gaussian(R) 98 system (copyright 1998, Gaussian, Inc.),
 the Gaussian(R) 94 system (copyright 1995, Gaussian, Inc.),
 the Gaussian 92(TM) system (copyright 1992, Gaussian, Inc.),
 the Gaussian 90(TM) system (copyright 1990, Gaussian, Inc.),
 the Gaussian 88(TM) system (copyright 1988, Gaussian, Inc.),
 the Gaussian 86(TM) system (copyright 1986, Carnegie Mellon
 University), and the Gaussian 82(TM) system (copyright 1983,
 Carnegie Mellon University). Gaussian is a federally registered
 trademark of Gaussian, Inc.
  
 This software contains proprietary and confidential information,
 including trade secrets, belonging to Gaussian, Inc.
  
 This software is provided under written license and may be
 used, copied, transmitted, or stored only in accord with that
 written license.
  
 The following legend is applicable only to US Government
 contracts under FAR:
  
                    RESTRICTED RIGHTS LEGEND
  
 Use, reproduction and disclosure by the US Government is
 subject to restrictions as set forth in subparagraphs (a)
 and (c) of the Commercial Computer Software - Restricted
 Rights clause in FAR 52.227-19.
  
 Gaussian, Inc.
 340 Quinnipiac St., Bldg. 40, Wallingford CT 06492
  
  
 ---------------------------------------------------------------
 Warning -- This program may not be used in any manner that
 competes with the business of Gaussian, Inc. or will provide
 assistance to any competitor of Gaussian, Inc.  The licensee
 of this program is prohibited from giving any competitor of
 Gaussian, Inc. access to this program.  By using this program,
 the user acknowledges that Gaussian, Inc. is engaged in the
 business of creating and licensing software in the field of
 computational chemistry and represents and warrants to the
 licensee that it is not a competitor of Gaussian, Inc. and that
 it will not use this program in any manner prohibited above.
 ---------------------------------------------------------------
  

 Cite this work as:
 Gaussian 16, Revision A.03,
 M. J. Frisch, G. W. Trucks, H. B. Schlegel, G. E. Scuseria, 
 M. A. Robb, J. R. Cheeseman, G. Scalmani, V. Barone, 
 G. A. Petersson, H. Nakatsuji, X. Li, M. Caricato, A. V. Marenich, 
 J. Bloino, B. G. Janesko, R. Gomperts, B. Mennucci, H. P. Hratchian, 
 J. V. Ortiz, A. F. Izmaylov, J. L. Sonnenberg, D. Williams-Young, 
 F. Ding, F. Lipparini, F. Egidi, J. Goings, B. Peng, A. Petrone, 
 T. Henderson, D. Ranasinghe, V. G. Zakrzewski, J. Gao, N. Rega, 
 G. Zheng, W. Liang, M. Hada, M. Ehara, K. Toyota, R. Fukuda, 
 J. Hasegawa, M. Ishida, T. Nakajima, Y. Honda, O. Kitao, H. Nakai, 
 T. Vreven, K. Throssell, J. A. Montgomery, Jr., J. E. Peralta, 
 F. Ogliaro, M. J. Bearpark, J. J. Heyd, E. N. Brothers, K. N. Kudin, 
 V. N. Staroverov, T. A. Keith, R. Kobayashi, J. Normand, 
 K. Raghavachari, A. P. Rendell, J. C. Burant, S. S. Iyengar, 
 J. Tomasi, M. Cossi, J. M. Millam, M. Klene, C. Adamo, R. Cammi, 
 J. W. Ochterski, R. L. Martin, K. Morokuma, O. Farkas, 
 J. B. Foresman, and D. J. Fox, Gaussian, Inc., Wallingford CT, 2016.
 
 ******************************************
 Gaussian 16:  ES64L-G16RevA.03 25-Dec-2016
                21-Apr-2025 
 ******************************************
 %chk=opt.chk
 %mem=4GB
 %nprocshared=8
 Will use up to    8 processors via shared memory.
 --------------------------------------------
 #p opt UM062X/6-311+G** nosymm int=superfine
 --------------------------------------------
 1/18=20,19=15,26=5,38=1/1,3;
 2/9=110,12=2,15=1,17=6,18=5,40=1/2;
 3/5=4,6=6,7=111,11=2,25=1,30=1,71=1,74=-55,75=-7,116=2/1,2,3;
 4//1;
 5/5=2,38=5/2;
 6/7=2,8=2,9=2,10=2,28=1/1;
 7/30=1/1,2,3,16;
 1/18=20,19=15,26=5/3(2);
 2/9=110,15=1/2;
 99//99;
 2/9=110,15=1/2;
 3/5=4,6=6,7=111,11=2,25=1,30=1,71=1,74=-55,75=-7,116=2/1,2,3;
 4/5=5,16=3,69=1/1;
 5/5=2,38=5/2;
 7/30=1/1,2,3,16;
 1/18=20,19=15,26=5/3(-5);
 2/9=110,15=1/2;
 6/7=2,8=2,9=2,10=2,19=2,28=1/1;
 99/9=1/99;
 Leave Link    1 at Mon Apr 21 17:25:15 2025, MaxMem=   536870912 cpu:               0.9 elap:               0.1
 (Enter /home/szhao/Apps/g16/l101.exe)
 -------------------
 Title Card Required
 -------------------
 Symbolic Z-matrix:
 Charge =  0 Multiplicity = 3
 B                    -1   -1.05341   0.        0. 
 B                    -1    1.05341   0.        0. 
 H                    0    -2.22595  -0.00008   0. 
 H                    0     2.22595   0.00008   0. 
 
 Add virtual bond connecting atoms B2         and B1         Dist= 3.98D+00.
 ITRead=  2  2  0  0
 MicOpt= -2 -2 -1 -1
 NAtoms=      4 NQM=        2 NQMF=       2 NMMI=      0 NMMIF=      0
                NMic=       0 NMicF=      0.
                    Isotopes and Nuclear Properties:
 (Nuclear quadrupole moments (NQMom) in fm**2, nuclear magnetic moments (NMagM)
  in nuclear magnetons)

  Atom         1           2           3           4
 IAtWgt=          11          11           1           1
 AtmWgt=  11.0093053  11.0093053   1.0078250   1.0078250
 NucSpn=           3           3           1           1
 AtZEff=  -0.0000000  -0.0000000  -0.0000000  -0.0000000
 NQMom=    4.0590000   4.0590000   0.0000000   0.0000000
 NMagM=    2.6886370   2.6886370   2.7928460   2.7928460
 AtZNuc=   5.0000000   5.0000000   1.0000000   1.0000000
 Leave Link  101 at Mon Apr 21 17:25:16 2025, MaxMem=   536870912 cpu:               3.0 elap:               0.4
 (Enter /home/szhao/Apps/g16/l103.exe)

 GradGradGradGradGradGradGradGradGradGradGradGradGradGradGradGradGradGrad
 Berny optimization.
 Initialization pass.
                           ----------------------------
                           !    Initial Parameters    !
                           ! (Angstroms and Degrees)  !
 --------------------------                            --------------------------
 ! Name  Definition              Value          Derivative Info.                !
 --------------------------------------------------------------------------------
 ! X1    R(1,-1)                -1.0534         Frozen                          !
 ! Y1    R(1,-2)                 0.0            Frozen                          !
 ! Z1    R(1,-3)                 0.0            Frozen                          !
 ! X2    R(2,-1)                 1.0534         Frozen                          !
 ! Y2    R(2,-2)                 0.0            Frozen                          !
 ! Z2    R(2,-3)                 0.0            Frozen                          !
 ! R1    R(1,3)                  1.1725         estimate D2E/DX2                !
 ! R2    R(2,4)                  1.1725         estimate D2E/DX2                !
 ! A1    L(2,1,3,-3,-1)        179.9961         estimate D2E/DX2                !
 ! A2    L(1,2,4,-3,-1)        179.9961         estimate D2E/DX2                !
 ! A3    L(2,1,3,-2,-2)        180.0            estimate D2E/DX2                !
 ! A4    L(1,2,4,-2,-2)        180.0            estimate D2E/DX2                !
 --------------------------------------------------------------------------------
 Trust Radius=3.00D-01 FncErr=1.00D-07 GrdErr=1.00D-07 EigMax=2.50D+02 EigMin=1.00D-04
 Number of steps in this run=     22 maximum allowed number of steps=    100.
 GradGradGradGradGradGradGradGradGradGradGradGradGradGradGradGradGradGrad

 Leave Link  103 at Mon Apr 21 17:25:16 2025, MaxMem=   536870912 cpu:               0.1 elap:               0.0
 (Enter /home/szhao/Apps/g16/l202.exe)
                          Input orientation:                          
 ---------------------------------------------------------------------
 Center     Atomic      Atomic             Coordinates (Angstroms)
 Number     Number       Type             X           Y           Z
 ---------------------------------------------------------------------
      1          5           0       -1.053410    0.000000    0.000000
      2          5           0        1.053410    0.000000    0.000000
      3          1           0       -2.225953   -0.000080    0.000000
      4          1           0        2.225953    0.000080    0.000000
 ---------------------------------------------------------------------
                    Distance matrix (angstroms):
                    1          2          3          4
     1  B    0.000000
     2  B    2.106821   0.000000
     3  H    1.172542   3.279363   0.000000
     4  H    3.279363   1.172542   4.451906   0.000000
 Symmetry turned off by external request.
 Stoichiometry    B2H2(3)
 Framework group  C*V[C*(HBBH)]
 Deg. of freedom     3
 Full point group                 C*V     NOp   4
 Rotational constants (GHZ):           0.0000000          14.6823953          14.6823953
 Leave Link  202 at Mon Apr 21 17:25:16 2025, MaxMem=   536870912 cpu:               0.0 elap:               0.0
 (Enter /home/szhao/Apps/g16/l301.exe)
 Standard basis: 6-311+G(d,p) (5D, 7F)
 Ernie: Thresh=  0.10000D-02 Tol=  0.10000D-05 Strict=F.
    56 basis functions,    88 primitive gaussians,    58 cartesian basis functions
     7 alpha electrons        5 beta electrons
       nuclear repulsion energy        12.5249324467 Hartrees.
 IExCor= 4336 DFT=T Ex+Corr=M062X ExCW=0 ScaHFX=  0.540000
 ScaDFX=  1.000000  1.000000  1.000000  1.000000 ScalE2=  1.000000  1.000000
 IRadAn=      7 IRanWt=     -1 IRanGd=            0 ICorTp=0 IEmpDi=  4
 NAtoms=    4 NActive=    4 NUniq=    4 SFac= 1.00D+00 NAtFMM=   60 NAOKFM=F Big=F
 Integral buffers will be    131072 words long.
 Raffenetti 2 integral format.
 Two-electron integral symmetry is turned off.
 Leave Link  301 at Mon Apr 21 17:25:16 2025, MaxMem=   536870912 cpu:               0.5 elap:               0.1
 (Enter /home/szhao/Apps/g16/l302.exe)
 NPDir=0 NMtPBC=     1 NCelOv=     1 NCel=       1 NClECP=     1 NCelD=      1
         NCelK=      1 NCelE2=     1 NClLst=     1 CellRange=     0.0.
 One-electron integrals computed using PRISM.
 NBasis=    56 RedAO= T EigKep=  8.32D-04  NBF=    56
 NBsUse=    56 1.00D-06 EigRej= -1.00D+00 NBFU=    56
 Precomputing XC quadrature grid using
 IXCGrd= 4 IRadAn=           7 IRanWt=          -1 IRanGd=           0 AccXCQ= 0.00D+00.
 Generated NRdTot=       0 NPtTot=           0 NUsed=           0 NTot=          32
 NSgBfM=    58    58    58    58    58 MxSgAt=     4 MxSgA2=     4.
 Leave Link  302 at Mon Apr 21 17:25:16 2025, MaxMem=   536870912 cpu:               1.5 elap:               0.2
 (Enter /home/szhao/Apps/g16/l303.exe)
 DipDrv:  MaxL=1.
 Leave Link  303 at Mon Apr 21 17:25:16 2025, MaxMem=   536870912 cpu:               0.5 elap:               0.1
 (Enter /home/szhao/Apps/g16/l401.exe)
 ExpMin= 3.15D-02 ExpMax= 2.86D+03 ExpMxC= 4.28D+02 IAcc=3 IRadAn=         7 AccDes= 0.00D+00
 Harris functional with IExCor= 1009 and IRadAn=       7 diagonalized for initial guess.
 HarFok:  IExCor= 1009 AccDes= 0.00D+00 IRadAn=         7 IDoV= 1 UseB2=F ITyADJ=14
 ICtDFT=  3500011 ScaDFX=  1.000000  1.000000  1.000000  1.000000
 FoFCou: FMM=F IPFlag=           0 FMFlag=      100000 FMFlg1=           0
         NFxFlg=           0 DoJE=T BraDBF=F KetDBF=T FulRan=T
         wScrn=  0.000000 ICntrl=       500 IOpCl=  0 I1Cent=   200000004 NGrid=           0
         NMat0=    1 NMatS0=      1 NMatT0=    0 NMatD0=    1 NMtDS0=    0 NMtDT0=    0
 Symmetry not used in FoFCou.
 DSYEVD-2 returned Info=         113 IAlg= 4 N=    56 NDim=    56 NE2=     9586841 trying  DSYEV.
 Harris En= -50.5622604648543    
 JPrj=0 DoOrth=F DoCkMO=F.
 Initial guess <Sx>= 0.0000 <Sy>= 0.0000 <Sz>= 1.0000 <S**2>= 2.0000 S= 1.0000
 Leave Link  401 at Mon Apr 21 17:25:17 2025, MaxMem=   536870912 cpu:               2.7 elap:               0.3
 (Enter /home/szhao/Apps/g16/l502.exe)
 Keep R1 and R2 ints in memory in canonical form, NReq=9624198.
 FoFCou: FMM=F IPFlag=           0 FMFlag=           0 FMFlg1=           0
         NFxFlg=           0 DoJE=F BraDBF=F KetDBF=F FulRan=T
         wScrn=  0.000000 ICntrl=       600 IOpCl=  0 I1Cent=           0 NGrid=           0
         NMat0=    1 NMatS0=   1596 NMatT0=    0 NMatD0=    1 NMtDS0=    0 NMtDT0=    0
 Symmetry not used in FoFCou.
 Two-electron integral symmetry not used.
 UHF open shell SCF:
 Using DIIS extrapolation, IDIIS=  1040.
 NGot=   536870912 LenX=   534314338 LenY=   534310533
 Requested convergence on RMS density matrix=1.00D-08 within 128 cycles.
 Requested convergence on MAX density matrix=1.00D-06.
 Requested convergence on             energy=1.00D-06.
 No special actions if energy rises.

 Cycle   1  Pass 1  IDiag  1:
 E= -50.6302819308260    
 DIIS: error= 1.92D-02 at cycle   1 NSaved=   1.
 NSaved= 1 IEnMin= 1 EnMin= -50.6302819308260     IErMin= 1 ErrMin= 1.92D-02
 ErrMax= 1.92D-02  0.00D+00 EMaxC= 1.00D-01 BMatC= 4.48D-02 BMatP= 4.48D-02
 IDIUse=3 WtCom= 8.08D-01 WtEn= 1.92D-01
 Coeff-Com:  0.100D+01
 Coeff-En:   0.100D+01
 Coeff:      0.100D+01
 Gap=     0.200 Goal=   None    Shift=    0.000
 Gap=     0.341 Goal=   None    Shift=    0.000
 GapD=    0.200 DampG=1.000 DampE=0.500 DampFc=0.5000 IDamp=-1.
 Damping current iteration by 5.00D-01
 RMSDP=1.76D-03 MaxDP=3.15D-02              OVMax= 4.83D-02

 Cycle   2  Pass 1  IDiag  1:
 E= -50.6353378182118     Delta-E=       -0.005055887386 Rises=F Damp=T
 DIIS: error= 9.03D-03 at cycle   2 NSaved=   2.
 NSaved= 2 IEnMin= 2 EnMin= -50.6353378182118     IErMin= 2 ErrMin= 9.03D-03
 ErrMax= 9.03D-03  0.00D+00 EMaxC= 1.00D-01 BMatC= 1.04D-02 BMatP= 4.48D-02
 IDIUse=3 WtCom= 9.10D-01 WtEn= 9.03D-02
 Coeff-Com: -0.885D+00 0.188D+01
 Coeff-En:   0.000D+00 0.100D+01
 Coeff:     -0.805D+00 0.180D+01
 Gap=     0.196 Goal=   None    Shift=    0.000
 Gap=     0.322 Goal=   None    Shift=    0.000
 RMSDP=1.02D-03 MaxDP=1.41D-02 DE=-5.06D-03 OVMax= 1.44D-02

 Cycle   3  Pass 1  IDiag  1:
 E= -50.6404306783008     Delta-E=       -0.005092860089 Rises=F Damp=F
 DIIS: error= 9.51D-04 at cycle   3 NSaved=   3.
 NSaved= 3 IEnMin= 3 EnMin= -50.6404306783008     IErMin= 3 ErrMin= 9.51D-04
 ErrMax= 9.51D-04  0.00D+00 EMaxC= 1.00D-01 BMatC= 6.85D-05 BMatP= 1.04D-02
 IDIUse=3 WtCom= 9.90D-01 WtEn= 9.51D-03
 Coeff-Com:  0.437D-01-0.119D+00 0.108D+01
 Coeff-En:   0.000D+00 0.000D+00 0.100D+01
 Coeff:      0.433D-01-0.118D+00 0.107D+01
 Gap=     0.196 Goal=   None    Shift=    0.000
 Gap=     0.322 Goal=   None    Shift=    0.000
 RMSDP=1.23D-04 MaxDP=3.53D-03 DE=-5.09D-03 OVMax= 5.83D-03

 Cycle   4  Pass 1  IDiag  1:
 E= -50.6404808539656     Delta-E=       -0.000050175665 Rises=F Damp=F
 DIIS: error= 3.62D-04 at cycle   4 NSaved=   4.
 NSaved= 4 IEnMin= 4 EnMin= -50.6404808539656     IErMin= 4 ErrMin= 3.62D-04
 ErrMax= 3.62D-04  0.00D+00 EMaxC= 1.00D-01 BMatC= 9.09D-06 BMatP= 6.85D-05
 IDIUse=3 WtCom= 9.96D-01 WtEn= 3.62D-03
 Coeff-Com:  0.595D-01-0.125D+00-0.150D+00 0.122D+01
 Coeff-En:   0.000D+00 0.000D+00 0.000D+00 0.100D+01
 Coeff:      0.593D-01-0.124D+00-0.150D+00 0.121D+01
 Gap=     0.196 Goal=   None    Shift=    0.000
 Gap=     0.323 Goal=   None    Shift=    0.000
 RMSDP=5.72D-05 MaxDP=9.91D-04 DE=-5.02D-05 OVMax= 2.23D-03

 Cycle   5  Pass 1  IDiag  1:
 E= -50.6404884015665     Delta-E=       -0.000007547601 Rises=F Damp=F
 DIIS: error= 1.37D-04 at cycle   5 NSaved=   5.
 NSaved= 5 IEnMin= 5 EnMin= -50.6404884015665     IErMin= 5 ErrMin= 1.37D-04
 ErrMax= 1.37D-04  0.00D+00 EMaxC= 1.00D-01 BMatC= 7.81D-07 BMatP= 9.09D-06
 IDIUse=3 WtCom= 9.99D-01 WtEn= 1.37D-03
 Coeff-Com:  0.632D-04 0.294D-02-0.886D-01 0.614D-01 0.102D+01
 Coeff-En:   0.000D+00 0.000D+00 0.000D+00 0.000D+00 0.100D+01
 Coeff:      0.632D-04 0.294D-02-0.885D-01 0.613D-01 0.102D+01
 Gap=     0.196 Goal=   None    Shift=    0.000
 Gap=     0.323 Goal=   None    Shift=    0.000
 RMSDP=1.42D-05 MaxDP=3.61D-04 DE=-7.55D-06 OVMax= 5.48D-04

 Cycle   6  Pass 1  IDiag  1:
 E= -50.6404888696580     Delta-E=       -0.000000468091 Rises=F Damp=F
 DIIS: error= 2.94D-05 at cycle   6 NSaved=   6.
 NSaved= 6 IEnMin= 6 EnMin= -50.6404888696580     IErMin= 6 ErrMin= 2.94D-05
 ErrMax= 2.94D-05  0.00D+00 EMaxC= 1.00D-01 BMatC= 4.82D-08 BMatP= 7.81D-07
 IDIUse=1 WtCom= 1.00D+00 WtEn= 0.00D+00
 Coeff-Com: -0.400D-02 0.841D-02 0.218D-01-0.110D+00-0.569D-01 0.114D+01
 Coeff:     -0.400D-02 0.841D-02 0.218D-01-0.110D+00-0.569D-01 0.114D+01
 Gap=     0.196 Goal=   None    Shift=    0.000
 Gap=     0.323 Goal=   None    Shift=    0.000
 RMSDP=3.77D-06 MaxDP=6.49D-05 DE=-4.68D-07 OVMax= 1.20D-04

 Cycle   7  Pass 1  IDiag  1:
 E= -50.6404889014153     Delta-E=       -0.000000031757 Rises=F Damp=F
 DIIS: error= 6.50D-06 at cycle   7 NSaved=   7.
 NSaved= 7 IEnMin= 7 EnMin= -50.6404889014153     IErMin= 7 ErrMin= 6.50D-06
 ErrMax= 6.50D-06  0.00D+00 EMaxC= 1.00D-01 BMatC= 1.09D-09 BMatP= 4.82D-08
 IDIUse=1 WtCom= 1.00D+00 WtEn= 0.00D+00
 Coeff-Com:  0.394D-03-0.897D-03 0.452D-03 0.106D-01-0.391D-01-0.101D+00
 Coeff-Com:  0.113D+01
 Coeff:      0.394D-03-0.897D-03 0.452D-03 0.106D-01-0.391D-01-0.101D+00
 Coeff:      0.113D+01
 Gap=     0.196 Goal=   None    Shift=    0.000
 Gap=     0.323 Goal=   None    Shift=    0.000
 RMSDP=4.93D-07 MaxDP=6.78D-06 DE=-3.18D-08 OVMax= 2.52D-05

 Cycle   8  Pass 1  IDiag  1:
 E= -50.6404889021287     Delta-E=       -0.000000000713 Rises=F Damp=F
 DIIS: error= 4.87D-07 at cycle   8 NSaved=   8.
 NSaved= 8 IEnMin= 8 EnMin= -50.6404889021287     IErMin= 8 ErrMin= 4.87D-07
 ErrMax= 4.87D-07  0.00D+00 EMaxC= 1.00D-01 BMatC= 1.20D-11 BMatP= 1.09D-09
 IDIUse=1 WtCom= 1.00D+00 WtEn= 0.00D+00
 Coeff-Com: -0.171D-04 0.476D-04-0.253D-03-0.565D-03 0.752D-02-0.108D-02
 Coeff-Com: -0.189D+00 0.118D+01
 Coeff:     -0.171D-04 0.476D-04-0.253D-03-0.565D-03 0.752D-02-0.108D-02
 Coeff:     -0.189D+00 0.118D+01
 Gap=     0.196 Goal=   None    Shift=    0.000
 Gap=     0.323 Goal=   None    Shift=    0.000
 RMSDP=7.20D-08 MaxDP=7.40D-07 DE=-7.13D-10 OVMax= 3.08D-06

 Cycle   9  Pass 1  IDiag  1:
 E= -50.6404889021386     Delta-E=       -0.000000000010 Rises=F Damp=F
 DIIS: error= 3.81D-08 at cycle   9 NSaved=   9.
 NSaved= 9 IEnMin= 9 EnMin= -50.6404889021386     IErMin= 9 ErrMin= 3.81D-08
 ErrMax= 3.81D-08  0.00D+00 EMaxC= 1.00D-01 BMatC= 1.59D-13 BMatP= 1.20D-11
 IDIUse=1 WtCom= 1.00D+00 WtEn= 0.00D+00
 Coeff-Com: -0.581D-05 0.106D-04 0.298D-05-0.225D-04-0.502D-03 0.527D-03
 Coeff-Com:  0.159D-01-0.184D+00 0.117D+01
 Coeff:     -0.581D-05 0.106D-04 0.298D-05-0.225D-04-0.502D-03 0.527D-03
 Coeff:      0.159D-01-0.184D+00 0.117D+01
 Gap=     0.196 Goal=   None    Shift=    0.000
 Gap=     0.323 Goal=   None    Shift=    0.000
 RMSDP=9.15D-09 MaxDP=1.15D-07 DE=-9.93D-12 OVMax= 2.63D-07

 SCF Done:  E(UM062X) =  -50.6404889021     A.U. after    9 cycles
            NFock=  9  Conv=0.91D-08     -V/T= 2.0151
 <Sx>= 0.0000 <Sy>= 0.0000 <Sz>= 1.0000 <S**2>= 2.0082 S= 1.0027
 <L.S>=  0.00000000000    
 KE= 4.988749418321D+01 PE=-1.408267449452D+02 EE= 2.777382941316D+01
 Annihilation of the first spin contaminant:
 S**2 before annihilation     2.0082,   after     2.0000
 Leave Link  502 at Mon Apr 21 17:25:23 2025, MaxMem=   536870912 cpu:              45.5 elap:               5.8
 (Enter /home/szhao/Apps/g16/l601.exe)
 Copying SCF densities to generalized density rwf, IOpCl= 1 IROHF=0.

 **********************************************************************

            Population analysis using the SCF density.

 **********************************************************************

 Alpha  occ. eigenvalues --   -7.13323  -7.13302  -0.58735  -0.55170  -0.40697
 Alpha  occ. eigenvalues --   -0.23648  -0.23648
 Alpha virt. eigenvalues --   -0.04060  -0.04060   0.00112   0.02492   0.03283
 Alpha virt. eigenvalues --    0.06215   0.06215   0.07403   0.07764   0.07764
 Alpha virt. eigenvalues --    0.13638   0.22034   0.25982   0.37683   0.39366
 Alpha virt. eigenvalues --    0.39366   0.42439   0.42439   0.46009   0.46321
 Alpha virt. eigenvalues --    0.58601   0.60834   0.68523   0.68523   0.71730
 Alpha virt. eigenvalues --    0.78427   0.78427   0.87953   0.87954   1.01198
 Alpha virt. eigenvalues --    1.01198   1.13032   1.43537   1.58406   1.58406
 Alpha virt. eigenvalues --    1.80230   1.80230   1.83466   1.83466   1.83510
 Alpha virt. eigenvalues --    1.83510   1.86955   2.18857   2.44805   2.59563
 Alpha virt. eigenvalues --    2.61509   2.64508  14.18202  14.42656
  Beta  occ. eigenvalues --   -7.13070  -7.13056  -0.54817  -0.53255  -0.38751
  Beta virt. eigenvalues --   -0.06448  -0.06448   0.00316   0.00316   0.00767
  Beta virt. eigenvalues --    0.02894   0.05323   0.05421   0.08993   0.08993
  Beta virt. eigenvalues --    0.11951   0.11951   0.13588   0.23133   0.28817
  Beta virt. eigenvalues --    0.37123   0.40491   0.40491   0.40520   0.40520
  Beta virt. eigenvalues --    0.45164   0.46702   0.61462   0.63660   0.70265
  Beta virt. eigenvalues --    0.81672   0.81672   0.85035   0.85035   0.93633
  Beta virt. eigenvalues --    0.93633   1.05631   1.05631   1.19776   1.64238
  Beta virt. eigenvalues --    1.64238   1.67696   1.83749   1.83749   1.86111
  Beta virt. eigenvalues --    1.86111   1.86343   1.86343   1.93205   2.24612
  Beta virt. eigenvalues --    2.49254   2.61982   2.65904   2.89054  14.20137
  Beta virt. eigenvalues --   14.48105
          Condensed to atoms (all electrons):
               1          2          3          4
     1  B    4.114564   0.605228   0.386966  -0.001761
     2  B    0.605228   4.114564  -0.001761   0.386966
     3  H    0.386966  -0.001761   0.509557   0.000243
     4  H   -0.001761   0.386966   0.000243   0.509557
          Atomic-Atomic Spin Densities.
               1          2          3          4
     1  B    0.848627   0.198817  -0.013497   0.001535
     2  B    0.198817   0.848627   0.001535  -0.013497
     3  H   -0.013497   0.001535  -0.023578   0.000058
     4  H    0.001535  -0.013497   0.000058  -0.023578
 Mulliken charges and spin densities:
               1          2
     1  B   -0.104996   1.035482
     2  B   -0.104996   1.035482
     3  H    0.104996  -0.035482
     4  H    0.104996  -0.035482
 Sum of Mulliken charges =  -0.00000   2.00000
 Mulliken charges and spin densities with hydrogens summed into heavy atoms:
               1          2
     1  B    0.000000   1.000000
     2  B   -0.000000   1.000000
 Electronic spatial extent (au):  <R**2>=            106.8638
 Charge=             -0.0000 electrons
 Dipole moment (field-independent basis, Debye):
    X=             -0.0000    Y=              0.0000    Z=              0.0000  Tot=              0.0000
 Quadrupole moment (field-independent basis, Debye-Ang):
   XX=            -10.9868   YY=            -15.9252   ZZ=            -15.9252
   XY=              0.0002   XZ=              0.0000   YZ=              0.0000
 Traceless Quadrupole moment (field-independent basis, Debye-Ang):
   XX=              3.2922   YY=             -1.6461   ZZ=             -1.6461
   XY=              0.0002   XZ=              0.0000   YZ=              0.0000
 Octapole moment (field-independent basis, Debye-Ang**2):
  XXX=             -0.0000  YYY=              0.0000  ZZZ=              0.0000  XYY=             -0.0000
  XXY=              0.0000  XXZ=             -0.0000  XZZ=             -0.0000  YZZ=              0.0000
  YYZ=              0.0000  XYZ=             -0.0000
 Hexadecapole moment (field-independent basis, Debye-Ang**3):
 XXXX=           -132.3938 YYYY=            -29.3625 ZZZZ=            -29.3625 XXXY=              0.0000
 XXXZ=             -0.0000 YYYX=             -0.0006 YYYZ=              0.0000 ZZZX=              0.0000
 ZZZY=              0.0000 XXYY=            -30.7813 XXZZ=            -30.7813 YYZZ=             -9.7875
 XXYZ=              0.0000 YYXZ=              0.0000 ZZXY=             -0.0002
 N-N= 1.252493244667D+01 E-N=-1.408267451079D+02  KE= 4.988749418321D+01
                          Isotropic Fermi Contact Couplings
        Atom                 a.u.       MegaHertz       Gauss      10(-4) cm-1
     1  B(11)              0.12530      89.86064      32.06451      29.97428
     2  B(11)              0.12530      89.86064      32.06451      29.97428
     3  H(1)              -0.01636     -36.56658     -13.04787     -12.19730
     4  H(1)              -0.01636     -36.56658     -13.04787     -12.19730
 --------------------------------------------------------
       Center         ----  Spin Dipole Couplings  ----
                      3XX-RR        3YY-RR        3ZZ-RR
 --------------------------------------------------------
     1   Atom       -0.245993      0.122997      0.122997
     2   Atom       -0.245993      0.122997      0.122997
     3   Atom        0.047311     -0.023656     -0.023656
     4   Atom        0.047311     -0.023656     -0.023656
 --------------------------------------------------------
                        XY            XZ            YZ
 --------------------------------------------------------
     1   Atom        0.000009      0.000000     -0.000000
     2   Atom        0.000009      0.000000     -0.000000
     3   Atom        0.000005     -0.000000     -0.000000
     4   Atom        0.000005     -0.000000     -0.000000
 --------------------------------------------------------


 ---------------------------------------------------------------------------------
              Anisotropic Spin Dipole Couplings in Principal Axis System
 ---------------------------------------------------------------------------------

       Atom             a.u.   MegaHertz   Gauss  10(-4) cm-1        Axes

              Baa    -0.2460   -42.118   -15.029   -14.049  1.0000 -0.0000 -0.0000
     1 B(11)  Bbb     0.1230    21.059     7.514     7.024  0.0000  1.0000  0.0000
              Bcc     0.1230    21.059     7.514     7.024 -0.0000 -0.0000  1.0000
 
              Baa    -0.2460   -42.118   -15.029   -14.049  1.0000 -0.0000 -0.0000
     2 B(11)  Bbb     0.1230    21.059     7.514     7.024  0.0000  1.0000  0.0000
              Bcc     0.1230    21.059     7.514     7.024 -0.0000 -0.0000  1.0000
 
              Baa    -0.0237   -12.621    -4.504    -4.210 -0.0001  1.0000  0.0000
     3 H(1)   Bbb    -0.0237   -12.621    -4.504    -4.210  0.0000 -0.0000  1.0000
              Bcc     0.0473    25.243     9.007     8.420  1.0000  0.0001 -0.0000
 
              Baa    -0.0237   -12.621    -4.504    -4.210 -0.0001  1.0000  0.0000
     4 H(1)   Bbb    -0.0237   -12.621    -4.504    -4.210  0.0000 -0.0000  1.0000
              Bcc     0.0473    25.243     9.007     8.420  1.0000  0.0001 -0.0000
 

 ---------------------------------------------------------------------------------

 No NMR shielding tensors so no spin-rotation constants.
 Leave Link  601 at Mon Apr 21 17:25:23 2025, MaxMem=   536870912 cpu:               1.9 elap:               0.3
 (Enter /home/szhao/Apps/g16/l701.exe)
 ... and contract with generalized density number  0.
 Compute integral first derivatives.
 Leave Link  701 at Mon Apr 21 17:25:23 2025, MaxMem=   536870912 cpu:               1.4 elap:               0.2
 (Enter /home/szhao/Apps/g16/l702.exe)
 L702 exits ... SP integral derivatives will be done elsewhere.
 Leave Link  702 at Mon Apr 21 17:25:23 2025, MaxMem=   536870912 cpu:               0.4 elap:               0.1
 (Enter /home/szhao/Apps/g16/l703.exe)
 Integral derivatives from FoFJK, PRISM(SPDF).
 Compute integral first derivatives, UseDBF=F ICtDFT=           0.
 Calling FoFJK, ICntrl=      2127 FMM=F ISym2X=0 I1Cent= 0 IOpClX= 1 NMat=1 NMatS=1 NMatT=0.
 FoFJK:  IHMeth= 1 ICntrl=    2127 DoSepK=F KAlg= 0 I1Cent=           0 FoldK=F
 IRaf=         0 NMat=       1 IRICut=       1 DoRegI=T DoRafI=F ISym2E= 0 IDoP0=0 IntGTp=1.
 FoFCou: FMM=F IPFlag=           0 FMFlag=      100000 FMFlg1=         800
         NFxFlg=           0 DoJE=F BraDBF=F KetDBF=F FulRan=T
         wScrn=  0.000000 ICntrl=      2127 IOpCl=  1 I1Cent=           0 NGrid=           0
         NMat0=    1 NMatS0=      1 NMatT0=    0 NMatD0=    1 NMtDS0=    0 NMtDT0=    0
 Symmetry not used in FoFCou.
 Leave Link  703 at Mon Apr 21 17:25:24 2025, MaxMem=   536870912 cpu:              10.2 elap:               1.3
 (Enter /home/szhao/Apps/g16/l716.exe)
 Dipole        =-1.66089364D-13 3.97986223D-15 2.06153838D-15
 -------------------------------------------------------------------
 Center     Atomic                   Forces (Hartrees/Bohr)
 Number     Number              X              Y              Z
 -------------------------------------------------------------------
      1        5          -0.000000000   -0.000000000   -0.000000000
      2        5          -0.000000000   -0.000000000   -0.000000000
      3        1          -0.001578423   -0.000001623   -0.000000000
      4        1           0.001578423    0.000001623    0.000000000
 -------------------------------------------------------------------
 Cartesian Forces:  Max     0.001578423 RMS     0.000644389
 Leave Link  716 at Mon Apr 21 17:25:25 2025, MaxMem=   536870912 cpu:               0.4 elap:               0.1
 (Enter /home/szhao/Apps/g16/l103.exe)

 GradGradGradGradGradGradGradGradGradGradGradGradGradGradGradGradGradGrad
 Berny optimization.
 FormGI is forming the generalized inverse of G from B-inverse, IUseBI=4.
 Internal  Forces:  Max     0.001578423 RMS     0.000911303
 Search for a local minimum.
 Step number   1 out of a maximum of   22
 All quantities printed in internal units (Hartrees-Bohrs-Radians)
 RMS Force = .91130D-03 SwitMx=.10000D-02 MixMth= 2
 Mixed Optimization -- En-DIIS/RFO-DIIS
 Second derivative matrix not updated -- first step.
 The second derivative matrix:
                          X1        Y1        Z1        X2        Y2
           X1           0.50000
           Y1           0.00000   0.50000
           Z1           0.00000   0.00000   0.50000
           X2           0.00000   0.00000   0.00000   0.50000
           Y2           0.00000   0.00000   0.00000   0.00000   0.50000
           Z2           0.00000   0.00000   0.00000   0.00000   0.00000
           R1           0.00000   0.00000   0.00000   0.00000   0.00000
           R2           0.00000   0.00000   0.00000   0.00000   0.00000
           A1           0.00000   0.00000   0.00000   0.00000   0.00000
           A2           0.00000   0.00000   0.00000   0.00000   0.00000
           A3           0.00000   0.00000   0.00000   0.00000   0.00000
           A4           0.00000   0.00000   0.00000   0.00000   0.00000
                          Z2        R1        R2        A1        A2
           Z2           0.50000
           R1           0.00000   0.26783
           R2           0.00000   0.00000   0.26783
           A1           0.00000   0.00000   0.00000   0.00230
           A2           0.00000   0.00000   0.00000   0.00000   0.00230
           A3           0.00000   0.00000   0.00000   0.00000   0.00000
           A4           0.00000   0.00000   0.00000   0.00000   0.00000
                          A3        A4
           A3           0.00230
           A4           0.00000   0.00230
 ITU=  0
     Eigenvalues ---    0.00230   0.00230   0.00230   0.26783   0.26783
     Eigenvalues --- 1000.000001000.000001000.000001000.000001000.00000
     Eigenvalues --- 1000.000001000.00000
 RFO step:  Lambda=-1.86043458D-05 EMin= 2.30000000D-03
 Linear search not attempted -- first point.
 Iteration  1 RMS(Cart)=  0.00240578 RMS(Int)=  0.00000000
 Iteration  2 RMS(Cart)=  0.00000000 RMS(Int)=  0.00000000
 ITry= 1 IFail=0 DXMaxC= 5.89D-03 DCOld= 1.00D+10 DXMaxT= 3.00D-01 DXLimC= 3.00D+00 Rises=F
 Variable       Old X    -DE/DX   Delta X   Delta X   Delta X     New X
                                 (Linear)    (Quad)   (Total)
    X1       -1.99066  -0.00158   0.00000   0.00000   0.00000  -1.99066
    Y1        0.00000   0.00000   0.00000   0.00000   0.00000   0.00000
    Z1        0.00000  -0.00000   0.00000   0.00000   0.00000   0.00000
    X2        1.99066   0.00158   0.00000   0.00000   0.00000   1.99066
    Y2        0.00000  -0.00000   0.00000   0.00000   0.00000   0.00000
    Z2        0.00000   0.00000   0.00000   0.00000   0.00000   0.00000
    R1        2.21578   0.00158   0.00000   0.00589   0.00589   2.22168
    R2        2.21578   0.00158   0.00000   0.00589   0.00589   2.22168
    A1        3.14152  -0.00000   0.00000   0.00000   0.00000   3.14152
    A2        3.14152  -0.00000   0.00000   0.00000   0.00000   3.14152
    A3        3.14159   0.00000   0.00000   0.00000   0.00000   3.14159
    A4        3.14159   0.00000   0.00000   0.00000   0.00000   3.14159
         Item               Value     Threshold  Converged?
 Maximum Force            0.001578     0.000450     NO 
 RMS     Force            0.000911     0.000300     NO 
 Maximum Displacement     0.005893     0.001800     NO 
 RMS     Displacement     0.002406     0.001200     NO 
 Predicted change in Energy=-9.302173D-06
 Lowest energy point so far.  Saving SCF results.
 GradGradGradGradGradGradGradGradGradGradGradGradGradGradGradGradGradGrad

 Leave Link  103 at Mon Apr 21 17:25:25 2025, MaxMem=   536870912 cpu:               0.1 elap:               0.0
 (Enter /home/szhao/Apps/g16/l202.exe)
                          Input orientation:                          
 ---------------------------------------------------------------------
 Center     Atomic      Atomic             Coordinates (Angstroms)
 Number     Number       Type             X           Y           Z
 ---------------------------------------------------------------------
      1          5           0       -1.053410    0.000000    0.000000
      2          5           0        1.053410    0.000000    0.000000
      3          1           0       -2.229071   -0.000080   -0.000000
      4          1           0        2.229071    0.000080    0.000000
 ---------------------------------------------------------------------
                    Distance matrix (angstroms):
                    1          2          3          4
     1  B    0.000000
     2  B    2.106821   0.000000
     3  H    1.175661   3.282482   0.000000
     4  H    3.282482   1.175661   4.458142   0.000000
 Symmetry turned off by external request.
 Stoichiometry    B2H2(3)
 Framework group  C*V[C*(HBBH)]
 Deg. of freedom     3
 Full point group                 C*V     NOp   4
 Rotational constants (GHZ):           0.0000000          14.6704603          14.6704603
 Leave Link  202 at Mon Apr 21 17:25:25 2025, MaxMem=   536870912 cpu:               0.0 elap:               0.0
 (Enter /home/szhao/Apps/g16/l301.exe)
 Standard basis: 6-311+G(d,p) (5D, 7F)
 Ernie: Thresh=  0.10000D-02 Tol=  0.10000D-05 Strict=F.
    56 basis functions,    88 primitive gaussians,    58 cartesian basis functions
     7 alpha electrons        5 beta electrons
       nuclear repulsion energy        12.5112623785 Hartrees.
 IExCor= 4336 DFT=T Ex+Corr=M062X ExCW=0 ScaHFX=  0.540000
 ScaDFX=  1.000000  1.000000  1.000000  1.000000 ScalE2=  1.000000  1.000000
 IRadAn=      7 IRanWt=     -1 IRanGd=            0 ICorTp=0 IEmpDi=  4
 NAtoms=    4 NActive=    4 NUniq=    4 SFac= 1.00D+00 NAtFMM=   60 NAOKFM=F Big=F
 Integral buffers will be    131072 words long.
 Raffenetti 2 integral format.
 Two-electron integral symmetry is turned off.
 Leave Link  301 at Mon Apr 21 17:25:25 2025, MaxMem=   536870912 cpu:               0.4 elap:               0.1
 (Enter /home/szhao/Apps/g16/l302.exe)
 NPDir=0 NMtPBC=     1 NCelOv=     1 NCel=       1 NClECP=     1 NCelD=      1
         NCelK=      1 NCelE2=     1 NClLst=     1 CellRange=     0.0.
 One-electron integrals computed using PRISM.
 NBasis=    56 RedAO= T EigKep=  8.32D-04  NBF=    56
 NBsUse=    56 1.00D-06 EigRej= -1.00D+00 NBFU=    56
 Precomputing XC quadrature grid using
 IXCGrd= 4 IRadAn=           7 IRanWt=          -1 IRanGd=           0 AccXCQ= 0.00D+00.
 Generated NRdTot=       0 NPtTot=           0 NUsed=           0 NTot=          32
 NSgBfM=    58    58    58    58    58 MxSgAt=     4 MxSgA2=     4.
 Leave Link  302 at Mon Apr 21 17:25:25 2025, MaxMem=   536870912 cpu:               1.5 elap:               0.2
 (Enter /home/szhao/Apps/g16/l303.exe)
 DipDrv:  MaxL=1.
 Leave Link  303 at Mon Apr 21 17:25:25 2025, MaxMem=   536870912 cpu:               0.5 elap:               0.1
 (Enter /home/szhao/Apps/g16/l401.exe)
 Initial guess from the checkpoint file:  "opt.chk"
 B after Tr=     0.000000   -0.000000    0.000000
         Rot=    1.000000   -0.000000    0.000000   -0.000000 Ang=  -0.00 deg.
 Guess basis will be translated and rotated to current coordinates.
 JPrj=2 DoOrth=T DoCkMO=T.
 Initial guess <Sx>= 0.0000 <Sy>= 0.0000 <Sz>= 1.0000 <S**2>= 2.0082 S= 1.0027
 Leave Link  401 at Mon Apr 21 17:25:25 2025, MaxMem=   536870912 cpu:               0.9 elap:               0.1
 (Enter /home/szhao/Apps/g16/l502.exe)
 Keep R1 and R2 ints in memory in canonical form, NReq=9624198.
 FoFCou: FMM=F IPFlag=           0 FMFlag=           0 FMFlg1=           0
         NFxFlg=           0 DoJE=F BraDBF=F KetDBF=F FulRan=T
         wScrn=  0.000000 ICntrl=       600 IOpCl=  0 I1Cent=           0 NGrid=           0
         NMat0=    1 NMatS0=   1596 NMatT0=    0 NMatD0=    1 NMtDS0=    0 NMtDT0=    0
 Symmetry not used in FoFCou.
 Two-electron integral symmetry not used.
 UHF open shell SCF:
 Using DIIS extrapolation, IDIIS=  1040.
 NGot=   536870912 LenX=   534314338 LenY=   534310533
 Requested convergence on RMS density matrix=1.00D-08 within 128 cycles.
 Requested convergence on MAX density matrix=1.00D-06.
 Requested convergence on             energy=1.00D-06.
 No special actions if energy rises.

 Cycle   1  Pass 1  IDiag  1:
 E= -50.6404956876720    
 DIIS: error= 3.07D-04 at cycle   1 NSaved=   1.
 NSaved= 1 IEnMin= 1 EnMin= -50.6404956876720     IErMin= 1 ErrMin= 3.07D-04
 ErrMax= 3.07D-04  0.00D+00 EMaxC= 1.00D-01 BMatC= 8.47D-06 BMatP= 8.47D-06
 IDIUse=3 WtCom= 9.97D-01 WtEn= 3.07D-03
 Coeff-Com:  0.100D+01
 Coeff-En:   0.100D+01
 Coeff:      0.100D+01
 Gap=     0.440 Goal=   None    Shift=    0.000
 Gap=     0.538 Goal=   None    Shift=    0.000
 RMSDP=2.13D-05 MaxDP=1.89D-04              OVMax= 7.74D-04

 Cycle   2  Pass 1  IDiag  1:
 E= -50.6404978701631     Delta-E=       -0.000002182491 Rises=F Damp=F
 DIIS: error= 3.22D-05 at cycle   2 NSaved=   2.
 NSaved= 2 IEnMin= 2 EnMin= -50.6404978701631     IErMin= 2 ErrMin= 3.22D-05
 ErrMax= 3.22D-05  0.00D+00 EMaxC= 1.00D-01 BMatC= 1.56D-07 BMatP= 8.47D-06
 IDIUse=1 WtCom= 1.00D+00 WtEn= 0.00D+00
 Coeff-Com:  0.495D-01 0.950D+00
 Coeff:      0.495D-01 0.950D+00
 Gap=     0.196 Goal=   None    Shift=    0.000
 Gap=     0.323 Goal=   None    Shift=    0.000
 RMSDP=5.18D-06 MaxDP=8.49D-05 DE=-2.18D-06 OVMax= 1.29D-04

 Cycle   3  Pass 1  IDiag  1:
 E= -50.6404979211583     Delta-E=       -0.000000050995 Rises=F Damp=F
 DIIS: error= 7.96D-06 at cycle   3 NSaved=   3.
 NSaved= 3 IEnMin= 3 EnMin= -50.6404979211583     IErMin= 3 ErrMin= 7.96D-06
 ErrMax= 7.96D-06  0.00D+00 EMaxC= 1.00D-01 BMatC= 4.06D-09 BMatP= 1.56D-07
 IDIUse=1 WtCom= 1.00D+00 WtEn= 0.00D+00
 Coeff-Com: -0.832D-02 0.375D-01 0.971D+00
 Coeff:     -0.832D-02 0.375D-01 0.971D+00
 Gap=     0.196 Goal=   None    Shift=    0.000
 Gap=     0.323 Goal=   None    Shift=    0.000
 RMSDP=9.08D-07 MaxDP=1.20D-05 DE=-5.10D-08 OVMax= 2.33D-05

 Cycle   4  Pass 1  IDiag  1:
 E= -50.6404979232193     Delta-E=       -0.000000002061 Rises=F Damp=F
 DIIS: error= 1.95D-06 at cycle   4 NSaved=   4.
 NSaved= 4 IEnMin= 4 EnMin= -50.6404979232193     IErMin= 4 ErrMin= 1.95D-06
 ErrMax= 1.95D-06  0.00D+00 EMaxC= 1.00D-01 BMatC= 2.04D-10 BMatP= 4.06D-09
 IDIUse=1 WtCom= 1.00D+00 WtEn= 0.00D+00
 Coeff-Com: -0.893D-03-0.207D-01 0.253D-01 0.996D+00
 Coeff:     -0.893D-03-0.207D-01 0.253D-01 0.996D+00
 Gap=     0.196 Goal=   None    Shift=    0.000
 Gap=     0.323 Goal=   None    Shift=    0.000
 RMSDP=2.08D-07 MaxDP=3.84D-06 DE=-2.06D-09 OVMax= 9.62D-06

 Cycle   5  Pass 1  IDiag  1:
 E= -50.6404979233557     Delta-E=       -0.000000000136 Rises=F Damp=F
 DIIS: error= 7.75D-07 at cycle   5 NSaved=   5.
 NSaved= 5 IEnMin= 5 EnMin= -50.6404979233557     IErMin= 5 ErrMin= 7.75D-07
 ErrMax= 7.75D-07  0.00D+00 EMaxC= 1.00D-01 BMatC= 2.44D-11 BMatP= 2.04D-10
 IDIUse=1 WtCom= 1.00D+00 WtEn= 0.00D+00
 Coeff-Com:  0.644D-03-0.527D-02-0.649D-01 0.753D-01 0.994D+00
 Coeff:      0.644D-03-0.527D-02-0.649D-01 0.753D-01 0.994D+00
 Gap=     0.196 Goal=   None    Shift=    0.000
 Gap=     0.323 Goal=   None    Shift=    0.000
 RMSDP=7.39D-08 MaxDP=1.35D-06 DE=-1.36D-10 OVMax= 2.56D-06

 Cycle   6  Pass 1  IDiag  1:
 E= -50.6404979233686     Delta-E=       -0.000000000013 Rises=F Damp=F
 DIIS: error= 1.55D-07 at cycle   6 NSaved=   6.
 NSaved= 6 IEnMin= 6 EnMin= -50.6404979233686     IErMin= 6 ErrMin= 1.55D-07
 ErrMax= 1.55D-07  0.00D+00 EMaxC= 1.00D-01 BMatC= 1.17D-12 BMatP= 2.44D-11
 IDIUse=1 WtCom= 1.00D+00 WtEn= 0.00D+00
 Coeff-Com: -0.253D-04 0.230D-02 0.842D-02-0.728D-01-0.855D-01 0.115D+01
 Coeff:     -0.253D-04 0.230D-02 0.842D-02-0.728D-01-0.855D-01 0.115D+01
 Gap=     0.196 Goal=   None    Shift=    0.000
 Gap=     0.323 Goal=   None    Shift=    0.000
 RMSDP=1.90D-08 MaxDP=2.36D-07 DE=-1.29D-11 OVMax= 4.90D-07

 Cycle   7  Pass 1  IDiag  1:
 E= -50.6404979233695     Delta-E=       -0.000000000001 Rises=F Damp=F
 DIIS: error= 4.00D-08 at cycle   7 NSaved=   7.
 NSaved= 7 IEnMin= 7 EnMin= -50.6404979233695     IErMin= 7 ErrMin= 4.00D-08
 ErrMax= 4.00D-08  0.00D+00 EMaxC= 1.00D-01 BMatC= 7.54D-14 BMatP= 1.17D-12
 IDIUse=1 WtCom= 1.00D+00 WtEn= 0.00D+00
 Coeff-Com: -0.315D-04-0.174D-04 0.182D-02 0.854D-02-0.492D-01-0.253D+00
 Coeff-Com:  0.129D+01
 Coeff:     -0.315D-04-0.174D-04 0.182D-02 0.854D-02-0.492D-01-0.253D+00
 Coeff:      0.129D+01
 Gap=     0.196 Goal=   None    Shift=    0.000
 Gap=     0.323 Goal=   None    Shift=    0.000
 RMSDP=6.33D-09 MaxDP=1.28D-07 DE=-8.67D-13 OVMax= 2.19D-07

 SCF Done:  E(UM062X) =  -50.6404979234     A.U. after    7 cycles
            NFock=  7  Conv=0.63D-08     -V/T= 2.0152
 <Sx>= 0.0000 <Sy>= 0.0000 <Sz>= 1.0000 <S**2>= 2.0082 S= 1.0027
 <L.S>=  0.00000000000    
 KE= 4.988067312153D+01 PE=-1.407947621238D+02 EE= 2.776232870035D+01
 Annihilation of the first spin contaminant:
 S**2 before annihilation     2.0082,   after     2.0000
 Leave Link  502 at Mon Apr 21 17:25:30 2025, MaxMem=   536870912 cpu:              34.5 elap:               4.4
 (Enter /home/szhao/Apps/g16/l701.exe)
 ... and contract with generalized density number  0.
 Compute integral first derivatives.
 Leave Link  701 at Mon Apr 21 17:25:30 2025, MaxMem=   536870912 cpu:               1.1 elap:               0.2
 (Enter /home/szhao/Apps/g16/l702.exe)
 L702 exits ... SP integral derivatives will be done elsewhere.
 Leave Link  702 at Mon Apr 21 17:25:30 2025, MaxMem=   536870912 cpu:               0.4 elap:               0.1
 (Enter /home/szhao/Apps/g16/l703.exe)
 Integral derivatives from FoFJK, PRISM(SPDF).
 Compute integral first derivatives, UseDBF=F ICtDFT=           0.
 Calling FoFJK, ICntrl=      2127 FMM=F ISym2X=0 I1Cent= 0 IOpClX= 1 NMat=1 NMatS=1 NMatT=0.
 FoFJK:  IHMeth= 1 ICntrl=    2127 DoSepK=F KAlg= 0 I1Cent=           0 FoldK=F
 IRaf=         0 NMat=       1 IRICut=       1 DoRegI=T DoRafI=F ISym2E= 0 IDoP0=0 IntGTp=1.
 FoFCou: FMM=F IPFlag=           0 FMFlag=      100000 FMFlg1=         800
         NFxFlg=           0 DoJE=F BraDBF=F KetDBF=F FulRan=T
         wScrn=  0.000000 ICntrl=      2127 IOpCl=  1 I1Cent=           0 NGrid=           0
         NMat0=    1 NMatS0=      1 NMatT0=    0 NMatD0=    1 NMtDS0=    0 NMtDT0=    0
 Symmetry not used in FoFCou.
 Leave Link  703 at Mon Apr 21 17:25:31 2025, MaxMem=   536870912 cpu:              10.8 elap:               1.4
 (Enter /home/szhao/Apps/g16/l716.exe)
 Dipole        = 1.35838008D-11-1.14761689D-13-7.61452330D-13
 -------------------------------------------------------------------
 Center     Atomic                   Forces (Hartrees/Bohr)
 Number     Number              X              Y              Z
 -------------------------------------------------------------------
      1        5          -0.000000000   -0.000000000   -0.000000000
      2        5          -0.000000000   -0.000000000   -0.000000000
      3        1           0.000043419   -0.000001519   -0.000000000
      4        1          -0.000043419    0.000001519    0.000000000
 -------------------------------------------------------------------
 Cartesian Forces:  Max     0.000043419 RMS     0.000017736
 Leave Link  716 at Mon Apr 21 17:25:31 2025, MaxMem=   536870912 cpu:               0.4 elap:               0.1
 (Enter /home/szhao/Apps/g16/l103.exe)

 GradGradGradGradGradGradGradGradGradGradGradGradGradGradGradGradGradGrad
 Berny optimization.
 Using GEDIIS/GDIIS optimizer.
 FormGI is forming the generalized inverse of G from B-inverse, IUseBI=4.
 Internal  Forces:  Max     0.000043419 RMS     0.000025068
 Search for a local minimum.
 Step number   2 out of a maximum of   22
 All quantities printed in internal units (Hartrees-Bohrs-Radians)
 RMS Force = .25068D-04 SwitMx=.10000D-02 MixMth= 2
 Mixed Optimization -- En-DIIS/RFO-DIIS
 Swapping is turned off.
 Update second derivatives using D2CorX and points    1    2
 DE= -9.02D-06 DEPred=-9.30D-06 R= 9.70D-01
 TightC=F SS=  1.41D+00  RLast= 8.33D-03 DXNew= 5.0454D-01 2.5002D-02
 Trust test= 9.70D-01 RLast= 8.33D-03 DXMaxT set to 3.00D-01
 The second derivative matrix:
                          X1        Y1        Z1        X2        Y2
           X1           0.63761
           Y1           0.00001   0.50000
           Z1          -0.00000  -0.00000   0.50000
           X2          -0.13761  -0.00001   0.00000   0.63761
           Y2          -0.00001  -0.00000   0.00000   0.00001   0.50000
           Z2           0.00000   0.00000  -0.00000  -0.00000  -0.00000
           R1          -0.13761  -0.00001   0.00000   0.13761   0.00001
           R2          -0.13761  -0.00001   0.00000   0.13761   0.00001
           A1          -0.00000  -0.00000   0.00000   0.00000   0.00000
           A2          -0.00000  -0.00000   0.00000   0.00000   0.00000
           A3           0.00000   0.00000  -0.00000  -0.00000  -0.00000
           A4           0.00000   0.00000  -0.00000  -0.00000  -0.00000
                          Z2        R1        R2        A1        A2
           Z2           0.50000
           R1          -0.00000   0.27153
           R2          -0.00000   0.00369   0.27153
           A1          -0.00000   0.00000   0.00000   0.00230
           A2          -0.00000   0.00000   0.00000   0.00000   0.00230
           A3           0.00000  -0.00000  -0.00000  -0.00000  -0.00000
           A4           0.00000  -0.00000  -0.00000  -0.00000  -0.00000
                          A3        A4
           A3           0.00230
           A4           0.00000   0.00230
 ITU=  1  0
     Eigenvalues ---    0.00230   0.00230   0.00230   0.26783   0.27522
     Eigenvalues --- 1000.000001000.000001000.000001000.000001000.00000
     Eigenvalues --- 1000.000001000.00000
 En-DIIS/RFO-DIIS/Sim-DIIS IScMMF=       -3 using points:     2    1
 RFO step:  Lambda=-1.16795787D-08.
 NNeg= 0 NGDIIS= 2 SimSw=  2.50D-03 Rises=F DC= -9.02D-06 SmlDif=  1.00D-05
 NRisDI= 0 DoIntr=F SqrtH=F CThrHd= 10.0 CDAdj=  3.0
 RMS Error=  0.6440530888D-04 NUsed= 2 OKEnD=F EnDIS=F
 InvSVX:  RCond= 7.81D-05 Info=           0 Equed=N FErr=  9.13D-16 BErr=  1.80D-17
 DidBck=F Rises=F RFO-DIIS coefs:    0.97323    0.02677
 Iteration  1 RMS(Cart)=  0.00006441 RMS(Int)=  0.00000000
 Iteration  2 RMS(Cart)=  0.00000000 RMS(Int)=  0.00000000
 ITry= 1 IFail=0 DXMaxC= 1.58D-04 DCOld= 1.00D+10 DXMaxT= 3.00D-01 DXLimC= 3.00D+00 Rises=F
 Variable       Old X    -DE/DX   Delta X   Delta X   Delta X     New X
                                 (Linear)    (Quad)   (Total)
    X1       -1.99066   0.00004   0.00000   0.00000   0.00000  -1.99066
    Y1        0.00000   0.00000   0.00000   0.00000   0.00000   0.00000
    Z1        0.00000  -0.00000   0.00000   0.00000   0.00000   0.00000
    X2        1.99066  -0.00004   0.00000   0.00000   0.00000   1.99066
    Y2        0.00000  -0.00000   0.00000   0.00000   0.00000   0.00000
    Z2        0.00000   0.00000   0.00000   0.00000   0.00000   0.00000
    R1        2.22168  -0.00004  -0.00016   0.00000  -0.00016   2.22152
    R2        2.22168  -0.00004  -0.00016  -0.00000  -0.00016   2.22152
    A1        3.14152  -0.00000  -0.00000  -0.00000  -0.00000   3.14152
    A2        3.14152  -0.00000  -0.00000  -0.00000  -0.00000   3.14152
    A3        3.14159   0.00000   0.00000   0.00000   0.00000   3.14159
    A4        3.14159   0.00000   0.00000   0.00000   0.00000   3.14159
         Item               Value     Threshold  Converged?
 Maximum Force            0.000043     0.000450     YES
 RMS     Force            0.000025     0.000300     YES
 Maximum Displacement     0.000158     0.001800     YES
 RMS     Displacement     0.000064     0.001200     YES
 Predicted change in Energy=-6.849711D-09
 Optimization completed.
    -- Stationary point found.
                           ----------------------------
                           !   Optimized Parameters   !
                           ! (Angstroms and Degrees)  !
 --------------------------                            --------------------------
 ! Name  Definition              Value          Derivative Info.                !
 --------------------------------------------------------------------------------
 ! X1    R(1,-1)                -1.0534         -DE/DX =    0.0                 !
 ! Y1    R(1,-2)                 0.0            -DE/DX =    0.0                 !
 ! Z1    R(1,-3)                 0.0            -DE/DX =    0.0                 !
 ! X2    R(2,-1)                 1.0534         -DE/DX =    0.0                 !
 ! Y2    R(2,-2)                 0.0            -DE/DX =    0.0                 !
 ! Z2    R(2,-3)                 0.0            -DE/DX =    0.0                 !
 ! R1    R(1,3)                  1.1757         -DE/DX =    0.0                 !
 ! R2    R(2,4)                  1.1757         -DE/DX =    0.0                 !
 ! A1    L(2,1,3,-3,-1)        179.9961         -DE/DX =    0.0                 !
 ! A2    L(1,2,4,-3,-1)        179.9961         -DE/DX =    0.0                 !
 ! A3    L(2,1,3,-2,-2)        180.0            -DE/DX =    0.0                 !
 ! A4    L(1,2,4,-2,-2)        180.0            -DE/DX =    0.0                 !
 --------------------------------------------------------------------------------
 Lowest energy point so far.  Saving SCF results.
 Largest change from initial coordinates is atom    4       0.003 Angstoms.
 GradGradGradGradGradGradGradGradGradGradGradGradGradGradGradGradGradGrad

 Leave Link  103 at Mon Apr 21 17:25:31 2025, MaxMem=   536870912 cpu:               0.0 elap:               0.0
 (Enter /home/szhao/Apps/g16/l202.exe)
                          Input orientation:                          
 ---------------------------------------------------------------------
 Center     Atomic      Atomic             Coordinates (Angstroms)
 Number     Number       Type             X           Y           Z
 ---------------------------------------------------------------------
      1          5           0       -1.053410    0.000000    0.000000
      2          5           0        1.053410    0.000000    0.000000
      3          1           0       -2.229071   -0.000080   -0.000000
      4          1           0        2.229071    0.000080    0.000000
 ---------------------------------------------------------------------
                    Distance matrix (angstroms):
                    1          2          3          4
     1  B    0.000000
     2  B    2.106821   0.000000
     3  H    1.175661   3.282482   0.000000
     4  H    3.282482   1.175661   4.458142   0.000000
 Symmetry turned off by external request.
 Stoichiometry    B2H2(3)
 Framework group  C*V[C*(HBBH)]
 Deg. of freedom     3
 Full point group                 C*V     NOp   4
 Rotational constants (GHZ):           0.0000000          14.6704603          14.6704603
 Leave Link  202 at Mon Apr 21 17:25:31 2025, MaxMem=   536870912 cpu:               0.0 elap:               0.0
 (Enter /home/szhao/Apps/g16/l601.exe)
 Copying SCF densities to generalized density rwf, IOpCl= 1 IROHF=0.

 **********************************************************************

            Population analysis using the SCF density.

 **********************************************************************

 Alpha  occ. eigenvalues --   -7.13350  -7.13329  -0.58691  -0.55102  -0.40680
 Alpha  occ. eigenvalues --   -0.23651  -0.23651
 Alpha virt. eigenvalues --   -0.04062  -0.04062   0.00072   0.02494   0.03285
 Alpha virt. eigenvalues --    0.06214   0.06214   0.07396   0.07764   0.07764
 Alpha virt. eigenvalues --    0.13636   0.21967   0.25968   0.37690   0.39361
 Alpha virt. eigenvalues --    0.39361   0.42430   0.42430   0.46009   0.46307
 Alpha virt. eigenvalues --    0.58524   0.60715   0.68516   0.68516   0.71608
 Alpha virt. eigenvalues --    0.78423   0.78423   0.87950   0.87950   1.01178
 Alpha virt. eigenvalues --    1.01178   1.12967   1.43543   1.58255   1.58255
 Alpha virt. eigenvalues --    1.79978   1.79978   1.83408   1.83408   1.83484
 Alpha virt. eigenvalues --    1.83484   1.86999   2.19015   2.44482   2.59432
 Alpha virt. eigenvalues --    2.60853   2.64364  14.18031  14.42363
  Beta  occ. eigenvalues --   -7.13097  -7.13083  -0.54763  -0.53188  -0.38746
  Beta virt. eigenvalues --   -0.06447  -0.06447   0.00319   0.00319   0.00767
  Beta virt. eigenvalues --    0.02881   0.05300   0.05410   0.08989   0.08989
  Beta virt. eigenvalues --    0.11943   0.11943   0.13561   0.23077   0.28818
  Beta virt. eigenvalues --    0.37150   0.40493   0.40493   0.40522   0.40522
  Beta virt. eigenvalues --    0.45155   0.46721   0.61460   0.63558   0.70119
  Beta virt. eigenvalues --    0.81677   0.81677   0.85031   0.85031   0.93629
  Beta virt. eigenvalues --    0.93629   1.05647   1.05647   1.19732   1.64086
  Beta virt. eigenvalues --    1.64086   1.67632   1.83492   1.83492   1.86065
  Beta virt. eigenvalues --    1.86065   1.86334   1.86334   1.93313   2.24768
  Beta virt. eigenvalues --    2.49030   2.61826   2.65817   2.88487  14.19971
  Beta virt. eigenvalues --   14.47805
          Condensed to atoms (all electrons):
               1          2          3          4
     1  B    4.115263   0.605204   0.386555  -0.001716
     2  B    0.605204   4.115263  -0.001716   0.386555
     3  H    0.386555  -0.001716   0.509613   0.000242
     4  H   -0.001716   0.386555   0.000242   0.509613
          Atomic-Atomic Spin Densities.
               1          2          3          4
     1  B    0.848777   0.198888  -0.013563   0.001564
     2  B    0.198888   0.848777   0.001564  -0.013563
     3  H   -0.013563   0.001564  -0.023724   0.000058
     4  H    0.001564  -0.013563   0.000058  -0.023724
 Mulliken charges and spin densities:
               1          2
     1  B   -0.105306   1.035666
     2  B   -0.105306   1.035666
     3  H    0.105306  -0.035666
     4  H    0.105306  -0.035666
 Sum of Mulliken charges =  -0.00000   2.00000
 Mulliken charges and spin densities with hydrogens summed into heavy atoms:
               1          2
     1  B   -0.000000   1.000000
     2  B    0.000000   1.000000
 Electronic spatial extent (au):  <R**2>=            106.9727
 Charge=             -0.0000 electrons
 Dipole moment (field-independent basis, Debye):
    X=              0.0000    Y=             -0.0000    Z=             -0.0000  Tot=              0.0000
 Quadrupole moment (field-independent basis, Debye-Ang):
   XX=            -10.9844   YY=            -15.9329   ZZ=            -15.9329
   XY=              0.0002   XZ=              0.0000   YZ=              0.0000
 Traceless Quadrupole moment (field-independent basis, Debye-Ang):
   XX=              3.2990   YY=             -1.6495   ZZ=             -1.6495
   XY=              0.0002   XZ=              0.0000   YZ=              0.0000
 Octapole moment (field-independent basis, Debye-Ang**2):
  XXX=              0.0000  YYY=              0.0000  ZZZ=             -0.0000  XYY=              0.0000
  XXY=             -0.0000  XXZ=             -0.0000  XZZ=              0.0000  YZZ=              0.0000
  YYZ=             -0.0000  XYZ=             -0.0000
 Hexadecapole moment (field-independent basis, Debye-Ang**3):
 XXXX=           -132.5117 YYYY=            -29.3756 ZZZZ=            -29.3756 XXXY=              0.0000
 XXXZ=              0.0000 YYYX=             -0.0006 YYYZ=              0.0000 ZZZX=             -0.0000
 ZZZY=              0.0000 XXYY=            -30.8430 XXZZ=            -30.8430 YYZZ=             -9.7919
 XXYZ=              0.0000 YYXZ=             -0.0000 ZZXY=             -0.0002
 N-N= 1.251126237853D+01 E-N=-1.407947619548D+02  KE= 4.988067312153D+01
                          Isotropic Fermi Contact Couplings
        Atom                 a.u.       MegaHertz       Gauss      10(-4) cm-1
     1  B(11)              0.12563      90.09609      32.14852      30.05282
     2  B(11)              0.12563      90.09609      32.14852      30.05282
     3  H(1)              -0.01636     -36.55565     -13.04397     -12.19365
     4  H(1)              -0.01636     -36.55565     -13.04397     -12.19365
 --------------------------------------------------------
       Center         ----  Spin Dipole Couplings  ----
                      3XX-RR        3YY-RR        3ZZ-RR
 --------------------------------------------------------
     1   Atom       -0.246028      0.123014      0.123014
     2   Atom       -0.246028      0.123014      0.123014
     3   Atom        0.047232     -0.023616     -0.023616
     4   Atom        0.047232     -0.023616     -0.023616
 --------------------------------------------------------
                        XY            XZ            YZ
 --------------------------------------------------------
     1   Atom        0.000009      0.000000      0.000000
     2   Atom        0.000009      0.000000      0.000000
     3   Atom        0.000005      0.000000      0.000000
     4   Atom        0.000005      0.000000      0.000000
 --------------------------------------------------------


 ---------------------------------------------------------------------------------
              Anisotropic Spin Dipole Couplings in Principal Axis System
 ---------------------------------------------------------------------------------

       Atom             a.u.   MegaHertz   Gauss  10(-4) cm-1        Axes

              Baa    -0.2460   -42.124   -15.031   -14.051  1.0000 -0.0000 -0.0000
     1 B(11)  Bbb     0.1230    21.062     7.515     7.025  0.0000  1.0000 -0.0000
              Bcc     0.1230    21.062     7.515     7.025  0.0000  0.0000  1.0000
 
              Baa    -0.2460   -42.124   -15.031   -14.051  1.0000 -0.0000 -0.0000
     2 B(11)  Bbb     0.1230    21.062     7.515     7.025  0.0000  1.0000 -0.0000
              Bcc     0.1230    21.062     7.515     7.025  0.0000  0.0000  1.0000
 
              Baa    -0.0236   -12.600    -4.496    -4.203 -0.0001  1.0000  0.0000
     3 H(1)   Bbb    -0.0236   -12.600    -4.496    -4.203 -0.0000 -0.0000  1.0000
              Bcc     0.0472    25.201     8.992     8.406  1.0000  0.0001  0.0000
 
              Baa    -0.0236   -12.600    -4.496    -4.203 -0.0001  1.0000  0.0000
     4 H(1)   Bbb    -0.0236   -12.600    -4.496    -4.203 -0.0000 -0.0000  1.0000
              Bcc     0.0472    25.201     8.992     8.406  1.0000  0.0001  0.0000
 

 ---------------------------------------------------------------------------------

 No NMR shielding tensors so no spin-rotation constants.
 Leave Link  601 at Mon Apr 21 17:25:32 2025, MaxMem=   536870912 cpu:               1.9 elap:               0.2
 (Enter /home/szhao/Apps/g16/l9999.exe)
 1\1\GINC-NODE01\FOpt\UM062X\6-311+G(d,p)\B2H2(3)\SZHAO\21-Apr-2025\0\\
 #p opt UM062X/6-311+G** nosymm int=superfine\\Title Card Required\\0,3
 \B,-1.05341047,0.,0.\B,1.05341047,0.,0.\H,-2.2290711607,-0.0000804493,
 0.\H,2.2290711607,0.0000804493,0.\\Version=ES64L-G16RevA.03\HF=-50.640
 4979\S2=2.008239\S2-1=0.\S2A=2.000022\RMSD=6.331e-09\RMSF=1.774e-05\Di
 pole=0.,0.,0.\Quadrupole=2.4527003,-1.2263502,-1.2263502,0.0001257,0.,
 0.\PG=C*V [C*(H1B1B1H1)]\\@


 COMMON SENSE IS NOT SO COMMON.   -- VOLTAIRE
 Job cpu time:       0 days  0 hours  2 minutes  2.7 seconds.
 Elapsed time:       0 days  0 hours  0 minutes 15.7 seconds.
 File lengths (MBytes):  RWF=      6 Int=      0 D2E=      0 Chk=      1 Scr=      1
 Normal termination of Gaussian 16 at Mon Apr 21 17:25:32 2025.
