 Entering Gaussian System, Link 0=g16
 Initial command:
 /home/szhao/Apps/g16/l1.exe "/home/szhao/tmp/Gau-4481.inp" -scrdir="/home/szhao/tmp/"
 Default is to use a total of  16 processors:
                               16 via shared-memory
                                1 via Linda
 Entering Link 1 = /home/szhao/Apps/g16/l1.exe PID=      4482.
  
 Copyright (c) 1988,1990,1992,1993,1995,1998,2003,2009,2016,
            Gaussian, Inc.  All Rights Reserved.
  
 This is part of the Gaussian(R) 16 program.  It is based on
 the Gaussian(R) 09 system (copyright 2009, Gaussian, Inc.),
 the Gaussian(R) 03 system (copyright 2003, Gaussian, Inc.),
 the Gaussian(R) 98 system (copyright 1998, Gaussian, Inc.),
 the Gaussian(R) 94 system (copyright 1995, Gaussian, Inc.),
 the Gaussian 92(TM) system (copyright 1992, Gaussian, Inc.),
 the Gaussian 90(TM) system (copyright 1990, Gaussian, Inc.),
 the Gaussian 88(TM) system (copyright 1988, Gaussian, Inc.),
 the Gaussian 86(TM) system (copyright 1986, Carnegie Mellon
 University), and the Gaussian 82(TM) system (copyright 1983,
 Carnegie Mellon University). Gaussian is a federally registered
 trademark of Gaussian, Inc.
  
 This software contains proprietary and confidential information,
 including trade secrets, belonging to Gaussian, Inc.
  
 This software is provided under written license and may be
 used, copied, transmitted, or stored only in accord with that
 written license.
  
 The following legend is applicable only to US Government
 contracts under FAR:
  
                    RESTRICTED RIGHTS LEGEND
  
 Use, reproduction and disclosure by the US Government is
 subject to restrictions as set forth in subparagraphs (a)
 and (c) of the Commercial Computer Software - Restricted
 Rights clause in FAR 52.227-19.
  
 Gaussian, Inc.
 340 Quinnipiac St., Bldg. 40, Wallingford CT 06492
  
  
 ---------------------------------------------------------------
 Warning -- This program may not be used in any manner that
 competes with the business of Gaussian, Inc. or will provide
 assistance to any competitor of Gaussian, Inc.  The licensee
 of this program is prohibited from giving any competitor of
 Gaussian, Inc. access to this program.  By using this program,
 the user acknowledges that Gaussian, Inc. is engaged in the
 business of creating and licensing software in the field of
 computational chemistry and represents and warrants to the
 licensee that it is not a competitor of Gaussian, Inc. and that
 it will not use this program in any manner prohibited above.
 ---------------------------------------------------------------
  

 Cite this work as:
 Gaussian 16, Revision A.03,
 M. J. Frisch, G. W. Trucks, H. B. Schlegel, G. E. Scuseria, 
 M. A. Robb, J. R. Cheeseman, G. Scalmani, V. Barone, 
 G. A. Petersson, H. Nakatsuji, X. Li, M. Caricato, A. V. Marenich, 
 J. Bloino, B. G. Janesko, R. Gomperts, B. Mennucci, H. P. Hratchian, 
 J. V. Ortiz, A. F. Izmaylov, J. L. Sonnenberg, D. Williams-Young, 
 F. Ding, F. Lipparini, F. Egidi, J. Goings, B. Peng, A. Petrone, 
 T. Henderson, D. Ranasinghe, V. G. Zakrzewski, J. Gao, N. Rega, 
 G. Zheng, W. Liang, M. Hada, M. Ehara, K. Toyota, R. Fukuda, 
 J. Hasegawa, M. Ishida, T. Nakajima, Y. Honda, O. Kitao, H. Nakai, 
 T. Vreven, K. Throssell, J. A. Montgomery, Jr., J. E. Peralta, 
 F. Ogliaro, M. J. Bearpark, J. J. Heyd, E. N. Brothers, K. N. Kudin, 
 V. N. Staroverov, T. A. Keith, R. Kobayashi, J. Normand, 
 K. Raghavachari, A. P. Rendell, J. C. Burant, S. S. Iyengar, 
 J. Tomasi, M. Cossi, J. M. Millam, M. Klene, C. Adamo, R. Cammi, 
 J. W. Ochterski, R. L. Martin, K. Morokuma, O. Farkas, 
 J. B. Foresman, and D. J. Fox, Gaussian, Inc., Wallingford CT, 2016.
 
 ******************************************
 Gaussian 16:  ES64L-G16RevA.03 25-Dec-2016
                21-Apr-2025 
 ******************************************
 %chk=opt.chk
 %mem=4GB
 %nprocshared=8
 Will use up to    8 processors via shared memory.
 --------------------------------------------
 #p opt UM062X/6-311+G** nosymm int=superfine
 --------------------------------------------
 1/18=20,19=15,26=5,38=1/1,3;
 2/9=110,12=2,15=1,17=6,18=5,40=1/2;
 3/5=4,6=6,7=111,11=2,25=1,30=1,71=1,74=-55,75=-7,116=2/1,2,3;
 4//1;
 5/5=2,38=5/2;
 6/7=2,8=2,9=2,10=2,28=1/1;
 7/30=1/1,2,3,16;
 1/18=20,19=15,26=5/3(2);
 2/9=110,15=1/2;
 99//99;
 2/9=110,15=1/2;
 3/5=4,6=6,7=111,11=2,25=1,30=1,71=1,74=-55,75=-7,116=2/1,2,3;
 4/5=5,16=3,69=1/1;
 5/5=2,38=5/2;
 7/30=1/1,2,3,16;
 1/18=20,19=15,26=5/3(-5);
 2/9=110,15=1/2;
 6/7=2,8=2,9=2,10=2,19=2,28=1/1;
 99/9=1/99;
 Leave Link    1 at Mon Apr 21 20:41:51 2025, MaxMem=   536870912 cpu:               1.6 elap:               0.2
 (Enter /home/szhao/Apps/g16/l101.exe)
 -------------------
 Title Card Required
 -------------------
 Symbolic Z-matrix:
 Charge =  0 Multiplicity = 1
 P                    -1   -1.84222   0.        0. 
 P                    -1    1.84222   0.        0. 
 H                    0     1.95905  -1.40926   0. 
 H                    0    -1.95907   1.39816  -0.17652 
 H                    0     2.08226   0.11794  -1.3898 
 H                    0    -2.08227  -0.2911   -1.36408 
 
 Add virtual bond connecting atoms P2         and P1         Dist= 6.96D+00.
 ITRead=  2  2  0  0  0  0
 MicOpt= -2 -2 -1 -1 -1 -1
 NAtoms=      6 NQM=        4 NQMF=       2 NMMI=      0 NMMIF=      0
                NMic=       0 NMicF=      0.
                    Isotopes and Nuclear Properties:
 (Nuclear quadrupole moments (NQMom) in fm**2, nuclear magnetic moments (NMagM)
  in nuclear magnetons)

  Atom         1           2           3           4           5           6
 IAtWgt=          31          31           1           1           1           1
 AtmWgt=  30.9737634  30.9737634   1.0078250   1.0078250   1.0078250   1.0078250
 NucSpn=           1           1           1           1           1           1
 AtZEff=  -0.0000000  -0.0000000  -0.0000000  -0.0000000  -0.0000000  -0.0000000
 NQMom=    0.0000000   0.0000000   0.0000000   0.0000000   0.0000000   0.0000000
 NMagM=    1.1316000   1.1316000   2.7928460   2.7928460   2.7928460   2.7928460
 AtZNuc=  15.0000000  15.0000000   1.0000000   1.0000000   1.0000000   1.0000000
 Leave Link  101 at Mon Apr 21 20:41:52 2025, MaxMem=   536870912 cpu:               4.6 elap:               0.6
 (Enter /home/szhao/Apps/g16/l103.exe)

 GradGradGradGradGradGradGradGradGradGradGradGradGradGradGradGradGradGrad
 Berny optimization.
 Initialization pass.
                           ----------------------------
                           !    Initial Parameters    !
                           ! (Angstroms and Degrees)  !
 --------------------------                            --------------------------
 ! Name  Definition              Value          Derivative Info.                !
 --------------------------------------------------------------------------------
 ! X1    R(1,-1)                -1.8422         Frozen                          !
 ! Y1    R(1,-2)                 0.0            Frozen                          !
 ! Z1    R(1,-3)                 0.0            Frozen                          !
 ! X2    R(2,-1)                 1.8422         Frozen                          !
 ! Y2    R(2,-2)                 0.0            Frozen                          !
 ! Z2    R(2,-3)                 0.0            Frozen                          !
 ! R1    R(1,4)                  1.4141         estimate D2E/DX2                !
 ! R2    R(1,6)                  1.4153         estimate D2E/DX2                !
 ! R3    R(2,3)                  1.4141         estimate D2E/DX2                !
 ! R4    R(2,5)                  1.4153         estimate D2E/DX2                !
 ! A1    A(2,1,4)               94.74           estimate D2E/DX2                !
 ! A2    A(2,1,6)               99.7651         estimate D2E/DX2                !
 ! A3    A(4,1,6)               93.9586         estimate D2E/DX2                !
 ! A4    A(1,2,3)               94.7393         estimate D2E/DX2                !
 ! A5    A(1,2,5)               99.7651         estimate D2E/DX2                !
 ! A6    A(3,2,5)               93.9584         estimate D2E/DX2                !
 ! D1    D(4,1,2,3)           -172.8043         estimate D2E/DX2                !
 ! D2    D(4,1,2,5)            -77.9538         estimate D2E/DX2                !
 ! D3    D(6,1,2,3)            -77.9535         estimate D2E/DX2                !
 ! D4    D(6,1,2,5)             16.897          estimate D2E/DX2                !
 --------------------------------------------------------------------------------
 Trust Radius=3.00D-01 FncErr=1.00D-07 GrdErr=1.00D-07 EigMax=2.50D+02 EigMin=1.00D-04
 Number of steps in this run=     30 maximum allowed number of steps=    100.
 GradGradGradGradGradGradGradGradGradGradGradGradGradGradGradGradGradGrad

 Leave Link  103 at Mon Apr 21 20:41:52 2025, MaxMem=   536870912 cpu:               0.2 elap:               0.1
 (Enter /home/szhao/Apps/g16/l202.exe)
                          Input orientation:                          
 ---------------------------------------------------------------------
 Center     Atomic      Atomic             Coordinates (Angstroms)
 Number     Number       Type             X           Y           Z
 ---------------------------------------------------------------------
      1         15           0       -1.842217    0.000000    0.000000
      2         15           0        1.842217    0.000000    0.000000
      3          1           0        1.959053   -1.409264    0.000000
      4          1           0       -1.959069    1.398163   -0.176523
      5          1           0        2.082265    0.117937   -1.389802
      6          1           0       -2.082265   -0.291103   -1.364082
 ---------------------------------------------------------------------
                    Distance matrix (angstroms):
                    1          2          3          4          5
     1  P    0.000000
     2  P    3.684433   0.000000
     3  H    4.054094   1.414099   0.000000
     4  H    1.414098   4.054108   4.823327   0.000000
     5  H    4.164975   1.415303   2.068593   4.409467   0.000000
     6  H    1.415303   4.164975   4.409451   2.068596   4.184649
                    6
     6  H    0.000000
 Symmetry turned off by external request.
 Stoichiometry    H4P2
 Framework group  C1[X(H4P2)]
 Deg. of freedom    12
 Full point group                 C1      NOp   1
 Rotational constants (GHZ):          65.6945636           2.1922556           2.1898492
 Leave Link  202 at Mon Apr 21 20:41:52 2025, MaxMem=   536870912 cpu:               0.3 elap:               0.1
 (Enter /home/szhao/Apps/g16/l301.exe)
 Standard basis: 6-311+G(d,p) (5D, 7F)
 Ernie: Thresh=  0.10000D-02 Tol=  0.10000D-05 Strict=F.
    84 basis functions,   132 primitive gaussians,    86 cartesian basis functions
    17 alpha electrons       17 beta electrons
       nuclear repulsion energy        63.4743209503 Hartrees.
 IExCor= 4336 DFT=T Ex+Corr=M062X ExCW=0 ScaHFX=  0.540000
 ScaDFX=  1.000000  1.000000  1.000000  1.000000 ScalE2=  1.000000  1.000000
 IRadAn=      7 IRanWt=     -1 IRanGd=            0 ICorTp=0 IEmpDi=  4
 NAtoms=    6 NActive=    6 NUniq=    6 SFac= 1.00D+00 NAtFMM=   60 NAOKFM=F Big=F
 Integral buffers will be    131072 words long.
 Raffenetti 2 integral format.
 Two-electron integral symmetry is turned off.
 Leave Link  301 at Mon Apr 21 20:41:53 2025, MaxMem=   536870912 cpu:               1.6 elap:               0.3
 (Enter /home/szhao/Apps/g16/l302.exe)
 NPDir=0 NMtPBC=     1 NCelOv=     1 NCel=       1 NClECP=     1 NCelD=      1
         NCelK=      1 NCelE2=     1 NClLst=     1 CellRange=     0.0.
 One-electron integrals computed using PRISM.
 NBasis=    84 RedAO= T EigKep=  4.61D-03  NBF=    84
 NBsUse=    84 1.00D-06 EigRej= -1.00D+00 NBFU=    84
 Precomputing XC quadrature grid using
 IXCGrd= 4 IRadAn=           7 IRanWt=          -1 IRanGd=           0 AccXCQ= 0.00D+00.
 Generated NRdTot=       0 NPtTot=           0 NUsed=           0 NTot=          32
 NSgBfM=    80    80    80    80    80 MxSgAt=     6 MxSgA2=     6.
 Leave Link  302 at Mon Apr 21 20:41:53 2025, MaxMem=   536870912 cpu:               2.8 elap:               0.4
 (Enter /home/szhao/Apps/g16/l303.exe)
 DipDrv:  MaxL=1.
 Leave Link  303 at Mon Apr 21 20:41:54 2025, MaxMem=   536870912 cpu:               1.4 elap:               0.3
 (Enter /home/szhao/Apps/g16/l401.exe)
 ExpMin= 3.48D-02 ExpMax= 7.75D+04 ExpMxC= 2.65D+03 IAcc=3 IRadAn=         7 AccDes= 0.00D+00
 Harris functional with IExCor= 1009 and IRadAn=       7 diagonalized for initial guess.
 HarFok:  IExCor= 1009 AccDes= 0.00D+00 IRadAn=         7 IDoV= 1 UseB2=F ITyADJ=14
 ICtDFT=  3500011 ScaDFX=  1.000000  1.000000  1.000000  1.000000
 FoFCou: FMM=F IPFlag=           0 FMFlag=      100000 FMFlg1=           0
         NFxFlg=           0 DoJE=T BraDBF=F KetDBF=T FulRan=T
         wScrn=  0.000000 ICntrl=       500 IOpCl=  0 I1Cent=   200000004 NGrid=           0
         NMat0=    1 NMatS0=      1 NMatT0=    0 NMatD0=    1 NMtDS0=    0 NMtDT0=    0
 Symmetry not used in FoFCou.
 Harris En= -684.670014485313    
 JPrj=0 DoOrth=F DoCkMO=F.
 Initial guess <Sx>= 0.0000 <Sy>= 0.0000 <Sz>= 0.0000 <S**2>=-0.0000 S=-0.0000
 Leave Link  401 at Mon Apr 21 20:41:55 2025, MaxMem=   536870912 cpu:               5.6 elap:               0.8
 (Enter /home/szhao/Apps/g16/l502.exe)
 Keep R1 and R2 ints in memory in canonical form, NReq=20057634.
 FoFCou: FMM=F IPFlag=           0 FMFlag=           0 FMFlg1=           0
         NFxFlg=           0 DoJE=F BraDBF=F KetDBF=F FulRan=T
         wScrn=  0.000000 ICntrl=       600 IOpCl=  0 I1Cent=           0 NGrid=           0
         NMat0=    1 NMatS0=   3570 NMatT0=    0 NMatD0=    1 NMtDS0=    0 NMtDT0=    0
 Symmetry not used in FoFCou.
 Two-electron integral symmetry not used.
 UHF open shell SCF:
 Using DIIS extrapolation, IDIIS=  1040.
 NGot=   536870912 LenX=   524106186 LenY=   524098349
 Requested convergence on RMS density matrix=1.00D-08 within 128 cycles.
 Requested convergence on MAX density matrix=1.00D-06.
 Requested convergence on             energy=1.00D-06.
 No special actions if energy rises.

 Cycle   1  Pass 1  IDiag  1:
 E= -684.934764645477    
 DIIS: error= 2.09D-02 at cycle   1 NSaved=   1.
 NSaved= 1 IEnMin= 1 EnMin= -684.934764645477     IErMin= 1 ErrMin= 2.09D-02
 ErrMax= 2.09D-02  0.00D+00 EMaxC= 1.00D-01 BMatC= 2.18D-01 BMatP= 2.18D-01
 IDIUse=3 WtCom= 7.91D-01 WtEn= 2.09D-01
 Coeff-Com:  0.100D+01
 Coeff-En:   0.100D+01
 Coeff:      0.100D+01
 Gap=     0.134 Goal=   None    Shift=    0.000
 Gap=     0.134 Goal=   None    Shift=    0.000
 GapD=    0.134 DampG=1.000 DampE=0.500 DampFc=0.5000 IDamp=-1.
 Damping current iteration by 5.00D-01
 RMSDP=1.53D-03 MaxDP=1.81D-02              OVMax= 3.36D-02

 Cycle   2  Pass 1  IDiag  1:
 E= -684.943372248220     Delta-E=       -0.008607602743 Rises=F Damp=T
 DIIS: error= 1.02D-02 at cycle   2 NSaved=   2.
 NSaved= 2 IEnMin= 2 EnMin= -684.943372248220     IErMin= 2 ErrMin= 1.02D-02
 ErrMax= 1.02D-02  0.00D+00 EMaxC= 1.00D-01 BMatC= 3.65D-02 BMatP= 2.18D-01
 IDIUse=3 WtCom= 8.98D-01 WtEn= 1.02D-01
 Coeff-Com: -0.626D+00 0.163D+01
 Coeff-En:   0.000D+00 0.100D+01
 Coeff:     -0.562D+00 0.156D+01
 Gap=     0.134 Goal=   None    Shift=    0.000
 Gap=     0.134 Goal=   None    Shift=    0.000
 RMSDP=8.06D-04 MaxDP=8.29D-03 DE=-8.61D-03 OVMax= 9.64D-03

 Cycle   3  Pass 1  IDiag  1:
 E= -684.951388434489     Delta-E=       -0.008016186268 Rises=F Damp=F
 DIIS: error= 4.27D-04 at cycle   3 NSaved=   3.
 NSaved= 3 IEnMin= 3 EnMin= -684.951388434489     IErMin= 3 ErrMin= 4.27D-04
 ErrMax= 4.27D-04  0.00D+00 EMaxC= 1.00D-01 BMatC= 1.48D-04 BMatP= 3.65D-02
 IDIUse=3 WtCom= 9.96D-01 WtEn= 4.27D-03
 Coeff-Com: -0.692D-01 0.142D+00 0.927D+00
 Coeff-En:   0.000D+00 0.000D+00 0.100D+01
 Coeff:     -0.690D-01 0.142D+00 0.927D+00
 Gap=     0.135 Goal=   None    Shift=    0.000
 Gap=     0.135 Goal=   None    Shift=    0.000
 RMSDP=1.43D-04 MaxDP=4.00D-03 DE=-8.02D-03 OVMax= 4.19D-03

 Cycle   4  Pass 1  IDiag  1:
 E= -684.951429526353     Delta-E=       -0.000041091864 Rises=F Damp=F
 DIIS: error= 1.53D-04 at cycle   4 NSaved=   4.
 NSaved= 4 IEnMin= 4 EnMin= -684.951429526353     IErMin= 4 ErrMin= 1.53D-04
 ErrMax= 1.53D-04  0.00D+00 EMaxC= 1.00D-01 BMatC= 1.37D-05 BMatP= 1.48D-04
 IDIUse=3 WtCom= 9.98D-01 WtEn= 1.53D-03
 Coeff-Com:  0.206D-02-0.755D-02 0.205D+00 0.801D+00
 Coeff-En:   0.000D+00 0.000D+00 0.000D+00 0.100D+01
 Coeff:      0.206D-02-0.754D-02 0.204D+00 0.801D+00
 Gap=     0.135 Goal=   None    Shift=    0.000
 Gap=     0.135 Goal=   None    Shift=    0.000
 RMSDP=4.12D-05 MaxDP=9.51D-04 DE=-4.11D-05 OVMax= 1.90D-03

 Cycle   5  Pass 1  IDiag  1:
 E= -684.951435984450     Delta-E=       -0.000006458097 Rises=F Damp=F
 DIIS: error= 3.74D-05 at cycle   5 NSaved=   5.
 NSaved= 5 IEnMin= 5 EnMin= -684.951435984450     IErMin= 5 ErrMin= 3.74D-05
 ErrMax= 3.74D-05  0.00D+00 EMaxC= 1.00D-01 BMatC= 9.67D-07 BMatP= 1.37D-05
 IDIUse=1 WtCom= 1.00D+00 WtEn= 0.00D+00
 Coeff-Com:  0.293D-02-0.570D-02-0.952D-01-0.323D-01 0.113D+01
 Coeff:      0.293D-02-0.570D-02-0.952D-01-0.323D-01 0.113D+01
 Gap=     0.135 Goal=   None    Shift=    0.000
 Gap=     0.135 Goal=   None    Shift=    0.000
 RMSDP=2.12D-05 MaxDP=2.76D-04 DE=-6.46D-06 OVMax= 1.27D-03

 Cycle   6  Pass 1  IDiag  1:
 E= -684.951437064923     Delta-E=       -0.000001080473 Rises=F Damp=F
 DIIS: error= 1.21D-05 at cycle   6 NSaved=   6.
 NSaved= 6 IEnMin= 6 EnMin= -684.951437064923     IErMin= 6 ErrMin= 1.21D-05
 ErrMax= 1.21D-05  0.00D+00 EMaxC= 1.00D-01 BMatC= 4.75D-08 BMatP= 9.67D-07
 IDIUse=1 WtCom= 1.00D+00 WtEn= 0.00D+00
 Coeff-Com:  0.823D-04 0.107D-03-0.149D-01-0.410D-01-0.118D-01 0.107D+01
 Coeff:      0.823D-04 0.107D-03-0.149D-01-0.410D-01-0.118D-01 0.107D+01
 Gap=     0.135 Goal=   None    Shift=    0.000
 Gap=     0.135 Goal=   None    Shift=    0.000
 RMSDP=5.93D-06 MaxDP=6.71D-05 DE=-1.08D-06 OVMax= 4.30D-04

 Cycle   7  Pass 1  IDiag  1:
 E= -684.951437142971     Delta-E=       -0.000000078049 Rises=F Damp=F
 DIIS: error= 8.78D-06 at cycle   7 NSaved=   7.
 NSaved= 7 IEnMin= 7 EnMin= -684.951437142971     IErMin= 7 ErrMin= 8.78D-06
 ErrMax= 8.78D-06  0.00D+00 EMaxC= 1.00D-01 BMatC= 3.34D-08 BMatP= 4.75D-08
 IDIUse=1 WtCom= 1.00D+00 WtEn= 0.00D+00
 Coeff-Com: -0.103D-03 0.350D-03-0.234D-02-0.212D-01-0.846D-01 0.569D+00
 Coeff-Com:  0.538D+00
 Coeff:     -0.103D-03 0.350D-03-0.234D-02-0.212D-01-0.846D-01 0.569D+00
 Coeff:      0.538D+00
 Gap=     0.135 Goal=   None    Shift=    0.000
 Gap=     0.135 Goal=   None    Shift=    0.000
 RMSDP=2.41D-06 MaxDP=6.36D-05 DE=-7.80D-08 OVMax= 1.82D-04

 Cycle   8  Pass 1  IDiag  1:
 E= -684.951437155326     Delta-E=       -0.000000012355 Rises=F Damp=F
 DIIS: error= 6.22D-06 at cycle   8 NSaved=   8.
 NSaved= 8 IEnMin= 8 EnMin= -684.951437155326     IErMin= 8 ErrMin= 6.22D-06
 ErrMax= 6.22D-06  0.00D+00 EMaxC= 1.00D-01 BMatC= 1.51D-08 BMatP= 3.34D-08
 IDIUse=1 WtCom= 1.00D+00 WtEn= 0.00D+00
 Coeff-Com: -0.120D-03 0.236D-03 0.507D-02 0.131D-02-0.687D-01-0.419D-01
 Coeff-Com:  0.444D+00 0.660D+00
 Coeff:     -0.120D-03 0.236D-03 0.507D-02 0.131D-02-0.687D-01-0.419D-01
 Coeff:      0.444D+00 0.660D+00
 Gap=     0.135 Goal=   None    Shift=    0.000
 Gap=     0.135 Goal=   None    Shift=    0.000
 RMSDP=1.31D-06 MaxDP=2.80D-05 DE=-1.24D-08 OVMax= 8.08D-05

 Cycle   9  Pass 1  IDiag  1:
 E= -684.951437163703     Delta-E=       -0.000000008377 Rises=F Damp=F
 DIIS: error= 6.42D-07 at cycle   9 NSaved=   9.
 NSaved= 9 IEnMin= 9 EnMin= -684.951437163703     IErMin= 9 ErrMin= 6.42D-07
 ErrMax= 6.42D-07  0.00D+00 EMaxC= 1.00D-01 BMatC= 1.81D-10 BMatP= 1.51D-08
 IDIUse=1 WtCom= 1.00D+00 WtEn= 0.00D+00
 Coeff-Com: -0.281D-04 0.463D-04 0.100D-02 0.255D-02-0.204D-02-0.503D-01
 Coeff-Com:  0.488D-01 0.146D+00 0.854D+00
 Coeff:     -0.281D-04 0.463D-04 0.100D-02 0.255D-02-0.204D-02-0.503D-01
 Coeff:      0.488D-01 0.146D+00 0.854D+00
 Gap=     0.135 Goal=   None    Shift=    0.000
 Gap=     0.135 Goal=   None    Shift=    0.000
 RMSDP=1.92D-07 MaxDP=2.54D-06 DE=-8.38D-09 OVMax= 7.45D-06

 Cycle  10  Pass 1  IDiag  1:
 E= -684.951437163783     Delta-E=       -0.000000000080 Rises=F Damp=F
 DIIS: error= 1.25D-07 at cycle  10 NSaved=  10.
 NSaved=10 IEnMin=10 EnMin= -684.951437163783     IErMin=10 ErrMin= 1.25D-07
 ErrMax= 1.25D-07  0.00D+00 EMaxC= 1.00D-01 BMatC= 4.63D-12 BMatP= 1.81D-10
 IDIUse=1 WtCom= 1.00D+00 WtEn= 0.00D+00
 Coeff-Com: -0.159D-05 0.979D-06 0.612D-04 0.502D-03 0.108D-02-0.109D-01
 Coeff-Com: -0.437D-02 0.933D-02 0.168D+00 0.836D+00
 Coeff:     -0.159D-05 0.979D-06 0.612D-04 0.502D-03 0.108D-02-0.109D-01
 Coeff:     -0.437D-02 0.933D-02 0.168D+00 0.836D+00
 Gap=     0.135 Goal=   None    Shift=    0.000
 Gap=     0.135 Goal=   None    Shift=    0.000
 RMSDP=3.26D-08 MaxDP=3.94D-07 DE=-8.04D-11 OVMax= 1.63D-06

 Cycle  11  Pass 1  IDiag  1:
 E= -684.951437163785     Delta-E=       -0.000000000002 Rises=F Damp=F
 DIIS: error= 1.77D-08 at cycle  11 NSaved=  11.
 NSaved=11 IEnMin=11 EnMin= -684.951437163785     IErMin=11 ErrMin= 1.77D-08
 ErrMax= 1.77D-08  0.00D+00 EMaxC= 1.00D-01 BMatC= 9.69D-14 BMatP= 4.63D-12
 IDIUse=1 WtCom= 1.00D+00 WtEn= 0.00D+00
 Coeff-Com:  0.718D-06-0.848D-06-0.365D-04-0.161D-03-0.148D-03 0.366D-02
 Coeff-Com: -0.189D-02-0.782D-02-0.537D-01-0.393D-01 0.110D+01
 Coeff:      0.718D-06-0.848D-06-0.365D-04-0.161D-03-0.148D-03 0.366D-02
 Coeff:     -0.189D-02-0.782D-02-0.537D-01-0.393D-01 0.110D+01
 Gap=     0.135 Goal=   None    Shift=    0.000
 Gap=     0.135 Goal=   None    Shift=    0.000
 RMSDP=8.36D-09 MaxDP=8.66D-08 DE=-1.82D-12 OVMax= 3.13D-07

 SCF Done:  E(UM062X) =  -684.951437164     A.U. after   11 cycles
            NFock= 11  Conv=0.84D-08     -V/T= 2.0016
 <Sx>= 0.0000 <Sy>= 0.0000 <Sz>= 0.0000 <S**2>=-0.0000 S=-0.0000
 <L.S>=  0.00000000000    
 KE= 6.838462104848D+02 PE=-1.756233797713D+03 EE= 3.239618291143D+02
 Annihilation of the first spin contaminant:
 S**2 before annihilation    -0.0000,   after     0.0000
 Leave Link  502 at Mon Apr 21 20:42:14 2025, MaxMem=   536870912 cpu:             142.1 elap:              18.7
 (Enter /home/szhao/Apps/g16/l601.exe)
 Copying SCF densities to generalized density rwf, IOpCl= 1 IROHF=0.

 **********************************************************************

            Population analysis using the SCF density.

 **********************************************************************

 Alpha  occ. eigenvalues --  -78.04902 -78.04901  -6.87267  -6.87266  -4.98819
 Alpha  occ. eigenvalues --   -4.98819  -4.98699  -4.98698  -4.98507  -4.98506
 Alpha  occ. eigenvalues --   -0.71403  -0.70575  -0.45424  -0.45351  -0.36260
 Alpha  occ. eigenvalues --   -0.35243  -0.26154
 Alpha virt. eigenvalues --   -0.12645   0.01580   0.02860   0.03596   0.03847
 Alpha virt. eigenvalues --    0.05647   0.05910   0.05990   0.06028   0.06624
 Alpha virt. eigenvalues --    0.08471   0.14106   0.18299   0.28494   0.28652
 Alpha virt. eigenvalues --    0.29896   0.31967   0.33204   0.34109   0.36721
 Alpha virt. eigenvalues --    0.39346   0.42496   0.50621   0.55729   0.63789
 Alpha virt. eigenvalues --    0.64407   0.65447   0.67794   0.67923   0.68746
 Alpha virt. eigenvalues --    0.71485   0.87319   0.87891   0.96118   0.96315
 Alpha virt. eigenvalues --    1.37470   1.37693   1.44198   1.44213   1.48805
 Alpha virt. eigenvalues --    1.49463   1.49622   1.50797   1.60717   1.61156
 Alpha virt. eigenvalues --    1.61385   1.65590   1.67953   1.68081   2.01346
 Alpha virt. eigenvalues --    2.02721   2.12225   2.12976   2.55562   2.56514
 Alpha virt. eigenvalues --    2.62365   2.69894   6.98249   7.05164  13.98130
 Alpha virt. eigenvalues --   14.02574  14.03694  14.03730  14.04304  14.04333
 Alpha virt. eigenvalues --  163.24623 163.33590
  Beta  occ. eigenvalues --  -78.04902 -78.04901  -6.87267  -6.87266  -4.98819
  Beta  occ. eigenvalues --   -4.98819  -4.98699  -4.98698  -4.98507  -4.98506
  Beta  occ. eigenvalues --   -0.71403  -0.70575  -0.45424  -0.45351  -0.36260
  Beta  occ. eigenvalues --   -0.35243  -0.26154
  Beta virt. eigenvalues --   -0.12645   0.01580   0.02860   0.03596   0.03847
  Beta virt. eigenvalues --    0.05647   0.05910   0.05990   0.06028   0.06624
  Beta virt. eigenvalues --    0.08471   0.14106   0.18299   0.28494   0.28652
  Beta virt. eigenvalues --    0.29896   0.31967   0.33204   0.34109   0.36721
  Beta virt. eigenvalues --    0.39346   0.42496   0.50621   0.55729   0.63789
  Beta virt. eigenvalues --    0.64407   0.65447   0.67794   0.67923   0.68746
  Beta virt. eigenvalues --    0.71485   0.87319   0.87891   0.96118   0.96315
  Beta virt. eigenvalues --    1.37470   1.37693   1.44198   1.44213   1.48805
  Beta virt. eigenvalues --    1.49463   1.49622   1.50797   1.60717   1.61156
  Beta virt. eigenvalues --    1.61385   1.65590   1.67953   1.68081   2.01346
  Beta virt. eigenvalues --    2.02721   2.12225   2.12976   2.55562   2.56514
  Beta virt. eigenvalues --    2.62365   2.69894   6.98249   7.05164  13.98130
  Beta virt. eigenvalues --   14.02574  14.03694  14.03730  14.04304  14.04333
  Beta virt. eigenvalues --  163.24623 163.33590
          Condensed to atoms (all electrons):
               1          2          3          4          5          6
     1  P   14.317602   0.178693  -0.007202   0.267390  -0.005555   0.259975
     2  P    0.178693  14.317601   0.267390  -0.007201   0.259976  -0.005555
     3  H   -0.007202   0.267390   0.754742   0.000190  -0.022962   0.000227
     4  H    0.267390  -0.007201   0.000190   0.754745   0.000227  -0.022962
     5  H   -0.005555   0.259976  -0.022962   0.000227   0.764764   0.000258
     6  H    0.259975  -0.005555   0.000227  -0.022962   0.000258   0.764764
          Atomic-Atomic Spin Densities.
               1          2          3          4          5          6
     1  P    0.000000  -0.000000   0.000000  -0.000000  -0.000000  -0.000000
     2  P   -0.000000  -0.000000   0.000000   0.000000   0.000000  -0.000000
     3  H    0.000000   0.000000   0.000000   0.000000   0.000000   0.000000
     4  H   -0.000000   0.000000   0.000000   0.000000   0.000000   0.000000
     5  H   -0.000000   0.000000   0.000000   0.000000  -0.000000   0.000000
     6  H   -0.000000  -0.000000   0.000000   0.000000   0.000000  -0.000000
 Mulliken charges and spin densities:
               1          2
     1  P   -0.010904   0.000000
     2  P   -0.010904  -0.000000
     3  H    0.007613   0.000000
     4  H    0.007611  -0.000000
     5  H    0.003291   0.000000
     6  H    0.003292  -0.000000
 Sum of Mulliken charges =  -0.00000  -0.00000
 Mulliken charges and spin densities with hydrogens summed into heavy atoms:
               1          2
     1  P   -0.000000   0.000000
     2  P    0.000000  -0.000000
 Electronic spatial extent (au):  <R**2>=            515.1219
 Charge=             -0.0000 electrons
 Dipole moment (field-independent basis, Debye):
    X=             -0.0000    Y=             -0.0788    Z=             -1.2526  Tot=              1.2551
 Quadrupole moment (field-independent basis, Debye-Ang):
   XX=            -27.4393   YY=            -29.6047   ZZ=            -30.4970
   XY=             -2.5625   XZ=              0.1611   YZ=             -0.0563
 Traceless Quadrupole moment (field-independent basis, Debye-Ang):
   XX=              1.7410   YY=             -0.4244   ZZ=             -1.3167
   XY=             -2.5625   XZ=              0.1611   YZ=             -0.0563
 Octapole moment (field-independent basis, Debye-Ang**2):
  XXX=              0.0001  YYY=              0.3917  ZZZ=              6.2656  XYY=             -0.3818
  XXY=             -0.3450  XXZ=             -5.4885  XZZ=              0.3819  YZZ=              0.1328
  YYZ=              2.0768  XYZ=             -3.0248
 Hexadecapole moment (field-independent basis, Debye-Ang**3):
 XXXX=           -654.8638 YYYY=            -64.8727 ZZZZ=            -67.3476 XXXY=             -2.9885
 XXXZ=              0.1880 YYYX=              8.0512 YYYZ=             -0.2516 ZZZX=             -0.5462
 ZZZY=              0.0953 XXYY=           -119.3690 XXZZ=           -122.8124 YYZZ=            -22.9382
 XXYZ=             -0.2173 YYXZ=             -0.1419 ZZXY=              2.8941
 N-N= 6.347432095030D+01 E-N=-1.756233797629D+03  KE= 6.838462104848D+02
                          Isotropic Fermi Contact Couplings
        Atom                 a.u.       MegaHertz       Gauss      10(-4) cm-1
     1  P(31)              0.00000       0.00000       0.00000       0.00000
     2  P(31)             -0.00000      -0.00000      -0.00000      -0.00000
     3  H(1)               0.00000       0.00000       0.00000       0.00000
     4  H(1)              -0.00000      -0.00000      -0.00000      -0.00000
     5  H(1)               0.00000       0.00000       0.00000       0.00000
     6  H(1)               0.00000       0.00000       0.00000       0.00000
 --------------------------------------------------------
       Center         ----  Spin Dipole Couplings  ----
                      3XX-RR        3YY-RR        3ZZ-RR
 --------------------------------------------------------
     1   Atom        0.000000      0.000000      0.000000
     2   Atom        0.000000      0.000000      0.000000
     3   Atom        0.000000      0.000000      0.000000
     4   Atom        0.000000      0.000000      0.000000
     5   Atom        0.000000      0.000000      0.000000
     6   Atom        0.000000      0.000000      0.000000
 --------------------------------------------------------
                        XY            XZ            YZ
 --------------------------------------------------------
     1   Atom        0.000000      0.000000      0.000000
     2   Atom        0.000000      0.000000      0.000000
     3   Atom        0.000000      0.000000      0.000000
     4   Atom        0.000000      0.000000      0.000000
     5   Atom        0.000000      0.000000      0.000000
     6   Atom        0.000000      0.000000      0.000000
 --------------------------------------------------------


 ---------------------------------------------------------------------------------
              Anisotropic Spin Dipole Couplings in Principal Axis System
 ---------------------------------------------------------------------------------

       Atom             a.u.   MegaHertz   Gauss  10(-4) cm-1        Axes

              Baa     0.0000     0.000     0.000     0.000  1.0000  0.0000  0.0000
     1 P(31)  Bbb     0.0000     0.000     0.000     0.000 -0.0000  1.0000  0.0000
              Bcc     0.0000     0.000     0.000     0.000  0.0000  0.0000  1.0000
 
              Baa     0.0000     0.000     0.000     0.000  1.0000  0.0000  0.0000
     2 P(31)  Bbb     0.0000     0.000     0.000     0.000 -0.0000  1.0000  0.0000
              Bcc     0.0000     0.000     0.000     0.000  0.0000  0.0000  1.0000
 
              Baa     0.0000     0.000     0.000     0.000  1.0000  0.0000  0.0000
     3 H(1)   Bbb     0.0000     0.000     0.000     0.000 -0.0000  1.0000  0.0000
              Bcc     0.0000     0.000     0.000     0.000  0.0000  0.0000  1.0000
 
              Baa     0.0000     0.000     0.000     0.000  1.0000  0.0000  0.0000
     4 H(1)   Bbb     0.0000     0.000     0.000     0.000 -0.0000  1.0000  0.0000
              Bcc     0.0000     0.000     0.000     0.000  0.0000  0.0000  1.0000
 
              Baa     0.0000     0.000     0.000     0.000  1.0000  0.0000  0.0000
     5 H(1)   Bbb     0.0000     0.000     0.000     0.000 -0.0000  1.0000  0.0000
              Bcc     0.0000     0.000     0.000     0.000  0.0000  0.0000  1.0000
 
              Baa     0.0000     0.000     0.000     0.000  1.0000  0.0000  0.0000
     6 H(1)   Bbb     0.0000     0.000     0.000     0.000 -0.0000  1.0000  0.0000
              Bcc     0.0000     0.000     0.000     0.000  0.0000  0.0000  1.0000
 

 ---------------------------------------------------------------------------------

 No NMR shielding tensors so no spin-rotation constants.
 Leave Link  601 at Mon Apr 21 20:42:15 2025, MaxMem=   536870912 cpu:               2.9 elap:               0.5
 (Enter /home/szhao/Apps/g16/l701.exe)
 ... and contract with generalized density number  0.
 Compute integral first derivatives.
 Leave Link  701 at Mon Apr 21 20:42:15 2025, MaxMem=   536870912 cpu:               1.5 elap:               0.2
 (Enter /home/szhao/Apps/g16/l702.exe)
 L702 exits ... SP integral derivatives will be done elsewhere.
 Leave Link  702 at Mon Apr 21 20:42:16 2025, MaxMem=   536870912 cpu:               0.6 elap:               0.2
 (Enter /home/szhao/Apps/g16/l703.exe)
 Integral derivatives from FoFJK, PRISM(SPDF).
 Compute integral first derivatives, UseDBF=F ICtDFT=           0.
 Calling FoFJK, ICntrl=      2127 FMM=F ISym2X=0 I1Cent= 0 IOpClX= 1 NMat=1 NMatS=1 NMatT=0.
 FoFJK:  IHMeth= 1 ICntrl=    2127 DoSepK=F KAlg= 0 I1Cent=           0 FoldK=F
 IRaf=         0 NMat=       1 IRICut=       1 DoRegI=T DoRafI=F ISym2E= 0 IDoP0=0 IntGTp=1.
 FoFCou: FMM=F IPFlag=           0 FMFlag=      100000 FMFlg1=         800
         NFxFlg=           0 DoJE=F BraDBF=F KetDBF=F FulRan=T
         wScrn=  0.000000 ICntrl=      2127 IOpCl=  1 I1Cent=           0 NGrid=           0
         NMat0=    1 NMatS0=      1 NMatT0=    0 NMatD0=    1 NMtDS0=    0 NMtDT0=    0
 Symmetry not used in FoFCou.
 Leave Link  703 at Mon Apr 21 20:42:18 2025, MaxMem=   536870912 cpu:              18.6 elap:               2.4
 (Enter /home/szhao/Apps/g16/l716.exe)
 Dipole        =-5.82054908D-07-3.09853704D-02-4.92806203D-01
 -------------------------------------------------------------------
 Center     Atomic                   Forces (Hartrees/Bohr)
 Number     Number              X              Y              Z
 -------------------------------------------------------------------
      1       15          -0.000000000   -0.000000000   -0.000000000
      2       15          -0.000000000   -0.000000000   -0.000000000
      3        1          -0.002346871   -0.001948724   -0.002396834
      4        1           0.002347371    0.001624297   -0.002636131
      5        1          -0.002448067   -0.002205699   -0.002174157
      6        1           0.002443951    0.001911612   -0.002426212
 -------------------------------------------------------------------
 Cartesian Forces:  Max     0.002636131 RMS     0.001844611
 Leave Link  716 at Mon Apr 21 20:42:19 2025, MaxMem=   536870912 cpu:               0.7 elap:               0.2
 (Enter /home/szhao/Apps/g16/l103.exe)

 GradGradGradGradGradGradGradGradGradGradGradGradGradGradGradGradGradGrad
 Berny optimization.
 FormGI is forming the generalized inverse of G from B-inverse, IUseBI=4.
 Internal  Forces:  Max     0.007557993 RMS     0.004627333
 Search for a local minimum.
 Step number   1 out of a maximum of   30
 All quantities printed in internal units (Hartrees-Bohrs-Radians)
 RMS Force = .43872D-02 SwitMx=.10000D-02 MixMth= 1
 Mixed Optimization -- RFO/linear search
 Second derivative matrix not updated -- first step.
 The second derivative matrix:
                          X1        Y1        Z1        X2        Y2
           X1           0.50000
           Y1           0.00000   0.50000
           Z1           0.00000   0.00000   0.50000
           X2           0.00000   0.00000   0.00000   0.50000
           Y2           0.00000   0.00000   0.00000   0.00000   0.50000
           Z2           0.00000   0.00000   0.00000   0.00000   0.00000
           R1           0.00000   0.00000   0.00000   0.00000   0.00000
           R2           0.00000   0.00000   0.00000   0.00000   0.00000
           R3           0.00000   0.00000   0.00000   0.00000   0.00000
           R4           0.00000   0.00000   0.00000   0.00000   0.00000
           A1           0.00000   0.00000   0.00000   0.00000   0.00000
           A2           0.00000   0.00000   0.00000   0.00000   0.00000
           A3           0.00000   0.00000   0.00000   0.00000   0.00000
           A4           0.00000   0.00000   0.00000   0.00000   0.00000
           A5           0.00000   0.00000   0.00000   0.00000   0.00000
           A6           0.00000   0.00000   0.00000   0.00000   0.00000
           D1           0.00000   0.00000   0.00000   0.00000   0.00000
           D2           0.00000   0.00000   0.00000   0.00000   0.00000
           D3           0.00000   0.00000   0.00000   0.00000   0.00000
           D4           0.00000   0.00000   0.00000   0.00000   0.00000
                          Z2        R1        R2        R3        R4
           Z2           0.50000
           R1           0.00000   0.21281
           R2           0.00000   0.00000   0.21209
           R3           0.00000   0.00000   0.00000   0.21281
           R4           0.00000   0.00000   0.00000   0.00000   0.21209
           A1           0.00000   0.00000   0.00000   0.00000   0.00000
           A2           0.00000   0.00000   0.00000   0.00000   0.00000
           A3           0.00000   0.00000   0.00000   0.00000   0.00000
           A4           0.00000   0.00000   0.00000   0.00000   0.00000
           A5           0.00000   0.00000   0.00000   0.00000   0.00000
           A6           0.00000   0.00000   0.00000   0.00000   0.00000
           D1           0.00000   0.00000   0.00000   0.00000   0.00000
           D2           0.00000   0.00000   0.00000   0.00000   0.00000
           D3           0.00000   0.00000   0.00000   0.00000   0.00000
           D4           0.00000   0.00000   0.00000   0.00000   0.00000
                          A1        A2        A3        A4        A5
           A1           0.16000
           A2           0.00000   0.16000
           A3           0.00000   0.00000   0.16000
           A4           0.00000   0.00000   0.00000   0.16000
           A5           0.00000   0.00000   0.00000   0.00000   0.16000
           A6           0.00000   0.00000   0.00000   0.00000   0.00000
           D1           0.00000   0.00000   0.00000   0.00000   0.00000
           D2           0.00000   0.00000   0.00000   0.00000   0.00000
           D3           0.00000   0.00000   0.00000   0.00000   0.00000
           D4           0.00000   0.00000   0.00000   0.00000   0.00000
                          A6        D1        D2        D3        D4
           A6           0.16000
           D1           0.00000   0.00230
           D2           0.00000   0.00000   0.00230
           D3           0.00000   0.00000   0.00000   0.00230
           D4           0.00000   0.00000   0.00000   0.00000   0.00230
 ITU=  0
     Eigenvalues ---    0.00230   0.07808   0.07808   0.16000   0.16000
     Eigenvalues ---    0.16000   0.16000   0.21209   0.21209   0.21281
     Eigenvalues ---    0.212811000.000001000.000001000.000001000.00000
     Eigenvalues --- 1000.000001000.000001000.000001000.000001000.00000
 RFO step:  Lambda=-2.07830787D-03 EMin= 2.30000000D-03
 Linear search not attempted -- first point.
 Iteration  1 RMS(Cart)=  0.06494272 RMS(Int)=  0.00189923
 Iteration  2 RMS(Cart)=  0.00216536 RMS(Int)=  0.00068366
 Iteration  3 RMS(Cart)=  0.00000398 RMS(Int)=  0.00068365
 Iteration  4 RMS(Cart)=  0.00000001 RMS(Int)=  0.00068365
 ITry= 1 IFail=0 DXMaxC= 1.29D-01 DCOld= 1.00D+10 DXMaxT= 3.00D-01 DXLimC= 3.00D+00 Rises=F
 Variable       Old X    -DE/DX   Delta X   Delta X   Delta X     New X
                                 (Linear)    (Quad)   (Total)
    X1       -3.48128   0.00479   0.00000   0.00000   0.00000  -3.48128
    Y1        0.00000   0.00544   0.00000   0.00000   0.00000   0.00000
    Z1        0.00000  -0.00518   0.00000   0.00000   0.00000   0.00000
    X2        3.48128  -0.00479   0.00000   0.00000   0.00000   3.48128
    Y2        0.00000  -0.00605   0.00000   0.00000   0.00000   0.00000
    Z2        0.00000  -0.00446   0.00000   0.00000   0.00000   0.00000
    R1        2.67226   0.00174   0.00000   0.00810   0.00810   2.68036
    R2        2.67454   0.00153   0.00000   0.00715   0.00715   2.68168
    R3        2.67226   0.00175   0.00000   0.00814   0.00814   2.68040
    R4        2.67453   0.00154   0.00000   0.00717   0.00717   2.68171
    A1        1.65352  -0.00706   0.00000  -0.04799  -0.04818   1.60534
    A2        1.74123  -0.00755   0.00000  -0.04896  -0.04902   1.69221
    A3        1.63989  -0.00217   0.00000  -0.03844  -0.03997   1.59992
    A4        1.65351  -0.00706   0.00000  -0.04798  -0.04817   1.60534
    A5        1.74123  -0.00756   0.00000  -0.04903  -0.04909   1.69214
    A6        1.63988  -0.00216   0.00000  -0.03837  -0.03990   1.59998
    D1       -3.01600   0.00425   0.00000   0.06018   0.05866  -2.95734
    D2       -1.36055   0.00004   0.00000   0.00764   0.00764  -1.35291
    D3       -1.36054   0.00003   0.00000   0.00757   0.00757  -1.35297
    D4        0.29491  -0.00418   0.00000  -0.04496  -0.04345   0.25146
         Item               Value     Threshold  Converged?
 Maximum Force            0.007558     0.000450     NO 
 RMS     Force            0.004387     0.000300     NO 
 Maximum Displacement     0.129025     0.001800     NO 
 RMS     Displacement     0.065915     0.001200     NO 
 Predicted change in Energy=-1.032991D-03
 Lowest energy point so far.  Saving SCF results.
 GradGradGradGradGradGradGradGradGradGradGradGradGradGradGradGradGradGrad

 Leave Link  103 at Mon Apr 21 20:42:19 2025, MaxMem=   536870912 cpu:               0.9 elap:               0.2
 (Enter /home/szhao/Apps/g16/l202.exe)
                          Input orientation:                          
 ---------------------------------------------------------------------
 Center     Atomic      Atomic             Coordinates (Angstroms)
 Number     Number       Type             X           Y           Z
 ---------------------------------------------------------------------
      1         15           0       -1.842217    0.000000    0.000000
      2         15           0        1.842217    0.000000    0.000000
      3          1           0        1.891210   -1.416977   -0.040558
      4          1           0       -1.891208    1.400406   -0.219731
      5          1           0        2.013988    0.087638   -1.405935
      6          1           0       -2.014094   -0.264938   -1.383499
 ---------------------------------------------------------------------
                    Distance matrix (angstroms):
                    1          2          3          4          5
     1  P    0.000000
     2  P    3.684433   0.000000
     3  H    3.993487   1.418404   0.000000
     4  H    1.418386   3.993479   4.719792   0.000000
     5  H    4.105441   1.419098   2.035484   4.287306   0.000000
     6  H    1.419086   4.105532   4.287433   2.035394   4.043545
                    6
     6  H    0.000000
 Symmetry turned off by external request.
 Stoichiometry    H4P2
 Framework group  C1[X(H4P2)]
 Deg. of freedom    12
 Full point group                 C1      NOp   1
 Rotational constants (GHZ):          64.7250205           2.2016452           2.2001735
 Leave Link  202 at Mon Apr 21 20:42:19 2025, MaxMem=   536870912 cpu:               0.3 elap:               0.1
 (Enter /home/szhao/Apps/g16/l301.exe)
 Standard basis: 6-311+G(d,p) (5D, 7F)
 Ernie: Thresh=  0.10000D-02 Tol=  0.10000D-05 Strict=F.
    84 basis functions,   132 primitive gaussians,    86 cartesian basis functions
    17 alpha electrons       17 beta electrons
       nuclear repulsion energy        63.5470286202 Hartrees.
 IExCor= 4336 DFT=T Ex+Corr=M062X ExCW=0 ScaHFX=  0.540000
 ScaDFX=  1.000000  1.000000  1.000000  1.000000 ScalE2=  1.000000  1.000000
 IRadAn=      7 IRanWt=     -1 IRanGd=            0 ICorTp=0 IEmpDi=  4
 NAtoms=    6 NActive=    6 NUniq=    6 SFac= 1.00D+00 NAtFMM=   60 NAOKFM=F Big=F
 Integral buffers will be    131072 words long.
 Raffenetti 2 integral format.
 Two-electron integral symmetry is turned off.
 Leave Link  301 at Mon Apr 21 20:42:19 2025, MaxMem=   536870912 cpu:               0.5 elap:               0.1
 (Enter /home/szhao/Apps/g16/l302.exe)
 NPDir=0 NMtPBC=     1 NCelOv=     1 NCel=       1 NClECP=     1 NCelD=      1
         NCelK=      1 NCelE2=     1 NClLst=     1 CellRange=     0.0.
 One-electron integrals computed using PRISM.
 NBasis=    84 RedAO= T EigKep=  4.33D-03  NBF=    84
 NBsUse=    84 1.00D-06 EigRej= -1.00D+00 NBFU=    84
 Precomputing XC quadrature grid using
 IXCGrd= 4 IRadAn=           7 IRanWt=          -1 IRanGd=           0 AccXCQ= 0.00D+00.
 Generated NRdTot=       0 NPtTot=           0 NUsed=           0 NTot=          32
 NSgBfM=    80    80    80    80    80 MxSgAt=     6 MxSgA2=     6.
 Leave Link  302 at Mon Apr 21 20:42:20 2025, MaxMem=   536870912 cpu:               1.9 elap:               0.3
 (Enter /home/szhao/Apps/g16/l303.exe)
 DipDrv:  MaxL=1.
 Leave Link  303 at Mon Apr 21 20:42:20 2025, MaxMem=   536870912 cpu:               0.3 elap:               0.2
 (Enter /home/szhao/Apps/g16/l401.exe)
 Initial guess from the checkpoint file:  "opt.chk"
 B after Tr=    -0.000005   -0.000420   -0.006639
         Rot=    0.999999    0.000349    0.000078    0.001232 Ang=   0.15 deg.
 Guess basis will be translated and rotated to current coordinates.
 JPrj=2 DoOrth=T DoCkMO=T.
 Initial guess <Sx>= 0.0000 <Sy>= 0.0000 <Sz>= 0.0000 <S**2>= 0.0000 S= 0.0000
 Generating alternative initial guess.
 ExpMin= 3.48D-02 ExpMax= 7.75D+04 ExpMxC= 2.65D+03 IAcc=3 IRadAn=         5 AccDes= 0.00D+00
 Harris functional with IExCor= 1009 and IRadAn=       5 diagonalized for initial guess.
 HarFok:  IExCor= 1009 AccDes= 0.00D+00 IRadAn=         5 IDoV= 1 UseB2=F ITyADJ=14
 ICtDFT=  3500011 ScaDFX=  1.000000  1.000000  1.000000  1.000000
 FoFCou: FMM=F IPFlag=           0 FMFlag=      100000 FMFlg1=           0
         NFxFlg=           0 DoJE=T BraDBF=F KetDBF=T FulRan=T
         wScrn=  0.000000 ICntrl=       500 IOpCl=  0 I1Cent=   200000004 NGrid=           0
         NMat0=    1 NMatS0=      1 NMatT0=    0 NMatD0=    1 NMtDS0=    0 NMtDT0=    0
 Symmetry not used in FoFCou.
 Harris En= -684.672828697647    
 Leave Link  401 at Mon Apr 21 20:42:21 2025, MaxMem=   536870912 cpu:               2.6 elap:               0.4
 (Enter /home/szhao/Apps/g16/l502.exe)
 Keep R1 and R2 ints in memory in canonical form, NReq=20057634.
 FoFCou: FMM=F IPFlag=           0 FMFlag=           0 FMFlg1=           0
         NFxFlg=           0 DoJE=F BraDBF=F KetDBF=F FulRan=T
         wScrn=  0.000000 ICntrl=       600 IOpCl=  0 I1Cent=           0 NGrid=           0
         NMat0=    1 NMatS0=   3570 NMatT0=    0 NMatD0=    1 NMtDS0=    0 NMtDT0=    0
 Symmetry not used in FoFCou.
 Two-electron integral symmetry not used.
 UHF open shell SCF:
 Using DIIS extrapolation, IDIIS=  1040.
 NGot=   536870912 LenX=   524106186 LenY=   524098349
 Requested convergence on RMS density matrix=1.00D-08 within 128 cycles.
 Requested convergence on MAX density matrix=1.00D-06.
 Requested convergence on             energy=1.00D-06.
 No special actions if energy rises.

 Cycle   1  Pass 1  IDiag  1:
 E= -684.951775700467    
 DIIS: error= 2.36D-03 at cycle   1 NSaved=   1.
 NSaved= 1 IEnMin= 1 EnMin= -684.951775700467     IErMin= 1 ErrMin= 2.36D-03
 ErrMax= 2.36D-03  0.00D+00 EMaxC= 1.00D-01 BMatC= 1.83D-03 BMatP= 1.83D-03
 IDIUse=3 WtCom= 9.76D-01 WtEn= 2.36D-02
 Coeff-Com:  0.100D+01
 Coeff-En:   0.100D+01
 Coeff:      0.100D+01
 Gap=     0.404 Goal=   None    Shift=    0.000
 Gap=     0.404 Goal=   None    Shift=    0.000
 GapD=    0.404 DampG=2.000 DampE=1.000 DampFc=2.0000 IDamp=-1.
 RMSDP=5.21D-04 MaxDP=7.25D-03              OVMax= 2.04D-02

 Cycle   2  Pass 1  IDiag  1:
 E= -684.952861893042     Delta-E=       -0.001086192575 Rises=F Damp=F
 DIIS: error= 5.70D-04 at cycle   2 NSaved=   2.
 NSaved= 2 IEnMin= 2 EnMin= -684.952861893042     IErMin= 2 ErrMin= 5.70D-04
 ErrMax= 5.70D-04  0.00D+00 EMaxC= 1.00D-01 BMatC= 9.50D-05 BMatP= 1.83D-03
 IDIUse=3 WtCom= 9.94D-01 WtEn= 5.70D-03
 Coeff-Com: -0.123D+00 0.112D+01
 Coeff-En:   0.000D+00 0.100D+01
 Coeff:     -0.122D+00 0.112D+01
 Gap=     0.136 Goal=   None    Shift=    0.000
 Gap=     0.136 Goal=   None    Shift=    0.000
 RMSDP=1.40D-04 MaxDP=1.40D-03 DE=-1.09D-03 OVMax= 9.10D-03

 Cycle   3  Pass 1  IDiag  1:
 E= -684.952961139280     Delta-E=       -0.000099246239 Rises=F Damp=F
 DIIS: error= 1.51D-04 at cycle   3 NSaved=   3.
 NSaved= 3 IEnMin= 3 EnMin= -684.952961139280     IErMin= 3 ErrMin= 1.51D-04
 ErrMax= 1.51D-04  0.00D+00 EMaxC= 1.00D-01 BMatC= 6.75D-06 BMatP= 9.50D-05
 IDIUse=3 WtCom= 9.98D-01 WtEn= 1.51D-03
 Coeff-Com: -0.295D-01 0.677D-01 0.962D+00
 Coeff-En:   0.000D+00 0.000D+00 0.100D+01
 Coeff:     -0.295D-01 0.676D-01 0.962D+00
 Gap=     0.136 Goal=   None    Shift=    0.000
 Gap=     0.136 Goal=   None    Shift=    0.000
 RMSDP=6.59D-05 MaxDP=1.14D-03 DE=-9.92D-05 OVMax= 3.96D-03

 Cycle   4  Pass 1  IDiag  1:
 E= -684.952972088360     Delta-E=       -0.000010949080 Rises=F Damp=F
 DIIS: error= 9.07D-05 at cycle   4 NSaved=   4.
 NSaved= 4 IEnMin= 4 EnMin= -684.952972088360     IErMin= 4 ErrMin= 9.07D-05
 ErrMax= 9.07D-05  0.00D+00 EMaxC= 1.00D-01 BMatC= 2.60D-06 BMatP= 6.75D-06
 IDIUse=1 WtCom= 1.00D+00 WtEn= 0.00D+00
 Coeff-Com:  0.153D-01-0.188D+00 0.160D+00 0.101D+01
 Coeff:      0.153D-01-0.188D+00 0.160D+00 0.101D+01
 Gap=     0.137 Goal=   None    Shift=    0.000
 Gap=     0.137 Goal=   None    Shift=    0.000
 RMSDP=2.54D-05 MaxDP=2.53D-04 DE=-1.09D-05 OVMax= 1.88D-03

 Cycle   5  Pass 1  IDiag  1:
 E= -684.952974306186     Delta-E=       -0.000002217826 Rises=F Damp=F
 DIIS: error= 1.09D-05 at cycle   5 NSaved=   5.
 NSaved= 5 IEnMin= 5 EnMin= -684.952974306186     IErMin= 5 ErrMin= 1.09D-05
 ErrMax= 1.09D-05  0.00D+00 EMaxC= 1.00D-01 BMatC= 4.48D-08 BMatP= 2.60D-06
 IDIUse=1 WtCom= 1.00D+00 WtEn= 0.00D+00
 Coeff-Com:  0.716D-03 0.797D-02-0.424D-01-0.101D+00 0.113D+01
 Coeff:      0.716D-03 0.797D-02-0.424D-01-0.101D+00 0.113D+01
 Gap=     0.137 Goal=   None    Shift=    0.000
 Gap=     0.137 Goal=   None    Shift=    0.000
 RMSDP=6.72D-06 MaxDP=9.41D-05 DE=-2.22D-06 OVMax= 3.94D-04

 Cycle   6  Pass 1  IDiag  1:
 E= -684.952974357124     Delta-E=       -0.000000050938 Rises=F Damp=F
 DIIS: error= 1.21D-05 at cycle   6 NSaved=   6.
 NSaved= 6 IEnMin= 6 EnMin= -684.952974357124     IErMin= 5 ErrMin= 1.09D-05
 ErrMax= 1.21D-05  0.00D+00 EMaxC= 1.00D-01 BMatC= 5.67D-08 BMatP= 4.48D-08
 IDIUse=1 WtCom= 1.00D+00 WtEn= 0.00D+00
 Coeff-Com: -0.497D-03 0.165D-01-0.365D-01-0.125D+00 0.715D+00 0.431D+00
 Coeff:     -0.497D-03 0.165D-01-0.365D-01-0.125D+00 0.715D+00 0.431D+00
 Gap=     0.137 Goal=   None    Shift=    0.000
 Gap=     0.137 Goal=   None    Shift=    0.000
 RMSDP=2.52D-06 MaxDP=6.95D-05 DE=-5.09D-08 OVMax= 1.99D-04

 Cycle   7  Pass 1  IDiag  1:
 E= -684.952974381430     Delta-E=       -0.000000024306 Rises=F Damp=F
 DIIS: error= 4.34D-06 at cycle   7 NSaved=   7.
 NSaved= 7 IEnMin= 7 EnMin= -684.952974381430     IErMin= 7 ErrMin= 4.34D-06
 ErrMax= 4.34D-06  0.00D+00 EMaxC= 1.00D-01 BMatC= 7.78D-09 BMatP= 4.48D-08
 IDIUse=1 WtCom= 1.00D+00 WtEn= 0.00D+00
 Coeff-Com: -0.582D-03 0.950D-02-0.142D-01-0.589D-01 0.161D+00 0.284D+00
 Coeff-Com:  0.619D+00
 Coeff:     -0.582D-03 0.950D-02-0.142D-01-0.589D-01 0.161D+00 0.284D+00
 Coeff:      0.619D+00
 Gap=     0.137 Goal=   None    Shift=    0.000
 Gap=     0.137 Goal=   None    Shift=    0.000
 RMSDP=9.32D-07 MaxDP=1.97D-05 DE=-2.43D-08 OVMax= 5.65D-05

 Cycle   8  Pass 1  IDiag  1:
 E= -684.952974385364     Delta-E=       -0.000000003934 Rises=F Damp=F
 DIIS: error= 2.76D-07 at cycle   8 NSaved=   8.
 NSaved= 8 IEnMin= 8 EnMin= -684.952974385364     IErMin= 8 ErrMin= 2.76D-07
 ErrMax= 2.76D-07  0.00D+00 EMaxC= 1.00D-01 BMatC= 7.88D-11 BMatP= 7.78D-09
 IDIUse=1 WtCom= 1.00D+00 WtEn= 0.00D+00
 Coeff-Com: -0.308D-04 0.391D-04 0.149D-03 0.232D-02-0.334D-01 0.361D-02
 Coeff-Com:  0.833D-01 0.944D+00
 Coeff:     -0.308D-04 0.391D-04 0.149D-03 0.232D-02-0.334D-01 0.361D-02
 Coeff:      0.833D-01 0.944D+00
 Gap=     0.137 Goal=   None    Shift=    0.000
 Gap=     0.137 Goal=   None    Shift=    0.000
 RMSDP=2.32D-07 MaxDP=3.52D-06 DE=-3.93D-09 OVMax= 6.89D-06

 Cycle   9  Pass 1  IDiag  1:
 E= -684.952974385419     Delta-E=       -0.000000000055 Rises=F Damp=F
 DIIS: error= 8.69D-08 at cycle   9 NSaved=   9.
 NSaved= 9 IEnMin= 9 EnMin= -684.952974385419     IErMin= 9 ErrMin= 8.69D-08
 ErrMax= 8.69D-08  0.00D+00 EMaxC= 1.00D-01 BMatC= 4.18D-12 BMatP= 7.88D-11
 IDIUse=1 WtCom= 1.00D+00 WtEn= 0.00D+00
 Coeff-Com:  0.152D-04-0.344D-03 0.599D-03 0.292D-02-0.135D-01-0.103D-01
 Coeff-Com: -0.667D-02 0.198D+00 0.829D+00
 Coeff:      0.152D-04-0.344D-03 0.599D-03 0.292D-02-0.135D-01-0.103D-01
 Coeff:     -0.667D-02 0.198D+00 0.829D+00
 Gap=     0.137 Goal=   None    Shift=    0.000
 Gap=     0.137 Goal=   None    Shift=    0.000
 RMSDP=3.66D-08 MaxDP=5.94D-07 DE=-5.50D-11 OVMax= 1.32D-06

 Cycle  10  Pass 1  IDiag  1:
 E= -684.952974385421     Delta-E=       -0.000000000002 Rises=F Damp=F
 DIIS: error= 1.33D-08 at cycle  10 NSaved=  10.
 NSaved=10 IEnMin=10 EnMin= -684.952974385421     IErMin=10 ErrMin= 1.33D-08
 ErrMax= 1.33D-08  0.00D+00 EMaxC= 1.00D-01 BMatC= 1.04D-13 BMatP= 4.18D-12
 IDIUse=1 WtCom= 1.00D+00 WtEn= 0.00D+00
 Coeff-Com:  0.365D-05-0.320D-04 0.427D-04 0.547D-04 0.116D-02-0.708D-03
 Coeff-Com: -0.513D-02-0.496D-01-0.621D-02 0.106D+01
 Coeff:      0.365D-05-0.320D-04 0.427D-04 0.547D-04 0.116D-02-0.708D-03
 Coeff:     -0.513D-02-0.496D-01-0.621D-02 0.106D+01
 Gap=     0.137 Goal=   None    Shift=    0.000
 Gap=     0.137 Goal=   None    Shift=    0.000
 RMSDP=1.16D-08 MaxDP=1.48D-07 DE=-2.05D-12 OVMax= 4.75D-07

 Cycle  11  Pass 1  IDiag  1:
 E= -684.952974385422     Delta-E=       -0.000000000001 Rises=F Damp=F
 DIIS: error= 2.33D-09 at cycle  11 NSaved=  11.
 NSaved=11 IEnMin=11 EnMin= -684.952974385422     IErMin=11 ErrMin= 2.33D-09
 ErrMax= 2.33D-09  0.00D+00 EMaxC= 1.00D-01 BMatC= 2.45D-15 BMatP= 1.04D-13
 IDIUse=1 WtCom= 1.00D+00 WtEn= 0.00D+00
 Coeff-Com: -0.317D-06 0.782D-05-0.164D-04-0.518D-04 0.254D-03 0.328D-03
 Coeff-Com:  0.491D-03-0.374D-02-0.792D-02-0.578D-01 0.107D+01
 Coeff:     -0.317D-06 0.782D-05-0.164D-04-0.518D-04 0.254D-03 0.328D-03
 Coeff:      0.491D-03-0.374D-02-0.792D-02-0.578D-01 0.107D+01
 Gap=     0.137 Goal=   None    Shift=    0.000
 Gap=     0.137 Goal=   None    Shift=    0.000
 RMSDP=1.36D-09 MaxDP=2.05D-08 DE=-9.09D-13 OVMax= 5.22D-08

 SCF Done:  E(UM062X) =  -684.952974385     A.U. after   11 cycles
            NFock= 11  Conv=0.14D-08     -V/T= 2.0016
 <Sx>= 0.0000 <Sy>= 0.0000 <Sz>= 0.0000 <S**2>=-0.0000 S=-0.0000
 <L.S>=  0.00000000000    
 KE= 6.838304324485D+02 PE=-1.756360442131D+03 EE= 3.240300066764D+02
 Annihilation of the first spin contaminant:
 S**2 before annihilation    -0.0000,   after     0.0000
 Leave Link  502 at Mon Apr 21 20:42:34 2025, MaxMem=   536870912 cpu:             101.9 elap:              13.2
 (Enter /home/szhao/Apps/g16/l701.exe)
 ... and contract with generalized density number  0.
 Compute integral first derivatives.
 Leave Link  701 at Mon Apr 21 20:42:35 2025, MaxMem=   536870912 cpu:               1.8 elap:               0.3
 (Enter /home/szhao/Apps/g16/l702.exe)
 L702 exits ... SP integral derivatives will be done elsewhere.
 Leave Link  702 at Mon Apr 21 20:42:35 2025, MaxMem=   536870912 cpu:               0.6 elap:               0.1
 (Enter /home/szhao/Apps/g16/l703.exe)
 Integral derivatives from FoFJK, PRISM(SPDF).
 Compute integral first derivatives, UseDBF=F ICtDFT=           0.
 Calling FoFJK, ICntrl=      2127 FMM=F ISym2X=0 I1Cent= 0 IOpClX= 1 NMat=1 NMatS=1 NMatT=0.
 FoFJK:  IHMeth= 1 ICntrl=    2127 DoSepK=F KAlg= 0 I1Cent=           0 FoldK=F
 IRaf=         0 NMat=       1 IRICut=       1 DoRegI=T DoRafI=F ISym2E= 0 IDoP0=0 IntGTp=1.
 FoFCou: FMM=F IPFlag=           0 FMFlag=      100000 FMFlg1=         800
         NFxFlg=           0 DoJE=F BraDBF=F KetDBF=F FulRan=T
         wScrn=  0.000000 ICntrl=      2127 IOpCl=  1 I1Cent=           0 NGrid=           0
         NMat0=    1 NMatS0=      1 NMatT0=    0 NMatD0=    1 NMtDS0=    0 NMtDT0=    0
 Symmetry not used in FoFCou.
 Leave Link  703 at Mon Apr 21 20:42:37 2025, MaxMem=   536870912 cpu:              16.3 elap:               2.1
 (Enter /home/szhao/Apps/g16/l716.exe)
 Dipole        = 1.96407362D-05-3.10231764D-02-4.87701942D-01
 -------------------------------------------------------------------
 Center     Atomic                   Forces (Hartrees/Bohr)
 Number     Number              X              Y              Z
 -------------------------------------------------------------------
      1       15          -0.000000000   -0.000000000   -0.000000000
      2       15          -0.000000000   -0.000000000   -0.000000000
      3        1          -0.001773612   -0.000237308    0.000313124
      4        1           0.001771934    0.000281133    0.000289185
      5        1          -0.002203353    0.000318234   -0.000483179
      6        1           0.002209199   -0.000381638   -0.000449329
 -------------------------------------------------------------------
 Cartesian Forces:  Max     0.002209199 RMS     0.000972399
 Leave Link  716 at Mon Apr 21 20:42:37 2025, MaxMem=   536870912 cpu:               0.5 elap:               0.1
 (Enter /home/szhao/Apps/g16/l103.exe)

 GradGradGradGradGradGradGradGradGradGradGradGradGradGradGradGradGradGrad
 Berny optimization.
 Using GEDIIS/GDIIS optimizer.
 FormGI is forming the generalized inverse of G from B-inverse, IUseBI=4.
 Internal  Forces:  Max     0.006016037 RMS     0.002748914
 Search for a local minimum.
 Step number   2 out of a maximum of   30
 All quantities printed in internal units (Hartrees-Bohrs-Radians)
 RMS Force = .28944D-02 SwitMx=.10000D-02 MixMth= 1
 Mixed Optimization -- RFO/linear search
 Update second derivatives using D2CorX and points    1    2
 DE= -1.54D-03 DEPred=-1.03D-03 R= 1.49D+00
 TightC=F SS=  1.41D+00  RLast= 1.35D-01 DXNew= 5.0454D-01 4.0609D-01
 Trust test= 1.49D+00 RLast= 1.35D-01 DXMaxT set to 4.06D-01
 The second derivative matrix:
                          X1        Y1        Z1        X2        Y2
           X1           0.50060
           Y1           0.00327   0.51784
           Z1          -0.00365  -0.01992   0.52225
           X2          -0.00060  -0.00330   0.00368   0.50061
           Y2          -0.00370  -0.02019   0.02255   0.00373   0.52286
           Z2          -0.00322  -0.01759   0.01965   0.00325   0.01992
           R1           0.00116   0.00633  -0.00707  -0.00117  -0.00716
           R2           0.00095   0.00520  -0.00580  -0.00096  -0.00588
           R3           0.00117   0.00638  -0.00712  -0.00118  -0.00722
           R4           0.00096   0.00526  -0.00587  -0.00097  -0.00595
           A1          -0.00177  -0.00965   0.01078   0.00178   0.01093
           A2          -0.00113  -0.00617   0.00689   0.00114   0.00698
           A3          -0.00220  -0.01204   0.01344   0.00223   0.01362
           A4          -0.00176  -0.00963   0.01075   0.00178   0.01090
           A5          -0.00115  -0.00629   0.00703   0.00116   0.00712
           A6          -0.00219  -0.01197   0.01337   0.00221   0.01356
           D1           0.00316   0.01728  -0.01929  -0.00319  -0.01956
           D2           0.00005   0.00026  -0.00029  -0.00005  -0.00030
           D3           0.00004   0.00021  -0.00023  -0.00004  -0.00023
           D4          -0.00308  -0.01681   0.01877   0.00311   0.01903
                          Z2        R1        R2        R3        R4
           Z2           0.51735
           R1          -0.00624   0.21363
           R2          -0.00513   0.00059   0.21250
           R3          -0.00629   0.00083   0.00060   0.21365
           R4          -0.00519   0.00061   0.00043   0.00062   0.21253
           A1           0.00952   0.00295   0.00279   0.00295   0.00278
           A2           0.00608   0.00430   0.00390   0.00431   0.00390
           A3           0.01187   0.00102   0.00114   0.00101   0.00112
           A4           0.00950   0.00296   0.00280   0.00296   0.00278
           A5           0.00621   0.00426   0.00388   0.00427   0.00387
           A6           0.01181   0.00103   0.00115   0.00102   0.00113
           D1          -0.01704   0.00602   0.00494   0.00606   0.00499
           D2          -0.00026   0.00008   0.00006   0.00008   0.00006
           D3          -0.00020   0.00006   0.00005   0.00006   0.00005
           D4           0.01657  -0.00588  -0.00482  -0.00592  -0.00488
                          A1        A2        A3        A4        A5
           A1           0.13673
           A2          -0.02566   0.13264
           A3          -0.01713  -0.01989   0.14851
           A4          -0.02328  -0.02566  -0.01714   0.13671
           A5          -0.02563  -0.02737  -0.01984  -0.02563   0.13263
           A6          -0.01712  -0.01987  -0.01150  -0.01713  -0.01982
           D1          -0.00885  -0.00546  -0.01124  -0.00883  -0.00559
           D2          -0.00008  -0.00002  -0.00012  -0.00008  -0.00003
           D3          -0.00005  -0.00001  -0.00009  -0.00005  -0.00001
           D4           0.00872   0.00543   0.01103   0.00870   0.00555
                          A6        D1        D2        D3        D4
           A6           0.14850
           D1          -0.01118   0.01902
           D2          -0.00012   0.00025   0.00230
           D3          -0.00009   0.00020   0.00000   0.00230
           D4           0.01098  -0.01627  -0.00025  -0.00019   0.01813
 ITU=  1  0
 Use linear search instead of GDIIS.
     Eigenvalues ---    0.00231   0.05249   0.07987   0.11878   0.16000
     Eigenvalues ---    0.16000   0.16086   0.21209   0.21234   0.21281
     Eigenvalues ---    0.217481000.000001000.000001000.000001000.00000
     Eigenvalues --- 1000.000001000.000001000.000001000.000001000.00000
 RFO step:  Lambda=-9.65192694D-04 EMin= 2.30535721D-03
 Quartic linear search produced a step of  0.80867.
 Iteration  1 RMS(Cart)=  0.10014150 RMS(Int)=  0.00498259
 Iteration  2 RMS(Cart)=  0.00512674 RMS(Int)=  0.00214056
 Iteration  3 RMS(Cart)=  0.00001986 RMS(Int)=  0.00214054
 Iteration  4 RMS(Cart)=  0.00000009 RMS(Int)=  0.00214054
 ITry= 1 IFail=0 DXMaxC= 2.43D-01 DCOld= 1.00D+10 DXMaxT= 4.06D-01 DXLimC= 3.00D+00 Rises=F
 Variable       Old X    -DE/DX   Delta X   Delta X   Delta X     New X
                                 (Linear)    (Quad)   (Total)
    X1       -3.48128   0.00398   0.00000   0.00000   0.00000  -3.48128
    Y1        0.00000   0.00102   0.00000   0.00000   0.00000   0.00000
    Z1        0.00000  -0.00024   0.00000   0.00000   0.00000   0.00000
    X2        3.48128  -0.00398   0.00000   0.00000   0.00000   3.48128
    Y2        0.00000  -0.00104   0.00000   0.00000   0.00000   0.00000
    Z2        0.00000  -0.00009   0.00000   0.00000   0.00000   0.00000
    R1        2.68036   0.00017   0.00655  -0.00143   0.00512   2.68548
    R2        2.68168   0.00024   0.00578  -0.00048   0.00530   2.68698
    R3        2.68040   0.00017   0.00658  -0.00148   0.00510   2.68549
    R4        2.68171   0.00023   0.00580  -0.00058   0.00522   2.68693
    A1        1.60534  -0.00467  -0.03896  -0.03629  -0.07539   1.52995
    A2        1.69221  -0.00602  -0.03964  -0.05140  -0.09084   1.60137
    A3        1.59992   0.00082  -0.03232   0.02466  -0.01245   1.58747
    A4        1.60534  -0.00467  -0.03895  -0.03636  -0.07546   1.52989
    A5        1.69214  -0.00600  -0.03970  -0.05116  -0.09066   1.60147
    A6        1.59998   0.00081  -0.03226   0.02445  -0.01260   1.58739
    D1       -2.95734  -0.00004   0.04744  -0.04965  -0.00699  -2.96433
    D2       -1.35291  -0.00003   0.00618  -0.03146  -0.02527  -1.37818
    D3       -1.35297  -0.00002   0.00612  -0.03124  -0.02512  -1.37809
    D4        0.25146  -0.00001  -0.03513  -0.01305  -0.04340   0.20806
         Item               Value     Threshold  Converged?
 Maximum Force            0.006016     0.000450     NO 
 RMS     Force            0.002894     0.000300     NO 
 Maximum Displacement     0.242659     0.001800     NO 
 RMS     Displacement     0.101859     0.001200     NO 
 Predicted change in Energy=-1.006531D-03
 Lowest energy point so far.  Saving SCF results.
 GradGradGradGradGradGradGradGradGradGradGradGradGradGradGradGradGradGrad

 Leave Link  103 at Mon Apr 21 20:42:38 2025, MaxMem=   536870912 cpu:               0.9 elap:               0.2
 (Enter /home/szhao/Apps/g16/l202.exe)
                          Input orientation:                          
 ---------------------------------------------------------------------
 Center     Atomic      Atomic             Coordinates (Angstroms)
 Number     Number       Type             X           Y           Z
 ---------------------------------------------------------------------
      1         15           0       -1.842217    0.000000    0.000000
      2         15           0        1.842217    0.000000    0.000000
      3          1           0        1.784095   -1.419493   -0.034521
      4          1           0       -1.784187    1.403336   -0.216325
      5          1           0        1.885829    0.056363   -1.420074
      6          1           0       -1.885684   -0.238191   -1.401122
 ---------------------------------------------------------------------
                    Distance matrix (angstroms):
                    1          2          3          4          5
     1  P    0.000000
     2  P    3.684433   0.000000
     3  H    3.894392   1.421102   0.000000
     4  H    1.421097   3.894477   4.553467   0.000000
     5  H    3.989751   1.421861   2.026884   4.090522   0.000000
     6  H    1.421889   3.989627   4.090276   2.026983   3.783046
                    6
     6  H    0.000000
 Symmetry turned off by external request.
 Stoichiometry    H4P2
 Framework group  C1[X(H4P2)]
 Deg. of freedom    12
 Full point group                 C1      NOp   1
 Rotational constants (GHZ):          64.0037101           2.2182717           2.2175958
 Leave Link  202 at Mon Apr 21 20:42:38 2025, MaxMem=   536870912 cpu:               0.8 elap:               0.2
 (Enter /home/szhao/Apps/g16/l301.exe)
 Standard basis: 6-311+G(d,p) (5D, 7F)
 Ernie: Thresh=  0.10000D-02 Tol=  0.10000D-05 Strict=F.
    84 basis functions,   132 primitive gaussians,    86 cartesian basis functions
    17 alpha electrons       17 beta electrons
       nuclear repulsion energy        63.7443459696 Hartrees.
 IExCor= 4336 DFT=T Ex+Corr=M062X ExCW=0 ScaHFX=  0.540000
 ScaDFX=  1.000000  1.000000  1.000000  1.000000 ScalE2=  1.000000  1.000000
 IRadAn=      7 IRanWt=     -1 IRanGd=            0 ICorTp=0 IEmpDi=  4
 NAtoms=    6 NActive=    6 NUniq=    6 SFac= 1.00D+00 NAtFMM=   60 NAOKFM=F Big=F
 Integral buffers will be    131072 words long.
 Raffenetti 2 integral format.
 Two-electron integral symmetry is turned off.
 Leave Link  301 at Mon Apr 21 20:42:38 2025, MaxMem=   536870912 cpu:               1.2 elap:               0.2
 (Enter /home/szhao/Apps/g16/l302.exe)
 NPDir=0 NMtPBC=     1 NCelOv=     1 NCel=       1 NClECP=     1 NCelD=      1
         NCelK=      1 NCelE2=     1 NClLst=     1 CellRange=     0.0.
 One-electron integrals computed using PRISM.
 NBasis=    84 RedAO= T EigKep=  4.44D-03  NBF=    84
 NBsUse=    84 1.00D-06 EigRej= -1.00D+00 NBFU=    84
 Precomputing XC quadrature grid using
 IXCGrd= 4 IRadAn=           7 IRanWt=          -1 IRanGd=           0 AccXCQ= 0.00D+00.
 Generated NRdTot=       0 NPtTot=           0 NUsed=           0 NTot=          32
 NSgBfM=    80    80    80    80    80 MxSgAt=     6 MxSgA2=     6.
 Leave Link  302 at Mon Apr 21 20:42:39 2025, MaxMem=   536870912 cpu:               2.7 elap:               0.5
 (Enter /home/szhao/Apps/g16/l303.exe)
 DipDrv:  MaxL=1.
 Leave Link  303 at Mon Apr 21 20:42:39 2025, MaxMem=   536870912 cpu:               0.3 elap:               0.1
 (Enter /home/szhao/Apps/g16/l401.exe)
 Initial guess from the checkpoint file:  "opt.chk"
 B after Tr=     0.000008   -0.000086   -0.001250
         Rot=    0.999999    0.000421    0.000103    0.001596 Ang=   0.19 deg.
 Guess basis will be translated and rotated to current coordinates.
 JPrj=2 DoOrth=T DoCkMO=T.
 Initial guess <Sx>= 0.0000 <Sy>= 0.0000 <Sz>= 0.0000 <S**2>=-0.0000 S=-0.0000
 Generating alternative initial guess.
 ExpMin= 3.48D-02 ExpMax= 7.75D+04 ExpMxC= 2.65D+03 IAcc=3 IRadAn=         5 AccDes= 0.00D+00
 Harris functional with IExCor= 1009 and IRadAn=       5 diagonalized for initial guess.
 HarFok:  IExCor= 1009 AccDes= 0.00D+00 IRadAn=         5 IDoV= 1 UseB2=F ITyADJ=14
 ICtDFT=  3500011 ScaDFX=  1.000000  1.000000  1.000000  1.000000
 FoFCou: FMM=F IPFlag=           0 FMFlag=      100000 FMFlg1=           0
         NFxFlg=           0 DoJE=T BraDBF=F KetDBF=T FulRan=T
         wScrn=  0.000000 ICntrl=       500 IOpCl=  0 I1Cent=   200000004 NGrid=           0
         NMat0=    1 NMatS0=      1 NMatT0=    0 NMatD0=    1 NMtDS0=    0 NMtDT0=    0
 Symmetry not used in FoFCou.
 Harris En= -684.674005440265    
 Leave Link  401 at Mon Apr 21 20:42:40 2025, MaxMem=   536870912 cpu:               3.2 elap:               0.5
 (Enter /home/szhao/Apps/g16/l502.exe)
 Keep R1 and R2 ints in memory in canonical form, NReq=20057634.
 FoFCou: FMM=F IPFlag=           0 FMFlag=           0 FMFlg1=           0
         NFxFlg=           0 DoJE=F BraDBF=F KetDBF=F FulRan=T
         wScrn=  0.000000 ICntrl=       600 IOpCl=  0 I1Cent=           0 NGrid=           0
         NMat0=    1 NMatS0=   3570 NMatT0=    0 NMatD0=    1 NMtDS0=    0 NMtDT0=    0
 Symmetry not used in FoFCou.
 Two-electron integral symmetry not used.
 UHF open shell SCF:
 Using DIIS extrapolation, IDIIS=  1040.
 NGot=   536870912 LenX=   524106186 LenY=   524098349
 Requested convergence on RMS density matrix=1.00D-08 within 128 cycles.
 Requested convergence on MAX density matrix=1.00D-06.
 Requested convergence on             energy=1.00D-06.
 No special actions if energy rises.

 Cycle   1  Pass 1  IDiag  1:
 E= -684.951023050548    
 DIIS: error= 3.20D-03 at cycle   1 NSaved=   1.
 NSaved= 1 IEnMin= 1 EnMin= -684.951023050548     IErMin= 1 ErrMin= 3.20D-03
 ErrMax= 3.20D-03  0.00D+00 EMaxC= 1.00D-01 BMatC= 4.38D-03 BMatP= 4.38D-03
 IDIUse=3 WtCom= 9.68D-01 WtEn= 3.20D-02
 Coeff-Com:  0.100D+01
 Coeff-En:   0.100D+01
 Coeff:      0.100D+01
 Gap=     0.402 Goal=   None    Shift=    0.000
 Gap=     0.402 Goal=   None    Shift=    0.000
 GapD=    0.402 DampG=2.000 DampE=1.000 DampFc=2.0000 IDamp=-1.
 RMSDP=7.64D-04 MaxDP=1.24D-02              OVMax= 3.36D-02

 Cycle   2  Pass 1  IDiag  1:
 E= -684.953773844663     Delta-E=       -0.002750794115 Rises=F Damp=F
 DIIS: error= 9.39D-04 at cycle   2 NSaved=   2.
 NSaved= 2 IEnMin= 2 EnMin= -684.953773844663     IErMin= 2 ErrMin= 9.39D-04
 ErrMax= 9.39D-04  0.00D+00 EMaxC= 1.00D-01 BMatC= 2.59D-04 BMatP= 4.38D-03
 IDIUse=3 WtCom= 9.91D-01 WtEn= 9.39D-03
 Coeff-Com: -0.128D+00 0.113D+01
 Coeff-En:   0.000D+00 0.100D+01
 Coeff:     -0.127D+00 0.113D+01
 Gap=     0.138 Goal=   None    Shift=    0.000
 Gap=     0.138 Goal=   None    Shift=    0.000
 RMSDP=2.23D-04 MaxDP=2.61D-03 DE=-2.75D-03 OVMax= 1.48D-02

 Cycle   3  Pass 1  IDiag  1:
 E= -684.954040952035     Delta-E=       -0.000267107372 Rises=F Damp=F
 DIIS: error= 2.64D-04 at cycle   3 NSaved=   3.
 NSaved= 3 IEnMin= 3 EnMin= -684.954040952035     IErMin= 3 ErrMin= 2.64D-04
 ErrMax= 2.64D-04  0.00D+00 EMaxC= 1.00D-01 BMatC= 2.06D-05 BMatP= 2.59D-04
 IDIUse=3 WtCom= 9.97D-01 WtEn= 2.64D-03
 Coeff-Com: -0.375D-01 0.110D+00 0.928D+00
 Coeff-En:   0.000D+00 0.000D+00 0.100D+01
 Coeff:     -0.374D-01 0.109D+00 0.928D+00
 Gap=     0.138 Goal=   None    Shift=    0.000
 Gap=     0.138 Goal=   None    Shift=    0.000
 RMSDP=1.05D-04 MaxDP=1.86D-03 DE=-2.67D-04 OVMax= 6.34D-03

 Cycle   4  Pass 1  IDiag  1:
 E= -684.954070501855     Delta-E=       -0.000029549821 Rises=F Damp=F
 DIIS: error= 1.48D-04 at cycle   4 NSaved=   4.
 NSaved= 4 IEnMin= 4 EnMin= -684.954070501855     IErMin= 4 ErrMin= 1.48D-04
 ErrMax= 1.48D-04  0.00D+00 EMaxC= 1.00D-01 BMatC= 7.14D-06 BMatP= 2.06D-05
 IDIUse=3 WtCom= 9.99D-01 WtEn= 1.48D-03
 Coeff-Com:  0.161D-01-0.190D+00 0.140D+00 0.103D+01
 Coeff-En:   0.000D+00 0.000D+00 0.000D+00 0.100D+01
 Coeff:      0.161D-01-0.190D+00 0.140D+00 0.103D+01
 Gap=     0.138 Goal=   None    Shift=    0.000
 Gap=     0.138 Goal=   None    Shift=    0.000
 RMSDP=4.28D-05 MaxDP=4.09D-04 DE=-2.95D-05 OVMax= 3.12D-03

 Cycle   5  Pass 1  IDiag  1:
 E= -684.954076549439     Delta-E=       -0.000006047584 Rises=F Damp=F
 DIIS: error= 1.92D-05 at cycle   5 NSaved=   5.
 NSaved= 5 IEnMin= 5 EnMin= -684.954076549439     IErMin= 5 ErrMin= 1.92D-05
 ErrMax= 1.92D-05  0.00D+00 EMaxC= 1.00D-01 BMatC= 9.73D-08 BMatP= 7.14D-06
 IDIUse=1 WtCom= 1.00D+00 WtEn= 0.00D+00
 Coeff-Com:  0.188D-03 0.135D-01-0.436D-01-0.139D+00 0.117D+01
 Coeff:      0.188D-03 0.135D-01-0.436D-01-0.139D+00 0.117D+01
 Gap=     0.138 Goal=   None    Shift=    0.000
 Gap=     0.138 Goal=   None    Shift=    0.000
 RMSDP=1.05D-05 MaxDP=1.50D-04 DE=-6.05D-06 OVMax= 5.99D-04

 Cycle   6  Pass 1  IDiag  1:
 E= -684.954076710000     Delta-E=       -0.000000160560 Rises=F Damp=F
 DIIS: error= 5.95D-06 at cycle   6 NSaved=   6.
 NSaved= 6 IEnMin= 6 EnMin= -684.954076710000     IErMin= 6 ErrMin= 5.95D-06
 ErrMax= 5.95D-06  0.00D+00 EMaxC= 1.00D-01 BMatC= 2.40D-08 BMatP= 9.73D-08
 IDIUse=1 WtCom= 1.00D+00 WtEn= 0.00D+00
 Coeff-Com: -0.849D-03 0.158D-01-0.234D-01-0.106D+00 0.443D+00 0.672D+00
 Coeff:     -0.849D-03 0.158D-01-0.234D-01-0.106D+00 0.443D+00 0.672D+00
 Gap=     0.138 Goal=   None    Shift=    0.000
 Gap=     0.138 Goal=   None    Shift=    0.000
 RMSDP=2.32D-06 MaxDP=5.84D-05 DE=-1.61D-07 OVMax= 1.56D-04

 Cycle   7  Pass 1  IDiag  1:
 E= -684.954076712641     Delta-E=       -0.000000002641 Rises=F Damp=F
 DIIS: error= 7.03D-06 at cycle   7 NSaved=   7.
 NSaved= 7 IEnMin= 7 EnMin= -684.954076712641     IErMin= 6 ErrMin= 5.95D-06
 ErrMax= 7.03D-06  0.00D+00 EMaxC= 1.00D-01 BMatC= 1.74D-08 BMatP= 2.40D-08
 IDIUse=1 WtCom= 1.00D+00 WtEn= 0.00D+00
 Coeff-Com: -0.644D-03 0.101D-01-0.125D-01-0.610D-01 0.186D+00 0.480D+00
 Coeff-Com:  0.398D+00
 Coeff:     -0.644D-03 0.101D-01-0.125D-01-0.610D-01 0.186D+00 0.480D+00
 Coeff:      0.398D+00
 Gap=     0.138 Goal=   None    Shift=    0.000
 Gap=     0.138 Goal=   None    Shift=    0.000
 RMSDP=1.18D-06 MaxDP=3.38D-05 DE=-2.64D-09 OVMax= 9.37D-05

 Cycle   8  Pass 1  IDiag  1:
 E= -684.954076721016     Delta-E=       -0.000000008376 Rises=F Damp=F
 DIIS: error= 8.85D-07 at cycle   8 NSaved=   8.
 NSaved= 8 IEnMin= 8 EnMin= -684.954076721016     IErMin= 8 ErrMin= 8.85D-07
 ErrMax= 8.85D-07  0.00D+00 EMaxC= 1.00D-01 BMatC= 3.99D-10 BMatP= 1.74D-08
 IDIUse=1 WtCom= 1.00D+00 WtEn= 0.00D+00
 Coeff-Com:  0.110D-04-0.569D-03 0.766D-03 0.571D-02-0.462D-01-0.187D-01
 Coeff-Com:  0.116D+00 0.943D+00
 Coeff:      0.110D-04-0.569D-03 0.766D-03 0.571D-02-0.462D-01-0.187D-01
 Coeff:      0.116D+00 0.943D+00
 Gap=     0.138 Goal=   None    Shift=    0.000
 Gap=     0.138 Goal=   None    Shift=    0.000
 RMSDP=4.20D-07 MaxDP=6.24D-06 DE=-8.38D-09 OVMax= 1.42D-05

 Cycle   9  Pass 1  IDiag  1:
 E= -684.954076721278     Delta-E=       -0.000000000262 Rises=F Damp=F
 DIIS: error= 9.57D-08 at cycle   9 NSaved=   9.
 NSaved= 9 IEnMin= 9 EnMin= -684.954076721278     IErMin= 9 ErrMin= 9.57D-08
 ErrMax= 9.57D-08  0.00D+00 EMaxC= 1.00D-01 BMatC= 4.78D-12 BMatP= 3.99D-10
 IDIUse=1 WtCom= 1.00D+00 WtEn= 0.00D+00
 Coeff-Com:  0.179D-04-0.329D-03 0.481D-03 0.236D-02-0.980D-02-0.155D-01
 Coeff-Com:  0.264D-02 0.114D+00 0.906D+00
 Coeff:      0.179D-04-0.329D-03 0.481D-03 0.236D-02-0.980D-02-0.155D-01
 Coeff:      0.264D-02 0.114D+00 0.906D+00
 Gap=     0.138 Goal=   None    Shift=    0.000
 Gap=     0.138 Goal=   None    Shift=    0.000
 RMSDP=4.39D-08 MaxDP=5.32D-07 DE=-2.62D-10 OVMax= 1.79D-06

 Cycle  10  Pass 1  IDiag  1:
 E= -684.954076721281     Delta-E=       -0.000000000003 Rises=F Damp=F
 DIIS: error= 2.75D-08 at cycle  10 NSaved=  10.
 NSaved=10 IEnMin=10 EnMin= -684.954076721281     IErMin=10 ErrMin= 2.75D-08
 ErrMax= 2.75D-08  0.00D+00 EMaxC= 1.00D-01 BMatC= 2.82D-13 BMatP= 4.78D-12
 IDIUse=1 WtCom= 1.00D+00 WtEn= 0.00D+00
 Coeff-Com:  0.245D-05-0.123D-04 0.258D-04-0.593D-04 0.177D-02-0.678D-03
 Coeff-Com: -0.775D-02-0.523D-01 0.745D-01 0.984D+00
 Coeff:      0.245D-05-0.123D-04 0.258D-04-0.593D-04 0.177D-02-0.678D-03
 Coeff:     -0.775D-02-0.523D-01 0.745D-01 0.984D+00
 Gap=     0.138 Goal=   None    Shift=    0.000
 Gap=     0.138 Goal=   None    Shift=    0.000
 RMSDP=1.33D-08 MaxDP=1.70D-07 DE=-3.07D-12 OVMax= 5.54D-07

 Cycle  11  Pass 1  IDiag  1:
 E= -684.954076721279     Delta-E=        0.000000000002 Rises=F Damp=F
 DIIS: error= 3.58D-09 at cycle  11 NSaved=  11.
 NSaved=11 IEnMin=10 EnMin= -684.954076721281     IErMin=11 ErrMin= 3.58D-09
 ErrMax= 3.58D-09  0.00D+00 EMaxC= 1.00D-01 BMatC= 6.11D-15 BMatP= 2.82D-13
 IDIUse=1 WtCom= 1.00D+00 WtEn= 0.00D+00
 Coeff-Com: -0.330D-06 0.683D-05-0.140D-04-0.404D-04 0.175D-03 0.515D-03
 Coeff-Com:  0.194D-03-0.170D-02-0.179D-01-0.355D-01 0.105D+01
 Coeff:     -0.330D-06 0.683D-05-0.140D-04-0.404D-04 0.175D-03 0.515D-03
 Coeff:      0.194D-03-0.170D-02-0.179D-01-0.355D-01 0.105D+01
 Gap=     0.138 Goal=   None    Shift=    0.000
 Gap=     0.138 Goal=   None    Shift=    0.000
 RMSDP=2.12D-09 MaxDP=2.76D-08 DE= 1.71D-12 OVMax= 6.62D-08

 SCF Done:  E(UM062X) =  -684.954076721     A.U. after   11 cycles
            NFock= 11  Conv=0.21D-08     -V/T= 2.0017
 <Sx>= 0.0000 <Sy>= 0.0000 <Sz>= 0.0000 <S**2>= 0.0000 S= 0.0000
 <L.S>=  0.00000000000    
 KE= 6.838187710893D+02 PE=-1.756739115866D+03 EE= 3.242219220860D+02
 Annihilation of the first spin contaminant:
 S**2 before annihilation     0.0000,   after     0.0000
 Leave Link  502 at Mon Apr 21 20:42:55 2025, MaxMem=   536870912 cpu:             115.5 elap:              15.2
 (Enter /home/szhao/Apps/g16/l701.exe)
 ... and contract with generalized density number  0.
 Compute integral first derivatives.
 Leave Link  701 at Mon Apr 21 20:42:56 2025, MaxMem=   536870912 cpu:               2.3 elap:               0.4
 (Enter /home/szhao/Apps/g16/l702.exe)
 L702 exits ... SP integral derivatives will be done elsewhere.
 Leave Link  702 at Mon Apr 21 20:42:56 2025, MaxMem=   536870912 cpu:               0.7 elap:               0.2
 (Enter /home/szhao/Apps/g16/l703.exe)
 Integral derivatives from FoFJK, PRISM(SPDF).
 Compute integral first derivatives, UseDBF=F ICtDFT=           0.
 Calling FoFJK, ICntrl=      2127 FMM=F ISym2X=0 I1Cent= 0 IOpClX= 1 NMat=1 NMatS=1 NMatT=0.
 FoFJK:  IHMeth= 1 ICntrl=    2127 DoSepK=F KAlg= 0 I1Cent=           0 FoldK=F
 IRaf=         0 NMat=       1 IRICut=       1 DoRegI=T DoRafI=F ISym2E= 0 IDoP0=0 IntGTp=1.
 FoFCou: FMM=F IPFlag=           0 FMFlag=      100000 FMFlg1=         800
         NFxFlg=           0 DoJE=F BraDBF=F KetDBF=F FulRan=T
         wScrn=  0.000000 ICntrl=      2127 IOpCl=  1 I1Cent=           0 NGrid=           0
         NMat0=    1 NMatS0=      1 NMatT0=    0 NMatD0=    1 NMtDS0=    0 NMtDT0=    0
 Symmetry not used in FoFCou.
 Leave Link  703 at Mon Apr 21 20:42:59 2025, MaxMem=   536870912 cpu:              18.2 elap:               2.4
 (Enter /home/szhao/Apps/g16/l716.exe)
 Dipole        =-2.30394482D-06-3.22068555D-02-5.00067204D-01
 -------------------------------------------------------------------
 Center     Atomic                   Forces (Hartrees/Bohr)
 Number     Number              X              Y              Z
 -------------------------------------------------------------------
      1       15          -0.000000000   -0.000000000   -0.000000000
      2       15          -0.000000000   -0.000000000   -0.000000000
      3        1          -0.000106565    0.000885831    0.001246588
      4        1           0.000110969   -0.000727983    0.001348180
[...]
                          A6        D1        D2        D3        D4
           A6           0.11959
           D1          -0.02890   0.02811
           D2           0.00112  -0.00048   0.00205
           D3          -0.00108  -0.00059  -0.00090   0.00209
           D4           0.02894  -0.02688  -0.00066  -0.00052   0.02800
 ITU=  0  0  0  0  1  1  1  1  1  1  1  1  1  1  1  1  0
     Eigenvalues ---    0.00004   0.05581   0.06615   0.07828   0.08347
     Eigenvalues ---    0.14072   0.18888   0.21258   0.21302   0.21480
     Eigenvalues ---    0.246961000.000001000.000001000.000001000.00000
     Eigenvalues --- 1000.000001000.000001000.000001000.000001000.00000
 Eigenvalue     1 is   4.22D-05 Eigenvector:
                          D1        D3        D2        D4        A2
   1                    0.50051   0.50009   0.49989   0.49947   0.00528
                          A5        A1        R2        R4        A4
   1                    0.00335   0.00102   0.00072   0.00069  -0.00063
 En-DIIS/RFO-DIIS/Sim-DIIS IScMMF=       -3 using points:    17   16   15   14   13   12   11   10    9    8
 RFO step:  Lambda=-7.96722451D-09.
 NNeg= 0 NGDIIS=10 SimSw=  2.50D-01 Rises=F DC= -5.29D-08 SmlDif=  1.00D-05
 NRisDI= 0 DoIntr=F SqrtH=F CThrHd= 10.0 CDAdj=  3.0
 RMS Error=  0.2137049400D-03 NUsed=10 OKEnD=F EnDIS=F
 InvSVX:  RCond= 5.85D-11 Info=           0 Equed=N FErr=  1.45D-07 BErr=  4.47D-17
 DIIS inversion failure, remove point  10.
 InvSVX:  RCond= 1.54D-10 Info=           0 Equed=N FErr=  2.43D-09 BErr=  1.04D-16
 DIIS inversion failure, remove point   9.
 InvSVX:  RCond= 3.16D-10 Info=           0 Equed=N FErr=  2.96D-10 BErr=  7.98D-17
 DIIS inversion failure, remove point   8.
 InvSVX:  RCond= 4.77D-10 Info=           0 Equed=N FErr=  9.36D-11 BErr=  6.72D-17
 DIIS inversion failure, remove point   7.
 InvSVX:  RCond= 5.96D-10 Info=           0 Equed=N FErr=  3.23D-11 BErr=  5.77D-17
 DIIS inversion failure, remove point   6.
 InvSVX:  RCond= 7.69D-10 Info=           0 Equed=N FErr=  1.47D-11 BErr=  4.98D-17
 DIIS inversion failure, remove point   5.
 InvSVX:  RCond= 1.85D-09 Info=           0 Equed=N FErr=  4.10D-12 BErr=  3.53D-17
 DIIS inversion failure, remove point   4.
 InvSVX:  RCond= 2.56D-09 Info=           0 Equed=N FErr=  2.20D-12 BErr=  3.84D-17
 DIIS inversion failure, remove point   3.
 InvSVX:  RCond= 6.28D-05 Info=           0 Equed=N FErr=  1.01D-15 BErr=  6.68D-17
 RFO-DIIS uses    2 points instead of   10
 DidBck=F Rises=F RFO-DIIS coefs:    0.88459    0.11541    0.00000    0.00000    0.00000
                  RFO-DIIS coefs:    0.00000    0.00000    0.00000    0.00000    0.00000
 Iteration  1 RMS(Cart)=  0.00064923 RMS(Int)=  0.00000018
 Iteration  2 RMS(Cart)=  0.00000018 RMS(Int)=  0.00000001
 ITry= 1 IFail=0 DXMaxC= 1.03D-03 DCOld= 1.00D+10 DXMaxT= 1.85D+00 DXLimC= 3.00D+00 Rises=F
 Variable       Old X    -DE/DX   Delta X   Delta X   Delta X     New X
                                 (Linear)    (Quad)   (Total)
    X1       -3.48128   0.00002   0.00000   0.00000   0.00000  -3.48128
    Y1        0.00000   0.00001   0.00000   0.00000   0.00000   0.00000
    Z1        0.00000  -0.00000   0.00000   0.00000   0.00000   0.00000
    X2        3.48128   0.00001   0.00000   0.00000   0.00000   3.48128
    Y2        0.00000  -0.00001   0.00000   0.00000   0.00000   0.00000
    Z2        0.00000   0.00000   0.00000   0.00000   0.00000   0.00000
    R1        2.68092   0.00000   0.00000  -0.00001  -0.00001   2.68091
    R2        2.68093   0.00000   0.00000  -0.00001  -0.00001   2.68092
    R3        2.68085   0.00001   0.00001  -0.00001  -0.00000   2.68085
    R4        2.68100   0.00000   0.00000  -0.00000  -0.00000   2.68100
    A1        1.52768  -0.00001  -0.00005   0.00002  -0.00003   1.52766
    A2        1.52592  -0.00003   0.00003  -0.00033  -0.00030   1.52562
    A3        1.60490  -0.00001  -0.00003   0.00003   0.00000   1.60490
    A4        1.52698   0.00001   0.00003  -0.00001   0.00001   1.52699
    A5        1.52881   0.00001  -0.00011   0.00022   0.00012   1.52893
    A6        1.60496  -0.00000  -0.00002   0.00004   0.00002   1.60498
    D1        1.56332   0.00001  -0.00099  -0.00006  -0.00105   1.56228
    D2       -3.11300   0.00000  -0.00101  -0.00003  -0.00104  -3.11403
    D3       -3.11296  -0.00000  -0.00101  -0.00002  -0.00103  -3.11399
    D4       -1.50609  -0.00001  -0.00103   0.00001  -0.00102  -1.50711
         Item               Value     Threshold  Converged?
 Maximum Force            0.000034     0.000450     YES
 RMS     Force            0.000011     0.000300     YES
 Maximum Displacement     0.001030     0.001800     YES
 RMS     Displacement     0.000649     0.001200     YES
 Predicted change in Energy=-5.655855D-09
 Optimization completed.
    -- Stationary point found.
                           ----------------------------
                           !   Optimized Parameters   !
                           ! (Angstroms and Degrees)  !
 --------------------------                            --------------------------
 ! Name  Definition              Value          Derivative Info.                !
 --------------------------------------------------------------------------------
 ! X1    R(1,-1)                -1.8422         -DE/DX =    0.0                 !
 ! Y1    R(1,-2)                 0.0            -DE/DX =    0.0                 !
 ! Z1    R(1,-3)                 0.0            -DE/DX =    0.0                 !
 ! X2    R(2,-1)                 1.8422         -DE/DX =    0.0                 !
 ! Y2    R(2,-2)                 0.0            -DE/DX =    0.0                 !
 ! Z2    R(2,-3)                 0.0            -DE/DX =    0.0                 !
 ! R1    R(1,4)                  1.4187         -DE/DX =    0.0                 !
 ! R2    R(1,6)                  1.4187         -DE/DX =    0.0                 !
 ! R3    R(2,3)                  1.4186         -DE/DX =    0.0                 !
 ! R4    R(2,5)                  1.4187         -DE/DX =    0.0                 !
 ! A1    A(2,1,4)               87.5298         -DE/DX =    0.0                 !
 ! A2    A(2,1,6)               87.4286         -DE/DX =    0.0                 !
 ! A3    A(4,1,6)               91.954          -DE/DX =    0.0                 !
 ! A4    A(1,2,3)               87.4894         -DE/DX =    0.0                 !
 ! A5    A(1,2,5)               87.5945         -DE/DX =    0.0                 !
 ! A6    A(3,2,5)               91.9573         -DE/DX =    0.0                 !
 ! D1    D(4,1,2,3)             89.5718         -DE/DX =    0.0                 !
 ! D2    D(4,1,2,5)           -178.3616         -DE/DX =    0.0                 !
 ! D3    D(6,1,2,3)           -178.3593         -DE/DX =    0.0                 !
 ! D4    D(6,1,2,5)            -86.2928         -DE/DX =    0.0                 !
 --------------------------------------------------------------------------------
 Lowest energy point so far.  Saving SCF results.
 Largest change from initial coordinates is atom    6       1.290 Angstoms.
 GradGradGradGradGradGradGradGradGradGradGradGradGradGradGradGradGradGrad

 Leave Link  103 at Mon Apr 21 20:48:28 2025, MaxMem=   536870912 cpu:               0.6 elap:               0.1
 (Enter /home/szhao/Apps/g16/l202.exe)
                          Input orientation:                          
 ---------------------------------------------------------------------
 Center     Atomic      Atomic             Coordinates (Angstroms)
 Number     Number       Type             X           Y           Z
 ---------------------------------------------------------------------
      1         15           0       -1.842217    0.000000    0.000000
      2         15           0        1.842217    0.000000    0.000000
      3          1           0        1.780074   -0.958376    1.044132
      4          1           0       -1.781071    1.036998    0.966205
      5          1           0        1.782671   -1.009030   -0.995539
      6          1           0       -1.778567    0.928070   -1.071123
 ---------------------------------------------------------------------
                    Distance matrix (angstroms):
                    1          2          3          4          5
     1  P    0.000000
     2  P    3.684433   0.000000
     3  H    3.889690   1.418647   0.000000
     4  H    1.418681   3.890646   4.082811   0.000000
     5  H    3.892178   1.418726   2.040302   4.553562   0.000000
     6  H    1.418686   3.888276   4.549386   2.040240   4.054687
                    6
     6  H    0.000000
 Symmetry turned off by external request.
 Stoichiometry    H4P2
 Framework group  C1[X(H4P2)]
 Deg. of freedom    12
 Full point group                 C1      NOp   1
 Rotational constants (GHZ):          64.2084626           2.2271279           2.2220417
 Leave Link  202 at Mon Apr 21 20:48:29 2025, MaxMem=   536870912 cpu:               0.4 elap:               0.1
 (Enter /home/szhao/Apps/g16/l601.exe)
 Copying SCF densities to generalized density rwf, IOpCl= 1 IROHF=0.

 **********************************************************************

            Population analysis using the SCF density.

 **********************************************************************

 Alpha  occ. eigenvalues --  -78.04970 -78.04970  -6.87321  -6.87320  -4.98874
 Alpha  occ. eigenvalues --   -4.98873  -4.98752  -4.98751  -4.98567  -4.98567
 Alpha  occ. eigenvalues --   -0.71354  -0.70396  -0.45104  -0.44642  -0.36265
 Alpha  occ. eigenvalues --   -0.35841  -0.26397
 Alpha virt. eigenvalues --   -0.12599   0.01656   0.02941   0.03263   0.04092
 Alpha virt. eigenvalues --    0.04800   0.05773   0.06083   0.06133   0.06523
 Alpha virt. eigenvalues --    0.08308   0.15361   0.18666   0.28185   0.28565
 Alpha virt. eigenvalues --    0.30950   0.31473   0.31984   0.34030   0.36378
 Alpha virt. eigenvalues --    0.39677   0.42495   0.51678   0.57292   0.63922
 Alpha virt. eigenvalues --    0.64165   0.67391   0.67636   0.67709   0.68638
 Alpha virt. eigenvalues --    0.69502   0.86637   0.88870   0.95052   0.96288
 Alpha virt. eigenvalues --    1.37989   1.39213   1.43974   1.44031   1.47729
 Alpha virt. eigenvalues --    1.49084   1.49451   1.50879   1.60952   1.61672
 Alpha virt. eigenvalues --    1.62637   1.64195   1.66655   1.68485   2.02145
 Alpha virt. eigenvalues --    2.03353   2.10875   2.11770   2.56463   2.57106
 Alpha virt. eigenvalues --    2.61538   2.70719   6.99068   7.05806  13.98113
 Alpha virt. eigenvalues --   14.02364  14.03489  14.03812  14.03931  14.04011
 Alpha virt. eigenvalues --  163.25301 163.34492
  Beta  occ. eigenvalues --  -78.04970 -78.04970  -6.87321  -6.87320  -4.98874
  Beta  occ. eigenvalues --   -4.98873  -4.98752  -4.98751  -4.98567  -4.98567
  Beta  occ. eigenvalues --   -0.71354  -0.70396  -0.45104  -0.44642  -0.36265
  Beta  occ. eigenvalues --   -0.35841  -0.26397
  Beta virt. eigenvalues --   -0.12599   0.01656   0.02941   0.03263   0.04092
  Beta virt. eigenvalues --    0.04800   0.05773   0.06083   0.06133   0.06523
  Beta virt. eigenvalues --    0.08308   0.15361   0.18666   0.28185   0.28565
  Beta virt. eigenvalues --    0.30950   0.31473   0.31984   0.34030   0.36378
  Beta virt. eigenvalues --    0.39677   0.42495   0.51678   0.57292   0.63922
  Beta virt. eigenvalues --    0.64165   0.67391   0.67636   0.67709   0.68638
  Beta virt. eigenvalues --    0.69502   0.86637   0.88870   0.95052   0.96288
  Beta virt. eigenvalues --    1.37989   1.39213   1.43974   1.44031   1.47729
  Beta virt. eigenvalues --    1.49084   1.49451   1.50879   1.60952   1.61672
  Beta virt. eigenvalues --    1.62637   1.64195   1.66655   1.68485   2.02145
  Beta virt. eigenvalues --    2.03353   2.10875   2.11770   2.56463   2.57106
  Beta virt. eigenvalues --    2.61538   2.70719   6.99068   7.05806  13.98113
  Beta virt. eigenvalues --   14.02364  14.03489  14.03812  14.03931  14.04011
  Beta virt. eigenvalues --  163.25301 163.34492
          Condensed to atoms (all electrons):
               1          2          3          4          5          6
     1  P   14.341898   0.180839  -0.008101   0.259017  -0.008082   0.258926
     2  P    0.180839  14.342195   0.259000  -0.008083   0.258915  -0.008134
     3  H   -0.008101   0.259000   0.758357   0.000448  -0.022434   0.000282
     4  H    0.259017  -0.008083   0.000448   0.758365   0.000281  -0.022439
     5  H   -0.008082   0.258915  -0.022434   0.000281   0.758702   0.000463
     6  H    0.258926  -0.008134   0.000282  -0.022439   0.000463   0.758689
          Atomic-Atomic Spin Densities.
               1          2          3          4          5          6
     1  P   -0.000001   0.000000   0.000000  -0.000000   0.000000  -0.000000
     2  P    0.000000   0.000001   0.000000  -0.000000   0.000000  -0.000000
     3  H    0.000000   0.000000  -0.000000  -0.000000   0.000000   0.000000
     4  H   -0.000000  -0.000000  -0.000000   0.000000  -0.000000  -0.000000
     5  H    0.000000   0.000000   0.000000  -0.000000  -0.000000   0.000000
     6  H   -0.000000  -0.000000   0.000000  -0.000000   0.000000   0.000000
 Mulliken charges and spin densities:
               1          2
     1  P   -0.024497  -0.000001
     2  P   -0.024731   0.000001
     3  H    0.012448  -0.000000
     4  H    0.012412   0.000000
     5  H    0.012155  -0.000000
     6  H    0.012213   0.000000
 Sum of Mulliken charges =   0.00000   0.00000
 Mulliken charges and spin densities with hydrogens summed into heavy atoms:
               1          2
     1  P    0.000128  -0.000001
     2  P   -0.000128   0.000001
 Electronic spatial extent (au):  <R**2>=            503.3871
 Charge=              0.0000 electrons
 Dipole moment (field-independent basis, Debye):
    X=              0.0004    Y=             -0.0005    Z=             -0.0244  Tot=              0.0244
 Quadrupole moment (field-independent basis, Debye-Ang):
   XX=            -28.8429   YY=            -31.2185   ZZ=            -28.4727
   XY=             -3.9579   XZ=              0.1509   YZ=              0.1068
 Traceless Quadrupole moment (field-independent basis, Debye-Ang):
   XX=              0.6684   YY=             -1.7071   ZZ=              1.0387
   XY=             -3.9579   XZ=              0.1509   YZ=              0.1068
 Octapole moment (field-independent basis, Debye-Ang**2):
  XXX=              0.0022  YYY=              0.0068  ZZZ=              0.1134  XYY=             -0.0098
  XXY=             -0.0056  XXZ=             -0.0811  XZZ=              0.0036  YZZ=              0.0019
  YYZ=              0.0395  XYZ=             -0.0738
 Hexadecapole moment (field-independent basis, Debye-Ang**3):
 XXXX=           -654.3198 YYYY=            -71.3800 ZZZZ=            -62.9392 XXXY=             -5.7301
 XXXZ=              0.1968 YYYX=             12.2228 YYYZ=              0.2908 ZZZX=             -0.4931
 ZZZY=              0.0351 XXYY=           -123.2828 XXZZ=           -112.8646 YYZZ=            -21.3031
 XXYZ=              0.4070 YYXZ=             -0.1425 ZZXY=              4.2680
 N-N= 6.386906662607D+01 E-N=-1.757008279972D+03  KE= 6.838276255937D+02
                          Isotropic Fermi Contact Couplings
        Atom                 a.u.       MegaHertz       Gauss      10(-4) cm-1
     1  P(31)              0.00000       0.00003       0.00001       0.00001
     2  P(31)             -0.00000      -0.00003      -0.00001      -0.00001
     3  H(1)              -0.00000      -0.00001      -0.00000      -0.00000
     4  H(1)               0.00000       0.00001       0.00000       0.00000
     5  H(1)              -0.00000      -0.00001      -0.00000      -0.00000
     6  H(1)               0.00000       0.00001       0.00000       0.00000
 --------------------------------------------------------
       Center         ----  Spin Dipole Couplings  ----
                      3XX-RR        3YY-RR        3ZZ-RR
 --------------------------------------------------------
     1   Atom       -0.000002      0.000001      0.000001
     2   Atom        0.000002     -0.000001     -0.000001
     3   Atom       -0.000000     -0.000000      0.000000
     4   Atom        0.000000     -0.000000     -0.000000
     5   Atom       -0.000000     -0.000000      0.000000
     6   Atom        0.000000      0.000000     -0.000000
 --------------------------------------------------------
                        XY            XZ            YZ
 --------------------------------------------------------
     1   Atom        0.000000     -0.000000      0.000000
     2   Atom       -0.000000      0.000000     -0.000000
     3   Atom        0.000000     -0.000000     -0.000000
     4   Atom       -0.000000     -0.000000     -0.000000
     5   Atom        0.000000      0.000000      0.000000
     6   Atom       -0.000000      0.000000      0.000000
 --------------------------------------------------------


 ---------------------------------------------------------------------------------
              Anisotropic Spin Dipole Couplings in Principal Axis System
 ---------------------------------------------------------------------------------

       Atom             a.u.   MegaHertz   Gauss  10(-4) cm-1        Axes

              Baa    -0.0000    -0.000    -0.000    -0.000  0.9972 -0.0747  0.0051
     1 P(31)  Bbb     0.0000     0.000     0.000     0.000 -0.0013  0.0513  0.9987
              Bcc     0.0000     0.000     0.000     0.000  0.0748  0.9959 -0.0511
 
              Baa    -0.0000    -0.000    -0.000    -0.000  0.0733  0.9970 -0.0261
     2 P(31)  Bbb    -0.0000    -0.000    -0.000    -0.000 -0.0009  0.0263  0.9997
              Bcc     0.0000     0.000     0.000     0.000  0.9973 -0.0733  0.0029
 
              Baa    -0.0000    -0.000    -0.000    -0.000  0.0671  0.7559  0.6513
     3 H(1)   Bbb    -0.0000    -0.000    -0.000    -0.000  0.9895 -0.1340  0.0536
              Bcc     0.0000     0.000     0.000     0.000 -0.1278 -0.6408  0.7570
 
              Baa    -0.0000    -0.000    -0.000    -0.000  0.1276  0.6979  0.7047
     4 H(1)   Bbb     0.0000     0.000     0.000     0.000  0.9893 -0.1400 -0.0404
              Bcc     0.0000     0.000     0.000     0.000 -0.0705 -0.7024  0.7083
 
              Baa    -0.0000    -0.000    -0.000    -0.000  0.0691  0.7225 -0.6879
     5 H(1)   Bbb    -0.0000    -0.000    -0.000    -0.000  0.9895 -0.1375 -0.0451
              Bcc     0.0000     0.000     0.000     0.000  0.1272  0.6776  0.7244
 
              Baa    -0.0000    -0.000    -0.000    -0.000 -0.1290 -0.6188  0.7749
     6 H(1)   Bbb     0.0000     0.000     0.000     0.000  0.9893 -0.1344  0.0574
              Bcc     0.0000     0.000     0.000     0.000  0.0686  0.7740  0.6295
 

 ---------------------------------------------------------------------------------

 No NMR shielding tensors so no spin-rotation constants.
 Leave Link  601 at Mon Apr 21 20:48:29 2025, MaxMem=   536870912 cpu:               2.3 elap:               0.4
 (Enter /home/szhao/Apps/g16/l9999.exe)
 1\1\GINC-NODE03\FOpt\UM062X\6-311+G(d,p)\H4P2\SZHAO\21-Apr-2025\0\\#p 
 opt UM062X/6-311+G** nosymm int=superfine\\Title Card Required\\0,1\P,
 -1.84221652,0.,0.\P,1.84221652,0.,0.\H,1.7800742606,-0.95837639,1.0441
 324218\H,-1.7810706124,1.0369979025,0.9662054601\H,1.7826714445,-1.009
 0300441,-0.9955386888\H,-1.7785669773,0.9280698836,-1.0711230107\\Vers
 ion=ES64L-G16RevA.03\HF=-684.9545633\S2=0.\S2-1=0.\S2A=0.\RMSD=3.619e-
 09\RMSF=4.739e-06\Dipole=0.0001635,-0.0002065,-0.009599\Quadrupole=0.4
 969735,-1.2691988,0.7722253,-2.9425959,0.1121834,0.0794163\PG=C01 [X(H
 4P2)]\\@


 I WANT IT ALL - RICH, THIN, AND CHOCOLATE.
 Job cpu time:       0 days  0 hours 43 minutes 59.9 seconds.
 Elapsed time:       0 days  0 hours  6 minutes  0.6 seconds.
 File lengths (MBytes):  RWF=     22 Int=      0 D2E=      0 Chk=      3 Scr=      2
 Normal termination of Gaussian 16 at Mon Apr 21 20:48:30 2025.
