Title Card Required                                                     
FOpt      UM062X                                                      6-311+G(d,p)        
Number of atoms                            I                4
Info1-9                                    I   N=           9
          13          13           0           0           0         110
           2          18        -502
Full Title                                 C   N=           2
Title Card Required     
Route                                      C   N=           4
#p opt UM062X/6-311+G** nosymm int=superfine    
Charge                                     I                1
Multiplicity                               I                2
Number of electrons                        I               13
Number of alpha electrons                  I                7
Number of beta electrons                   I                6
Number of basis functions                  I               56
Number of independent functions            I               56
Number of point charges in /Mol/           I                0
Number of translation vectors              I                0
Atomic numbers                             I   N=           4
           6           6           1           1
Nuclear charges                            R   N=           4
  6.00000000E+00  6.00000000E+00  1.00000000E+00  1.00000000E+00
Current cartesian coordinates              R   N=          12
 -2.04498602E+00  0.00000000E+00  0.00000000E+00  2.04498602E+00  0.00000000E+00
  0.00000000E+00 -4.14984435E+00  3.95669078E-13 -2.28326880E-13  4.14984193E+00
  3.95665314E-13  3.48896376E-12
Number of symbols in /Mol/                 I                0
Force Field                                I                0
Atom Types                                 C   N=           4
                                                
Int Atom Types                             I   N=           4
           0           0           0           0
MM charges                                 R   N=           4
  0.00000000E+00  0.00000000E+00  0.00000000E+00  0.00000000E+00
Integer atomic weights                     I   N=           4
          12          12           1           1
Real atomic weights                        R   N=           4
  1.20000000E+01  1.20000000E+01  1.00782504E+00  1.00782504E+00
Atom fragment info                         I   N=           4
           0           0           0           0
Atom residue num                           I   N=           4
           0           0           0           0
Nuclear spins                              I   N=           4
           0           0           1           1
Nuclear ZEff                               R   N=           4
 -3.60000000E+00 -3.60000000E+00 -1.00000000E+00 -1.00000000E+00
Nuclear ZNuc                               R   N=           4
  6.00000000E+00  6.00000000E+00  1.00000000E+00  1.00000000E+00
Nuclear QMom                               R   N=           4
  0.00000000E+00  0.00000000E+00  0.00000000E+00  0.00000000E+00
Nuclear GFac                               R   N=           4
  0.00000000E+00  0.00000000E+00  2.79284600E+00  2.79284600E+00
MicOpt                                     I   N=           4
          -2          -2          -1          -1
Number of residues                         I                0
Number of secondary structures             I                0
Redundant internal dimensions              I   N=           4
          12           8           4           0
Redundant internal coordinate indices      I   N=          48
           1          -1           0           0           1          -2
           0           0           1          -3           0           0
           2          -1           0           0           2          -2
           0           0           2          -3           0           0
           1           3           0           0           2           4
           0           0           2           1           3          -4
           1           2           4          -4           2           1
           3          -8           1           2           4          -8
Redundant internal coordinates             R   N=          12
 -2.04498602E+00  0.00000000E+00  0.00000000E+00  2.04498602E+00  0.00000000E+00
  0.00000000E+00  2.10485833E+00  2.10485591E+00  3.14159265E+00  3.14159265E+00
  3.14159265E+00  3.14159265E+00
ZRed-IntVec                                I   N=          12
          -1          -1          -1          -1          -1          -1
           0           0           0           0           0           0
ZRed-FPVec                                 R   N=          12
  0.00000000E+00  0.00000000E+00  0.00000000E+00  0.00000000E+00  0.00000000E+00
  0.00000000E+00  0.00000000E+00  0.00000000E+00  0.00000000E+00  0.00000000E+00
  0.00000000E+00  0.00000000E+00
ZRed-Constraint1                           R   N=          12
 -2.04498602E+00  0.00000000E+00  0.00000000E+00  2.04498602E+00  0.00000000E+00
  0.00000000E+00  2.08057524E+00  2.08053366E+00  3.14159265E+00  3.14159265E+00
  3.14159265E+00  3.14159265E+00
ZRed-Constraint2                           R   N=          12
 -2.04498602E+00  0.00000000E+00  0.00000000E+00  2.04498602E+00  0.00000000E+00
  0.00000000E+00  0.00000000E+00  0.00000000E+00  0.00000000E+00  0.00000000E+00
  0.00000000E+00  0.00000000E+00
Number of contracted shells                I               20
Number of primitive shells                 I               38
Pure/Cartesian d shells                    I                0
Pure/Cartesian f shells                    I                0
Highest angular momentum                   I                2
Largest degree of contraction              I                6
Shell types                                I   N=          20
           0          -1          -1          -1          -1          -2
           0          -1          -1          -1          -1          -2
           0           0           0           1           0           0
           0           1
Number of primitives per shell             I   N=          20
           6           3           1           1           1           1
           6           3           1           1           1           1
           3           1           1           1           3           1
           1           1
Shell to atom map                          I   N=          20
           1           1           1           1           1           1
           2           2           2           2           2           2
           3           3           3           3           4           4
           4           4
Primitive exponents                        R   N=          38
  4.56324000E+03  6.82024000E+02  1.54973000E+02  4.44553000E+01  1.30290000E+01
  1.82773000E+00  2.09642000E+01  4.80331000E+00  1.45933000E+00  4.83456000E-01
  1.45585000E-01  4.38000000E-02  6.26000000E-01  4.56324000E+03  6.82024000E+02
  1.54973000E+02  4.44553000E+01  1.30290000E+01  1.82773000E+00  2.09642000E+01
  4.80331000E+00  1.45933000E+00  4.83456000E-01  1.45585000E-01  4.38000000E-02
  6.26000000E-01  3.38650000E+01  5.09479000E+00  1.15879000E+00  3.25840000E-01
  1.02741000E-01  7.50000000E-01  3.38650000E+01  5.09479000E+00  1.15879000E+00
  3.25840000E-01  1.02741000E-01  7.50000000E-01
Contraction coefficients                   R   N=          38
  1.96665025E-03  1.52306019E-02  7.61269097E-02  2.60801033E-01  6.16462078E-01
  2.21006028E-01  1.14660081E-01  9.19999648E-01 -3.03068213E-03  1.00000000E+00
  1.00000000E+00  1.00000000E+00  1.00000000E+00  1.96665025E-03  1.52306019E-02
  7.61269097E-02  2.60801033E-01  6.16462078E-01  2.21006028E-01  1.14660081E-01
  9.19999648E-01 -3.03068213E-03  1.00000000E+00  1.00000000E+00  1.00000000E+00
  1.00000000E+00  2.54938145E-02  1.90373109E-01  8.52161486E-01  1.00000000E+00
  1.00000000E+00  1.00000000E+00  2.54938145E-02  1.90373109E-01  8.52161486E-01
  1.00000000E+00  1.00000000E+00  1.00000000E+00
P(S=P) Contraction coefficients            R   N=          38
  0.00000000E+00  0.00000000E+00  0.00000000E+00  0.00000000E+00  0.00000000E+00
  0.00000000E+00  4.02486927E-02  2.37593957E-01  8.15853851E-01  1.00000000E+00
  1.00000000E+00  1.00000000E+00  0.00000000E+00  0.00000000E+00  0.00000000E+00
  0.00000000E+00  0.00000000E+00  0.00000000E+00  0.00000000E+00  4.02486927E-02
  2.37593957E-01  8.15853851E-01  1.00000000E+00  1.00000000E+00  1.00000000E+00
  0.00000000E+00  0.00000000E+00  0.00000000E+00  0.00000000E+00  0.00000000E+00
  0.00000000E+00  0.00000000E+00  0.00000000E+00  0.00000000E+00  0.00000000E+00
  0.00000000E+00  0.00000000E+00  0.00000000E+00
Coordinates of each shell                  R   N=          60
 -2.04498602E+00  0.00000000E+00  0.00000000E+00 -2.04498602E+00  0.00000000E+00
  0.00000000E+00 -2.04498602E+00  0.00000000E+00  0.00000000E+00 -2.04498602E+00
  0.00000000E+00  0.00000000E+00 -2.04498602E+00  0.00000000E+00  0.00000000E+00
 -2.04498602E+00  0.00000000E+00  0.00000000E+00  2.04498602E+00  0.00000000E+00
  0.00000000E+00  2.04498602E+00  0.00000000E+00  0.00000000E+00  2.04498602E+00
  0.00000000E+00  0.00000000E+00  2.04498602E+00  0.00000000E+00  0.00000000E+00
  2.04498602E+00  0.00000000E+00  0.00000000E+00  2.04498602E+00  0.00000000E+00
  0.00000000E+00 -4.14984435E+00  3.95669078E-13 -2.28326880E-13 -4.14984435E+00
  3.95669078E-13 -2.28326880E-13 -4.14984435E+00  3.95669078E-13 -2.28326880E-13
 -4.14984435E+00  3.95669078E-13 -2.28326880E-13  4.14984193E+00  3.95665314E-13
  3.48896376E-12  4.14984193E+00  3.95665314E-13  3.48896376E-12  4.14984193E+00
  3.95665314E-13  3.48896376E-12  4.14984193E+00  3.95665314E-13  3.48896376E-12
Num ILSW                                   I              100
ILSW                                       I   N=         100
           1           0           0           0           2           0
           0           0           0           0        4336          -1
           7           0           0           0           2           0
           0           0           0           0           1           0
           1           1           0           0           0           0
           0           0      100000           0          -1           0
           0           0           0           0           0           0
           0           0           0           1           0           0
           0 -2000000000           1           0           0           0
           0           0           4          52           0           0
           0           0          55           0           0           0
           0           0           0           4           0           1
           0           0           0           0           0           0
           0           0           0           0           0           0
           0           0           0           0           0           0
           0           0           0           0           0           0
           0           0           0           0
Num RLSW                                   I               52
RLSW                                       R   N=          52
  1.00000000E+00  1.00000000E+00  1.00000000E+00  1.00000000E+00  5.40000000E-01
  0.00000000E+00  0.00000000E+00  1.00000000E+00  0.00000000E+00  0.00000000E+00
  0.00000000E+00  0.00000000E+00  1.00000000E+00  0.00000000E+00  0.00000000E+00
  0.00000000E+00  0.00000000E+00  1.00000000E+00  0.00000000E+00  0.00000000E+00
  0.00000000E+00  0.00000000E+00  1.00000000E+00  0.00000000E+00  0.00000000E+00
  0.00000000E+00  0.00000000E+00  1.00000000E+00  0.00000000E+00  0.00000000E+00
  0.00000000E+00  0.00000000E+00  1.00000000E+00  0.00000000E+00  0.00000000E+00
  0.00000000E+00  0.00000000E+00  0.00000000E+00  1.00000000E+00  1.00000000E+00
  0.00000000E+00  1.00000000E+00  0.00000000E+00  0.00000000E+00  0.00000000E+00
  0.00000000E+00  0.00000000E+00  0.00000000E+00  0.00000000E+00  0.00000000E+00
  0.00000000E+00  0.00000000E+00
MxBond                                     I                2
NBond                                      I   N=           4
           2           2           1           1
IBond                                      I   N=           8
           2           3           1           4           1           0
           2           0
RBond                                      R   N=           8
  1.00000000E-01  1.00000000E+00  1.00000000E-01  1.00000000E+00  1.00000000E+00
  0.00000000E+00  1.00000000E+00  0.00000000E+00
Virial Ratio                               R      2.013556014903896E+00
SCF Energy                                 R     -7.652529089644344E+01
Total Energy                               R     -7.652529089644344E+01
S**2                                       R      7.529972783876051E-01
S**2 after annihilation                    R      7.500053495840364E-01
RMS Force                                  R      1.462301776043332E-04
RMS Density                                R      5.251267056275956E-09
Job Status                                 I                1
Nuclear derivative order                   I                1
External E-field                           R   N=          35
  0.00000000E+00  0.00000000E+00  0.00000000E+00  0.00000000E+00  0.00000000E+00
  0.00000000E+00  0.00000000E+00  0.00000000E+00  0.00000000E+00  0.00000000E+00
  0.00000000E+00  0.00000000E+00  0.00000000E+00  0.00000000E+00  0.00000000E+00
  0.00000000E+00  0.00000000E+00  0.00000000E+00  0.00000000E+00  0.00000000E+00
  0.00000000E+00  0.00000000E+00  0.00000000E+00  0.00000000E+00  0.00000000E+00
  0.00000000E+00  0.00000000E+00  0.00000000E+00  0.00000000E+00  0.00000000E+00
  0.00000000E+00  0.00000000E+00  0.00000000E+00  0.00000000E+00  0.00000000E+00
IOpCl                                      I                1
IROHF                                      I                0
Alpha Orbital Energies                     R   N=          56
 -1.10155282E+01 -1.10153708E+01 -1.04479105E+00 -9.99300459E-01 -7.65967663E-01
 -5.82048745E-01 -5.62616975E-01 -4.20314950E-01 -4.05497507E-01 -3.86001860E-01
 -1.39783788E-01 -1.22024482E-01 -9.33631962E-02 -8.42210402E-02 -8.21108236E-02
 -5.36112285E-02 -5.10437362E-02 -6.92663894E-03  2.15889645E-02  5.31468487E-02
  2.42688261E-01  2.95532410E-01  3.02046866E-01  3.15665281E-01  3.61221302E-01
  3.69357520E-01  4.32565620E-01  5.32425215E-01  5.39744845E-01  6.69973933E-01
  7.64654315E-01  7.74474431E-01  9.35053388E-01  9.43515486E-01  1.01856138E+00
  1.02011868E+00  1.05459318E+00  1.05563964E+00  1.10691024E+00  1.45278442E+00
  1.51690936E+00  1.52480862E+00  1.61756284E+00  1.62839693E+00  1.96812668E+00
  2.22522405E+00  2.33333673E+00  2.37723045E+00  2.39976430E+00  2.40264806E+00
  2.40884062E+00  2.42406464E+00  2.97051407E+00  2.99387420E+00  2.31976140E+01
  2.32277854E+01
Beta Orbital Energies                      R   N=          56
 -1.10126489E+01 -1.10125444E+01 -1.01476553E+00 -9.79244402E-01 -7.53417489E-01
 -5.44627928E-01 -3.99475981E-01 -3.73349061E-01 -3.68492200E-01 -3.13058092E-01
 -1.47527897E-01 -1.24776661E-01 -1.01017423E-01 -8.71263986E-02 -8.59405259E-02
 -5.43124253E-02 -5.25918573E-02 -1.60753445E-02  2.23484687E-02  5.21487585E-02
  2.39316101E-01  3.00457021E-01  3.11262834E-01  3.16852768E-01  3.49055377E-01
  3.66826836E-01  4.36958100E-01  5.39563261E-01  5.41139594E-01  6.53746471E-01
  7.88101887E-01  7.90847950E-01  9.49426652E-01  9.57509557E-01  1.04470970E+00
  1.06622851E+00  1.07722998E+00  1.10030112E+00  1.12393269E+00  1.46269985E+00
  1.52474907E+00  1.53421509E+00  1.63147248E+00  1.63980589E+00  1.98526999E+00
  2.23699519E+00  2.34662915E+00  2.41259382E+00  2.42525510E+00  2.42890423E+00
  2.43388979E+00  2.44655659E+00  2.98462712E+00  3.00881269E+00  2.32082510E+01
  2.32384712E+01
Alpha MO coefficients                      R   N=        3136
  3.99122516E-01  3.28274401E-01  9.90196147E-04 -4.11036397E-16 -2.77507940E-15
  6.82134983E-03 -2.12541659E-03  8.74952829E-18  1.32186194E-15 -3.13850181E-03
  5.28646268E-04  2.17881086E-16 -4.09953826E-16 -3.91083307E-04  1.16607553E-03
 -4.08163309E-16  1.57514091E-15 -4.89795741E-04  8.50476614E-16  6.32458297E-06
  9.24993082E-04 -6.75197086E-17  3.99082911E-01  3.28241825E-01 -9.90101547E-04
  1.20197680E-16  1.98210777E-15  6.82066050E-03  2.12521362E-03 -1.09530727E-16
  9.18619292E-16 -3.13812089E-03 -5.28772968E-04 -1.28134693E-16 -9.51011154E-16
 -3.91615314E-04 -1.16579694E-03  8.98569601E-17 -2.38781026E-15 -4.89755458E-04
  1.37451897E-15  6.32411645E-06  9.24917896E-04  1.39088895E-16  8.63837021E-05
 -2.60514899E-03  2.89815355E-03 -1.61231392E-03  8.17564361E-16 -8.26417021E-16
  8.63627465E-05 -2.60486012E-03  2.89798481E-03  1.61215779E-03  9.16127985E-16
  8.18301326E-15 -3.99101215E-01 -3.28250988E-01 -9.50616480E-04  6.96380016E-16
  2.79633014E-15 -7.04689255E-03  2.16811770E-03 -7.44644834E-16 -1.07763886E-15
  3.81599661E-03  1.26505128E-03  3.54920340E-16  1.57229365E-16 -5.20421940E-03
 -2.76902652E-03  5.37534989E-17  5.08717236E-16  4.25650124E-04 -6.97616796E-16
 -6.25654255E-06 -8.13064991E-04  1.64209587E-16  3.99140819E-01  3.28283560E-01
 -9.50714519E-04 -1.47712770E-16  1.61649065E-15  7.04757964E-03  2.16834122E-03
  1.83892768E-16  1.27038320E-15 -3.81630471E-03  1.26499906E-03 -5.37685076E-18
 -2.80908611E-16  5.20417734E-03 -2.76914279E-03 -1.48320874E-16 -1.15102499E-15
 -4.25700695E-04  1.73809502E-15  6.25731832E-06  8.13162214E-04  1.77469662E-16
 -1.82652281E-04  3.07371319E-03 -1.79968943E-03  1.65754511E-03 -8.72353074E-16
  8.44429370E-16  1.82658153E-04 -3.07398854E-03  1.79998380E-03  1.65771348E-03
  9.18438710E-16  8.35087362E-15 -8.28957575E-02 -1.35558063E-01 -2.58435343E-02
  4.13402104E-15 -9.00853783E-15  3.91783838E-01 -3.04051540E-02  5.91216610E-15
  7.30526825E-14  2.70878991E-01 -6.38049448E-03 -1.58517254E-14 -1.91712447E-14
 -1.39404521E-03 -1.56975746E-02  7.36727111E-15  8.37211880E-15 -4.27624175E-03
 -3.31796383E-14  6.51600398E-04  1.53035108E-02  1.70364232E-14 -8.28962282E-02
 -1.35558828E-01  2.58440415E-02  4.67442980E-15  4.56007139E-14  3.91786030E-01
  3.04058327E-02  4.82277063E-15  2.82674182E-14  2.70880354E-01  6.38068697E-03
 -1.49272272E-14 -1.44691630E-14 -1.39443388E-03  1.56977650E-02  7.60348300E-15
  2.18659098E-14 -4.27622198E-03 -2.61956145E-14  6.51610412E-04  1.53036061E-02
 -1.62556436E-14  8.58334466E-02  1.05344992E-01 -1.94947570E-02  1.42341031E-02
  4.25384247E-14 -1.03941293E-13  8.58342667E-02  1.05345907E-01 -1.94948417E-02
 -1.42342279E-02  4.33064348E-14  6.37425805E-14 -7.63599384E-02 -1.24995216E-01
 -6.95137879E-02  6.26320391E-15 -2.88636309E-14  3.65586508E-01 -9.89668637E-02
  4.70093644E-16  7.55727517E-14  2.48081109E-01 -4.31246137E-02 -1.78402277E-14
 -4.67169002E-14 -8.52790592E-02 -4.24308706E-02  7.91404721E-15  3.17049435E-14
 -1.79295536E-03 -4.48394178E-14  5.92239545E-04  1.02829239E-02  1.85527183E-14
  7.63593988E-02  1.24994327E-01 -6.95138631E-02 -6.86284061E-15 -7.49531080E-14
 -3.65583892E-01 -9.89669609E-02 -2.73697987E-15 -6.47990784E-14 -2.48079090E-01
 -4.31246560E-02  1.80521801E-14  3.47135565E-14  8.52790509E-02 -4.24307416E-02
 -7.87324465E-15 -4.22513081E-14  1.79290113E-03  3.09447746E-14 -5.92240753E-04
 -1.02828517E-02  1.73137459E-14  1.10366813E-01  1.37061569E-01 -1.48666294E-02
  1.87173638E-02  4.57706147E-14 -1.23566186E-13 -1.10366525E-01 -1.37061070E-01
  1.48665030E-02  1.87172960E-02 -4.68708437E-14 -7.66166394E-14 -1.98113959E-02
 -3.30154538E-02  1.70390811E-01 -1.50428211E-14  1.03991211E-13  9.47455505E-02
  2.58339652E-01  5.63268984E-16  1.23507940E-14  1.16875590E-01  1.58678542E-01
 -8.31877697E-15  1.25206155E-13 -6.45163522E-03 -4.01248024E-03  1.75505129E-15
 -3.22732196E-14 -7.39839186E-04  3.83006860E-14  2.16709958E-04  3.90780385E-03
 -1.24981126E-14 -1.98115067E-02 -3.30156418E-02 -1.70390878E-01 -2.50778360E-14
 -2.06660369E-13  9.47461397E-02 -2.58339670E-01 -1.60227281E-14 -2.47104599E-13
  1.16876238E-01 -1.58678523E-01 -1.91529400E-14 -9.98781355E-14 -6.45184595E-03
  4.01259730E-03  2.35203358E-15 -1.50388718E-15 -7.39803531E-04  2.98647022E-14
  2.16714706E-04  3.90780497E-03  1.09864374E-14 -1.07553338E-01 -1.52151786E-01
 -1.35589923E-02 -1.55476831E-02 -1.33914086E-14  8.09195626E-14 -1.07553330E-01
 -1.52151634E-01 -1.35589902E-02  1.55476632E-02 -1.47605787E-14 -6.86065290E-14
 -9.70279524E-14 -1.68728580E-13  4.81361788E-13  1.65292205E-02  2.01673746E-01
  7.37715641E-13  7.58407060E-14  2.59704865E-02  3.16867180E-01 -2.21135968E-12
  5.89768448E-12  2.30081002E-02  2.80723049E-01  5.55867598E-12  5.51508823E-12
  2.98078896E-04  3.63688655E-03  4.73981182E-14  8.81506078E-03 -4.93717632E-15
 -9.19733848E-14  7.22482174E-04  1.24187091E-13  1.81086543E-13  2.01661230E-13
  1.65291593E-02  2.01672846E-01 -5.28895633E-13  3.65232072E-13  2.59704006E-02
  3.16865921E-01  7.69052522E-13  4.98717086E-12  2.30080199E-02  2.80721868E-01
 -6.95927576E-12  4.22684956E-12  2.98076199E-04  3.63684976E-03 -1.75133886E-13
 -8.81512310E-03 -4.08283577E-15  3.17359346E-13 -7.22486205E-04 -2.22798060E-13
  7.36189635E-13  7.29551262E-12  8.98040162E-14  1.27355192E-03  1.55386644E-02
  3.13517026E-13 -1.58630103E-12 -4.05641880E-12  5.03756722E-13  1.27354812E-03
  1.55386035E-02  4.24046931E-15  3.06206233E-14 -8.54653522E-14  1.99223280E-01
 -1.63283798E-02 -4.90785976E-13  3.54269766E-13  3.14665121E-01 -2.57900271E-02
  3.02269468E-12 -1.76030502E-12  2.81319677E-01 -2.30570344E-02  1.69109480E-12
 -2.64599235E-12  8.26924989E-03 -6.77750551E-04 -1.27156124E-15 -7.60462913E-04
 -1.00176345E-14  1.44850511E-14  9.27842135E-03 -5.41008088E-15  1.63980149E-14
  5.33113438E-14  1.99223919E-01 -1.63284115E-02 -4.32648671E-13 -3.55521900E-13
  3.14666021E-01 -2.57900711E-02  2.71040408E-12  8.75931824E-13  2.81320526E-01
 -2.30570766E-02  2.74068204E-12  1.81799644E-12  8.26926332E-03 -6.77751166E-04
  1.46792663E-14  7.60459816E-04  1.41351167E-14 -1.78263556E-14 -9.27836570E-03
 -1.20982960E-13  6.02750208E-13 -5.90501043E-12 -1.76691879E-14  1.67569785E-02
 -1.37340542E-03 -1.51269001E-13  8.18338223E-13 -4.92476979E-12 -3.31914642E-14
  1.67570611E-02 -1.37341037E-03 -6.03993374E-02 -1.01284059E-01  1.63078995E-01
  1.82789435E-14 -1.61516842E-12  3.14992485E-01  2.33067977E-01  1.24833971E-13
 -2.72235910E-12  4.52250538E-01  2.01516021E-01 -1.20996579E-14 -2.38226833E-12
  1.47708507E-01  6.24284114E-02  6.75394289E-14 -1.95896048E-13  1.72615325E-02
  1.37304949E-13  6.56123348E-04 -2.19461605E-02 -1.46618128E-14  6.03993149E-02
  1.01284024E-01  1.63079051E-01 -4.40507048E-14  1.08842896E-12 -3.14992386E-01
  2.33067983E-01 -1.65361799E-13  1.62229409E-12 -4.52250580E-01  2.01516000E-01
 -2.87081525E-14  1.27330057E-12 -1.47708543E-01  6.24283585E-02 -6.98418451E-14
  1.54787969E-13 -1.72615843E-02  6.18084176E-14 -6.56132032E-04  2.19461328E-02
 -1.35969700E-14 -1.07490491E-01 -2.09306414E-01 -1.19025602E-01 -5.06457200E-03
  3.16812578E-14 -1.42410846E-13  1.07490363E-01  2.09306075E-01  1.19025358E-01
 -5.06456920E-03 -3.27505463E-14  1.51567588E-13  3.54656846E-13  6.08823517E-13
 -1.09384716E-12 -1.79607435E-02 -2.19139436E-01 -2.28373089E-12 -1.21524667E-12
 -2.78798237E-02 -3.40162496E-01  9.13727462E-13 -4.29723520E-12 -2.63011380E-02
 -3.20901015E-01 -6.78228262E-13 -3.72885495E-12 -2.94600945E-03 -3.59443549E-02
 -1.64186240E-13  1.48377893E-02  2.51294750E-15  2.61049855E-13  1.21611108E-03
 -3.69771772E-13 -6.32193381E-13 -1.21595234E-12  1.79607816E-02  2.19140092E-01
  1.68164341E-12 -1.18276479E-12  2.78798930E-02  3.40163675E-01  5.69380219E-12
 -1.37233682E-12  2.63012003E-02  3.20902080E-01  3.89304525E-12 -1.35714393E-13
  2.94601345E-03  3.59444342E-02 -9.41199410E-14  1.48377375E-02  1.16900339E-15
  2.43936866E-13  1.21610799E-03  6.19031976E-13  5.43204734E-13 -5.80107279E-12
 -7.82606527E-14 -1.75299339E-03 -2.13883146E-02 -6.47264402E-13 -2.32845441E-12
 -2.83048685E-12  5.92863702E-13  1.75299721E-03  2.13883783E-02  5.20614703E-14
  9.98827122E-14 -2.65905610E-13  2.16410261E-01 -1.77370308E-02 -5.31474482E-13
  3.49097300E-13  3.36572886E-01 -2.75855968E-02  2.26488614E-12 -5.27144448E-12
  3.23818144E-01 -2.65402241E-02 -5.83425415E-12 -6.10703921E-12  4.93182083E-02
 -4.04213414E-03  5.65421101E-16  1.23218607E-03 -1.11023695E-14  5.09425248E-15
 -1.50339663E-02 -5.28725847E-14 -1.01100648E-13 -2.69409487E-13 -2.16409791E-01
  1.77370010E-02  4.80066568E-13  3.62672764E-13 -3.36572042E-01  2.75855438E-02
 -1.70434979E-12 -5.01024113E-12 -3.23817357E-01  2.65401749E-02  6.11659830E-12
 -5.79383999E-12 -4.93181083E-02  4.04212763E-03 -2.15091056E-14  1.23218901E-03
 -1.34494461E-14  3.81545792E-14 -1.50340158E-02  2.04917521E-14  1.09347282E-13
 -8.28267742E-12 -4.13401408E-14  2.27810320E-02 -1.86713858E-03 -1.85904803E-14
 -2.52298383E-13  7.53349922E-12  1.51968787E-14 -2.27810063E-02  1.86713714E-03
  2.91768295E-02  5.05134716E-02  4.98757541E-02 -6.28111828E-15 -4.02784126E-14
 -1.74645520E-01  8.75382892E-02  7.91717607E-14  1.10283517E-13 -4.37101295E-01
  1.28894796E-01 -7.17298638E-14 -3.75513713E-13  8.67332436E-01 -4.93177035E-01
  2.05813547E-14 -1.09659949E-14  4.74676702E-03 -1.44398414E-14 -3.97584399E-05
 -8.70346875E-03 -1.58452769E-14  2.91767995E-02  5.05134190E-02 -4.98750426E-02
 -7.31751419E-15 -4.02885920E-14 -1.74645314E-01 -8.75373040E-02  7.79329187E-14
 -8.20292847E-14 -4.37100818E-01 -1.28892854E-01 -7.16726073E-14 -1.34396740E-13
  8.67340953E-01  4.93170327E-01  3.15583778E-14  6.02263760E-13  4.74673013E-03
 -1.50486342E-14 -3.97638555E-05 -8.70347912E-03  1.61289883E-14  3.50306886E-03
  1.28234554E-01 -7.63260802E-02 -1.26148967E-02 -8.10545996E-14  1.17467241E-13
  3.50300154E-03  1.28234171E-01 -7.63271784E-02  1.26147383E-02 -8.13114390E-14
 -4.21012085E-14 -1.15874657E-02 -2.08021139E-02 -8.87018000E-02  1.19050765E-14
  4.98711151E-15  8.61653209E-02 -1.41625797E-01 -7.60211904E-14 -9.06980243E-14
  1.17625633E-01 -1.95382240E-01  1.09694640E-13  2.84091459E-13  1.55620168E+00
  1.55357810E+00 -4.61784317E-14 -4.16714435E-13 -4.83778549E-03  2.99144605E-15
 -5.77833005E-05  7.67898663E-03  1.41278629E-14  1.15875564E-02  2.08022748E-02
 -8.87015050E-02 -1.39040428E-14 -6.24461242E-14 -8.61659904E-02 -1.41625447E-01
  7.50070005E-14 -7.85071807E-14 -1.17626279E-01 -1.95380617E-01 -1.11829511E-13
 -1.27544583E-13 -1.55619506E+00  1.55357921E+00  6.14605028E-14  8.91011126E-13
  4.83790918E-03  7.53167951E-16  5.77835955E-05 -7.67920043E-03  1.36632081E-14
  1.30429870E-02 -5.84596543E-02  8.51359017E-02  2.00038054E-02  4.30255731E-14
 -1.06314205E-13 -1.30433803E-02  5.84590590E-02 -8.51401727E-02  2.00037414E-02
 -4.29931227E-14 -3.77754785E-14  4.17403694E-04  2.75784003E-04  9.27329586E-02
 -2.12158154E-13  6.38608563E-13  1.24233568E-02  1.29128887E-01 -1.04369037E-12
  6.27963039E-13 -1.08085381E-01  4.30714972E-01 -1.41198836E-13  3.51985620E-12
 -6.07300291E-01 -4.25202679E-01  2.52971098E-12 -9.18870215E-12 -2.25249961E-02
 -7.86918794E-14 -3.99287243E-04  3.41754193E-02  3.99769764E-14  4.17474417E-04
  2.75907477E-04 -9.27328185E-02 -2.13210755E-13  8.24697400E-13  1.24228631E-02
 -1.29128731E-01 -1.04423308E-12  1.01629160E-12 -1.08086248E-01 -4.30714370E-01
 -1.47943417E-13  1.81321606E-12 -6.07305706E-01  4.25210961E-01  2.55324199E-12
 -5.07130604E-12 -2.25249538E-02  1.22478890E-14 -3.99284529E-04  3.41753847E-02
 -4.01774645E-14  5.51249768E-02  1.94289500E-01  7.88883184E-01 -2.11088933E-02
 -1.18523007E-13 -2.47998027E-16  5.51246307E-02  1.94289176E-01  7.88880150E-01
  2.11089583E-02 -1.18211525E-13 -2.55957054E-14 -5.37800370E-14 -7.67822538E-14
  5.41770824E-13 -6.93796455E-03 -8.46524957E-02  6.66776311E-15  1.43935759E-12
 -7.94400987E-03 -9.69277622E-02  4.71700213E-12 -1.31753988E-12 -2.17601696E-02
 -2.65503584E-01 -6.51175808E-12 -1.33747925E-11  5.42652081E-02  6.62108789E-01
 -1.99344681E-13 -8.73142803E-04 -1.33288864E-15  3.09363806E-13 -7.15588404E-05
 -5.89719057E-14 -9.11875696E-14 -1.06961554E-12 -6.93796158E-03 -8.46524665E-02
  2.76404364E-13 -1.48123458E-12 -7.94400874E-03 -9.69277733E-02  5.15040142E-13
 -7.35678643E-12 -2.17601686E-02 -2.65503604E-01 -5.93577374E-13  2.68225836E-12
  5.42651659E-02  6.62108371E-01 -2.20143527E-13  8.73134710E-04 -3.05310029E-15
  3.19381428E-13  7.15581002E-05  2.94023880E-13  1.86820236E-12 -6.64259272E-12
 -1.55036128E-13  2.44674158E-04  2.98534057E-03  4.85888137E-13  2.98323485E-12
  9.21537815E-12  1.16721366E-13  2.44671908E-04  2.98531275E-03  3.40078775E-14
  4.85656823E-14 -3.95998787E-13 -8.41521752E-02  6.89695240E-03 -3.16884712E-14
 -8.16425081E-13 -1.02934124E-01  8.43629872E-03 -2.12038519E-12 -1.05320768E-12
 -2.65981212E-01  2.17993374E-02  1.42699501E-12  5.46359248E-12  6.61383489E-01
 -5.42057610E-02  1.05717102E-13  1.08259113E-04  5.79391506E-15 -1.63788670E-13
 -1.32087865E-03  3.46530559E-14  5.00535540E-14  4.42089190E-13 -8.41520861E-02
  6.89694573E-03 -5.42681667E-14  8.26549582E-13 -1.02933956E-01  8.43628708E-03
 -1.77606827E-12  1.77585988E-12 -2.65980925E-01  2.17993168E-02  1.01214560E-12
 -4.64083558E-12  6.61382169E-01 -5.42056612E-02  1.06867693E-13 -1.08257868E-04
 -4.57700559E-15 -1.62760834E-13  1.32086263E-03 -1.69949216E-13 -1.38801620E-12
  1.22454725E-12  6.42591272E-14  2.31664906E-03 -1.89867101E-04 -1.83987490E-13
 -1.48619729E-12 -7.13888607E-14 -6.01347102E-14  2.31662076E-03 -1.89864754E-04
 -3.85337779E-14 -5.22755399E-14 -3.64332034E-13 -6.21105801E-03 -7.57830491E-02
 -6.58570593E-14  7.54714003E-14 -6.86644360E-03 -8.37797915E-02  4.36719363E-12
 -4.94456520E-12 -2.14146139E-02 -2.61286342E-01  5.56224076E-12 -6.15341661E-12
  1.18379873E-01  1.44438924E+00  1.71340919E-14 -7.97082350E-03  1.13858454E-15