 running on   28 total cores
 distrk:  each k-point on   28 cores,    1 groups
 distr:  one band on   14 cores,    2 groups
 vasp.6.3.1 04May22 (build Aug 04 2022 13:02:54) complex                        
  
 POSCAR found type information on POSCAR C 
 POSCAR found :  1 types and       2 ions
 scaLAPACK will be used
 -----------------------------------------------------------------------------
|                                                                             |
|           W    W    AA    RRRRR   N    N  II  N    N   GGGG   !!!           |
|           W    W   A  A   R    R  NN   N  II  NN   N  G    G  !!!           |
|           W    W  A    A  R    R  N N  N  II  N N  N  G       !!!           |
|           W WW W  AAAAAA  RRRRR   N  N N  II  N  N N  G  GGG   !            |
|           WW  WW  A    A  R   R   N   NN  II  N   NN  G    G                |
|           W    W  A    A  R    R  N    N  II  N    N   GGGG   !!!           |
|                                                                             |
|     For optimal performance we recommend to set                             |
|       NCORE = 2 up to number-of-cores-per-socket                            |
|     NCORE specifies how many cores store one orbital (NPAR=cpu/NCORE).      |
|     This setting can greatly improve the performance of VASP for DFT.       |
|     The default, NCORE=1 might be grossly inefficient on modern             |
|     multi-core architectures or massively parallel machines. Do your        |
|     own testing! More info at https://www.vasp.at/wiki/index.php/NCORE      |
|     Unfortunately you need to use the default for GW and RPA                |
|     calculations (for HF NCORE is supported but not extensively tested      |
|     yet).                                                                   |
|                                                                             |
 -----------------------------------------------------------------------------

 LDA part: xc-table for Pade appr. of Perdew
 POSCAR, INCAR and KPOINTS ok, starting setup
 FFT: planning ... GRIDC
 FFT: planning ... GRID_SOFT
 FFT: planning ... GRID
 WAVECAR not read
 WARNING: random wavefunctions but no delay for mixing, default for NELMDL
 entering main loop
       N       E                     dE             d eps       ncg     rms          rms(c)
DAV:   1     0.448813682055E+02    0.44881E+02   -0.29936E+03  1808   0.703E+02
DAV:   2    -0.111530084496E+02   -0.56034E+02   -0.50582E+02  2928   0.113E+02
DAV:   3    -0.149082954181E+02   -0.37553E+01   -0.36766E+01  2512   0.444E+01
DAV:   4    -0.149590889253E+02   -0.50794E-01   -0.50792E-01  2952   0.510E+00
DAV:   5    -0.149600135636E+02   -0.92464E-03   -0.92464E-03  2584   0.299E-01    0.287E+00
DAV:   6    -0.149003015746E+02    0.59712E-01   -0.58259E-02  2272   0.160E+00    0.174E+00
DAV:   7    -0.148735963188E+02    0.26705E-01   -0.10334E-01  2608   0.216E+00    0.194E-01
DAV:   8    -0.148731179292E+02    0.47839E-03   -0.21343E-03  2712   0.365E-01    0.471E-02
DAV:   9    -0.148728945932E+02    0.22334E-03   -0.17371E-04  2760   0.114E-01    0.273E-02
DAV:  10    -0.148729297260E+02   -0.35133E-04   -0.12792E-04  2560   0.606E-02    0.157E-02
DAV:  11    -0.148730525133E+02   -0.12279E-03   -0.25351E-05  2128   0.294E-02    0.993E-03
DAV:  12    -0.148730688371E+02   -0.16324E-04   -0.66236E-05  2032   0.341E-02    0.557E-03
DAV:  13    -0.148731021770E+02   -0.33340E-04   -0.39767E-06  2688   0.126E-02    0.342E-03
DAV:  14    -0.148732504956E+02   -0.14832E-03   -0.18102E-05  2648   0.164E-02    0.152E-03
DAV:  15    -0.148732833936E+02   -0.32898E-04   -0.25298E-06  2424   0.580E-03    0.148E-03
DAV:  16    -0.148733022625E+02   -0.18869E-04   -0.15284E-06  2144   0.540E-03    0.232E-04
DAV:  17    -0.148733036663E+02   -0.14038E-05   -0.39378E-08  2688   0.111E-03    0.207E-04
DAV:  18    -0.148733051694E+02   -0.15031E-05   -0.89081E-08  2072   0.102E-03    0.264E-05
DAV:  19    -0.148733052224E+02   -0.52996E-07   -0.20320E-09  2552   0.164E-04    0.139E-05
DAV:  20    -0.148733052439E+02   -0.21555E-07   -0.30307E-10  2064   0.789E-05    0.318E-06
DAV:  21    -0.148733052462E+02   -0.22858E-08   -0.26661E-11  2640   0.208E-05
   1 F= -.15001515E+02 E0= -.15001265E+02  d E =-.501501E-03
