 Entering Gaussian System, Link 0=g16
 Initial command:
 /home/szhao/Apps/g16/l1.exe "/home/szhao/tmp/Gau-183322.inp" -scrdir="/home/szhao/tmp/"
 Default is to use a total of  16 processors:
                               16 via shared-memory
                                1 via Linda
 Entering Link 1 = /home/szhao/Apps/g16/l1.exe PID=    183330.
  
 Copyright (c) 1988,1990,1992,1993,1995,1998,2003,2009,2016,
            Gaussian, Inc.  All Rights Reserved.
  
 This is part of the Gaussian(R) 16 program.  It is based on
 the Gaussian(R) 09 system (copyright 2009, Gaussian, Inc.),
 the Gaussian(R) 03 system (copyright 2003, Gaussian, Inc.),
 the Gaussian(R) 98 system (copyright 1998, Gaussian, Inc.),
 the Gaussian(R) 94 system (copyright 1995, Gaussian, Inc.),
 the Gaussian 92(TM) system (copyright 1992, Gaussian, Inc.),
 the Gaussian 90(TM) system (copyright 1990, Gaussian, Inc.),
 the Gaussian 88(TM) system (copyright 1988, Gaussian, Inc.),
 the Gaussian 86(TM) system (copyright 1986, Carnegie Mellon
 University), and the Gaussian 82(TM) system (copyright 1983,
 Carnegie Mellon University). Gaussian is a federally registered
 trademark of Gaussian, Inc.
  
 This software contains proprietary and confidential information,
 including trade secrets, belonging to Gaussian, Inc.
  
 This software is provided under written license and may be
 used, copied, transmitted, or stored only in accord with that
 written license.
  
 The following legend is applicable only to US Government
 contracts under FAR:
  
                    RESTRICTED RIGHTS LEGEND
  
 Use, reproduction and disclosure by the US Government is
 subject to restrictions as set forth in subparagraphs (a)
 and (c) of the Commercial Computer Software - Restricted
 Rights clause in FAR 52.227-19.
  
 Gaussian, Inc.
 340 Quinnipiac St., Bldg. 40, Wallingford CT 06492
  
  
 ---------------------------------------------------------------
 Warning -- This program may not be used in any manner that
 competes with the business of Gaussian, Inc. or will provide
 assistance to any competitor of Gaussian, Inc.  The licensee
 of this program is prohibited from giving any competitor of
 Gaussian, Inc. access to this program.  By using this program,
 the user acknowledges that Gaussian, Inc. is engaged in the
 business of creating and licensing software in the field of
 computational chemistry and represents and warrants to the
 licensee that it is not a competitor of Gaussian, Inc. and that
 it will not use this program in any manner prohibited above.
 ---------------------------------------------------------------
  

 Cite this work as:
 Gaussian 16, Revision A.03,
 M. J. Frisch, G. W. Trucks, H. B. Schlegel, G. E. Scuseria, 
 M. A. Robb, J. R. Cheeseman, G. Scalmani, V. Barone, 
 G. A. Petersson, H. Nakatsuji, X. Li, M. Caricato, A. V. Marenich, 
 J. Bloino, B. G. Janesko, R. Gomperts, B. Mennucci, H. P. Hratchian, 
 J. V. Ortiz, A. F. Izmaylov, J. L. Sonnenberg, D. Williams-Young, 
 F. Ding, F. Lipparini, F. Egidi, J. Goings, B. Peng, A. Petrone, 
 T. Henderson, D. Ranasinghe, V. G. Zakrzewski, J. Gao, N. Rega, 
 G. Zheng, W. Liang, M. Hada, M. Ehara, K. Toyota, R. Fukuda, 
 J. Hasegawa, M. Ishida, T. Nakajima, Y. Honda, O. Kitao, H. Nakai, 
 T. Vreven, K. Throssell, J. A. Montgomery, Jr., J. E. Peralta, 
 F. Ogliaro, M. J. Bearpark, J. J. Heyd, E. N. Brothers, K. N. Kudin, 
 V. N. Staroverov, T. A. Keith, R. Kobayashi, J. Normand, 
 K. Raghavachari, A. P. Rendell, J. C. Burant, S. S. Iyengar, 
 J. Tomasi, M. Cossi, J. M. Millam, M. Klene, C. Adamo, R. Cammi, 
 J. W. Ochterski, R. L. Martin, K. Morokuma, O. Farkas, 
 J. B. Foresman, and D. J. Fox, Gaussian, Inc., Wallingford CT, 2016.
 
 ******************************************
 Gaussian 16:  ES64L-G16RevA.03 25-Dec-2016
                21-Apr-2025 
 ******************************************
 %chk=opt.chk
 %mem=4GB
 %nprocshared=8
 Will use up to    8 processors via shared memory.
 --------------------------------------------
 #p opt UM062X/6-311+G** nosymm int=superfine
 --------------------------------------------
 1/18=20,19=15,26=5,38=1/1,3;
 2/9=110,12=2,15=1,17=6,18=5,40=1/2;
 3/5=4,6=6,7=111,11=2,25=1,30=1,71=1,74=-55,75=-7,116=2/1,2,3;
 4//1;
 5/5=2,38=5/2;
 6/7=2,8=2,9=2,10=2,28=1/1;
 7/30=1/1,2,3,16;
 1/18=20,19=15,26=5/3(2);
 2/9=110,15=1/2;
 99//99;
 2/9=110,15=1/2;
 3/5=4,6=6,7=111,11=2,25=1,30=1,71=1,74=-55,75=-7,116=2/1,2,3;
 4/5=5,16=3,69=1/1;
 5/5=2,38=5/2;
 7/30=1/1,2,3,16;
 1/18=20,19=15,26=5/3(-5);
 2/9=110,15=1/2;
 6/7=2,8=2,9=2,10=2,19=2,28=1/1;
 99/9=1/99;
 Leave Link    1 at Mon Apr 21 20:44:45 2025, MaxMem=   536870912 cpu:               5.9 elap:               0.7
 (Enter /home/szhao/Apps/g16/l101.exe)
 -------------------
 Title Card Required
 -------------------
 Symbolic Z-matrix:
 Charge =  0 Multiplicity = 1
 P                    -1   -1.44222   0.        0. 
 P                    -1    1.44222   0.        0. 
 H                    0     1.55905  -1.40926   0. 
 H                    0    -1.55907   1.39816  -0.17652 
 H                    0     1.68226   0.11794  -1.3898 
 H                    0    -1.68227  -0.2911   -1.36408 
 
 Add virtual bond connecting atoms P2         and P1         Dist= 5.45D+00.
 ITRead=  2  2  0  0  0  0
 MicOpt= -2 -2 -1 -1 -1 -1
 NAtoms=      6 NQM=        4 NQMF=       2 NMMI=      0 NMMIF=      0
                NMic=       0 NMicF=      0.
                    Isotopes and Nuclear Properties:
 (Nuclear quadrupole moments (NQMom) in fm**2, nuclear magnetic moments (NMagM)
  in nuclear magnetons)

  Atom         1           2           3           4           5           6
 IAtWgt=          31          31           1           1           1           1
 AtmWgt=  30.9737634  30.9737634   1.0078250   1.0078250   1.0078250   1.0078250
 NucSpn=           1           1           1           1           1           1
 AtZEff=  -0.0000000  -0.0000000  -0.0000000  -0.0000000  -0.0000000  -0.0000000
 NQMom=    0.0000000   0.0000000   0.0000000   0.0000000   0.0000000   0.0000000
 NMagM=    1.1316000   1.1316000   2.7928460   2.7928460   2.7928460   2.7928460
 AtZNuc=  15.0000000  15.0000000   1.0000000   1.0000000   1.0000000   1.0000000
 Leave Link  101 at Mon Apr 21 20:44:46 2025, MaxMem=   536870912 cpu:               2.9 elap:               0.7
 (Enter /home/szhao/Apps/g16/l103.exe)

 GradGradGradGradGradGradGradGradGradGradGradGradGradGradGradGradGradGrad
 Berny optimization.
 Initialization pass.
                           ----------------------------
                           !    Initial Parameters    !
                           ! (Angstroms and Degrees)  !
 --------------------------                            --------------------------
 ! Name  Definition              Value          Derivative Info.                !
 --------------------------------------------------------------------------------
 ! X1    R(1,-1)                -1.4422         Frozen                          !
 ! Y1    R(1,-2)                 0.0            Frozen                          !
 ! Z1    R(1,-3)                 0.0            Frozen                          !
 ! X2    R(2,-1)                 1.4422         Frozen                          !
 ! Y2    R(2,-2)                 0.0            Frozen                          !
 ! Z2    R(2,-3)                 0.0            Frozen                          !
 ! R1    R(1,4)                  1.4141         estimate D2E/DX2                !
 ! R2    R(1,6)                  1.4153         estimate D2E/DX2                !
 ! R3    R(2,3)                  1.4141         estimate D2E/DX2                !
 ! R4    R(2,5)                  1.4153         estimate D2E/DX2                !
 ! A1    A(2,1,4)               94.74           estimate D2E/DX2                !
 ! A2    A(2,1,6)               99.7651         estimate D2E/DX2                !
 ! A3    A(4,1,6)               93.9586         estimate D2E/DX2                !
 ! A4    A(1,2,3)               94.7393         estimate D2E/DX2                !
 ! A5    A(1,2,5)               99.7651         estimate D2E/DX2                !
 ! A6    A(3,2,5)               93.9584         estimate D2E/DX2                !
 ! D1    D(4,1,2,3)           -172.8043         estimate D2E/DX2                !
 ! D2    D(4,1,2,5)            -77.9538         estimate D2E/DX2                !
 ! D3    D(6,1,2,3)            -77.9535         estimate D2E/DX2                !
 ! D4    D(6,1,2,5)             16.897          estimate D2E/DX2                !
 --------------------------------------------------------------------------------
 Trust Radius=3.00D-01 FncErr=1.00D-07 GrdErr=1.00D-07 EigMax=2.50D+02 EigMin=1.00D-04
 Number of steps in this run=     30 maximum allowed number of steps=    100.
 GradGradGradGradGradGradGradGradGradGradGradGradGradGradGradGradGradGrad

 Leave Link  103 at Mon Apr 21 20:44:47 2025, MaxMem=   536870912 cpu:               0.4 elap:               0.3
 (Enter /home/szhao/Apps/g16/l202.exe)
                          Input orientation:                          
 ---------------------------------------------------------------------
 Center     Atomic      Atomic             Coordinates (Angstroms)
 Number     Number       Type             X           Y           Z
 ---------------------------------------------------------------------
      1         15           0       -1.442217    0.000000    0.000000
      2         15           0        1.442217    0.000000    0.000000
      3          1           0        1.559053   -1.409264    0.000000
      4          1           0       -1.559069    1.398163   -0.176523
      5          1           0        1.682265    0.117937   -1.389802
      6          1           0       -1.682265   -0.291103   -1.364082
 ---------------------------------------------------------------------
                    Distance matrix (angstroms):
                    1          2          3          4          5
     1  P    0.000000
     2  P    2.884433   0.000000
     3  H    3.315666   1.414099   0.000000
     4  H    1.414098   3.315680   4.199463   0.000000
     5  H    3.421673   1.415303   2.068593   3.690158   0.000000
     6  H    1.415303   3.421673   3.690142   2.068596   3.389401
                    6
     6  H    0.000000
 Symmetry turned off by external request.
 Stoichiometry    H4P2
 Framework group  C1[X(H4P2)]
 Deg. of freedom    12
 Full point group                 C1      NOp   1
 Rotational constants (GHZ):          65.7244937           3.5273103           3.5211706
 Leave Link  202 at Mon Apr 21 20:44:47 2025, MaxMem=   536870912 cpu:               0.2 elap:               0.2
 (Enter /home/szhao/Apps/g16/l301.exe)
 Standard basis: 6-311+G(d,p) (5D, 7F)
 Ernie: Thresh=  0.10000D-02 Tol=  0.10000D-05 Strict=F.
    84 basis functions,   132 primitive gaussians,    86 cartesian basis functions
    17 alpha electrons       17 beta electrons
       nuclear repulsion energy        74.2299591208 Hartrees.
 IExCor= 4336 DFT=T Ex+Corr=M062X ExCW=0 ScaHFX=  0.540000
 ScaDFX=  1.000000  1.000000  1.000000  1.000000 ScalE2=  1.000000  1.000000
 IRadAn=      7 IRanWt=     -1 IRanGd=            0 ICorTp=0 IEmpDi=  4
 NAtoms=    6 NActive=    6 NUniq=    6 SFac= 1.00D+00 NAtFMM=   60 NAOKFM=F Big=F
 Integral buffers will be    131072 words long.
 Raffenetti 2 integral format.
 Two-electron integral symmetry is turned off.
 Leave Link  301 at Mon Apr 21 20:44:48 2025, MaxMem=   536870912 cpu:               0.9 elap:               0.2
 (Enter /home/szhao/Apps/g16/l302.exe)
 NPDir=0 NMtPBC=     1 NCelOv=     1 NCel=       1 NClECP=     1 NCelD=      1
         NCelK=      1 NCelE2=     1 NClLst=     1 CellRange=     0.0.
 One-electron integrals computed using PRISM.
 NBasis=    84 RedAO= T EigKep=  2.29D-03  NBF=    84
 NBsUse=    84 1.00D-06 EigRej= -1.00D+00 NBFU=    84
 Precomputing XC quadrature grid using
 IXCGrd= 4 IRadAn=           7 IRanWt=          -1 IRanGd=           0 AccXCQ= 0.00D+00.
 Generated NRdTot=       0 NPtTot=           0 NUsed=           0 NTot=          32
 NSgBfM=    83    83    83    83    83 MxSgAt=     6 MxSgA2=     6.
 Leave Link  302 at Mon Apr 21 20:44:49 2025, MaxMem=   536870912 cpu:               1.9 elap:               0.4
 (Enter /home/szhao/Apps/g16/l303.exe)
 DipDrv:  MaxL=1.
 Leave Link  303 at Mon Apr 21 20:44:49 2025, MaxMem=   536870912 cpu:               0.8 elap:               0.2
 (Enter /home/szhao/Apps/g16/l401.exe)
 ExpMin= 3.48D-02 ExpMax= 7.75D+04 ExpMxC= 2.65D+03 IAcc=3 IRadAn=         7 AccDes= 0.00D+00
 Harris functional with IExCor= 1009 and IRadAn=       7 diagonalized for initial guess.
 HarFok:  IExCor= 1009 AccDes= 0.00D+00 IRadAn=         7 IDoV= 1 UseB2=F ITyADJ=14
 ICtDFT=  3500011 ScaDFX=  1.000000  1.000000  1.000000  1.000000
 FoFCou: FMM=F IPFlag=           0 FMFlag=      100000 FMFlg1=           0
         NFxFlg=           0 DoJE=T BraDBF=F KetDBF=T FulRan=T
         wScrn=  0.000000 ICntrl=       500 IOpCl=  0 I1Cent=   200000004 NGrid=           0
         NMat0=    1 NMatS0=      1 NMatT0=    0 NMatD0=    1 NMtDS0=    0 NMtDT0=    0
 Symmetry not used in FoFCou.
 Harris En= -684.716941350334    
 JPrj=0 DoOrth=F DoCkMO=F.
 Initial guess <Sx>= 0.0000 <Sy>= 0.0000 <Sz>= 0.0000 <S**2>=-0.0000 S=-0.0000
 Leave Link  401 at Mon Apr 21 20:44:50 2025, MaxMem=   536870912 cpu:               4.7 elap:               0.7
 (Enter /home/szhao/Apps/g16/l502.exe)
 Keep R1 and R2 ints in memory in canonical form, NReq=20057634.
 FoFCou: FMM=F IPFlag=           0 FMFlag=           0 FMFlg1=           0
         NFxFlg=           0 DoJE=F BraDBF=F KetDBF=F FulRan=T
         wScrn=  0.000000 ICntrl=       600 IOpCl=  0 I1Cent=           0 NGrid=           0
         NMat0=    1 NMatS0=   3570 NMatT0=    0 NMatD0=    1 NMtDS0=    0 NMtDT0=    0
 Symmetry not used in FoFCou.
 Two-electron integral symmetry not used.
 UHF open shell SCF:
 Using DIIS extrapolation, IDIIS=  1040.
 NGot=   536870912 LenX=   524106186 LenY=   524098349
 Requested convergence on RMS density matrix=1.00D-08 within 128 cycles.
 Requested convergence on MAX density matrix=1.00D-06.
 Requested convergence on             energy=1.00D-06.
 No special actions if energy rises.

 Cycle   1  Pass 1  IDiag  1:
 E= -684.997090816054    
 DIIS: error= 2.28D-02 at cycle   1 NSaved=   1.
 NSaved= 1 IEnMin= 1 EnMin= -684.997090816054     IErMin= 1 ErrMin= 2.28D-02
 ErrMax= 2.28D-02  0.00D+00 EMaxC= 1.00D-01 BMatC= 2.16D-01 BMatP= 2.16D-01
 IDIUse=3 WtCom= 7.72D-01 WtEn= 2.28D-01
 Coeff-Com:  0.100D+01
 Coeff-En:   0.100D+01
 Coeff:      0.100D+01
 Gap=     0.221 Goal=   None    Shift=    0.000
 Gap=     0.221 Goal=   None    Shift=    0.000
 GapD=    0.221 DampG=1.000 DampE=0.500 DampFc=0.5000 IDamp=-1.
 Damping current iteration by 5.00D-01
 RMSDP=1.53D-03 MaxDP=1.67D-02              OVMax= 3.14D-02

 Cycle   2  Pass 1  IDiag  1:
 E= -685.005335449381     Delta-E=       -0.008244633327 Rises=F Damp=T
 DIIS: error= 9.96D-03 at cycle   2 NSaved=   2.
 NSaved= 2 IEnMin= 2 EnMin= -685.005335449381     IErMin= 2 ErrMin= 9.96D-03
 ErrMax= 9.96D-03  0.00D+00 EMaxC= 1.00D-01 BMatC= 3.65D-02 BMatP= 2.16D-01
 IDIUse=3 WtCom= 9.00D-01 WtEn= 9.96D-02
 Coeff-Com: -0.634D+00 0.163D+01
 Coeff-En:   0.000D+00 0.100D+01
 Coeff:     -0.571D+00 0.157D+01
 Gap=     0.219 Goal=   None    Shift=    0.000
 Gap=     0.219 Goal=   None    Shift=    0.000
 RMSDP=8.30D-04 MaxDP=9.70D-03 DE=-8.24D-03 OVMax= 9.64D-03

 Cycle   3  Pass 1  IDiag  1:
 E= -685.012979334082     Delta-E=       -0.007643884701 Rises=F Damp=F
 DIIS: error= 5.03D-04 at cycle   3 NSaved=   3.
 NSaved= 3 IEnMin= 3 EnMin= -685.012979334082     IErMin= 3 ErrMin= 5.03D-04
 ErrMax= 5.03D-04  0.00D+00 EMaxC= 1.00D-01 BMatC= 1.66D-04 BMatP= 3.65D-02
 IDIUse=3 WtCom= 9.95D-01 WtEn= 5.03D-03
 Coeff-Com: -0.773D-01 0.162D+00 0.916D+00
 Coeff-En:   0.000D+00 0.000D+00 0.100D+01
 Coeff:     -0.769D-01 0.161D+00 0.916D+00
 Gap=     0.220 Goal=   None    Shift=    0.000
 Gap=     0.220 Goal=   None    Shift=    0.000
 RMSDP=1.49D-04 MaxDP=4.21D-03 DE=-7.64D-03 OVMax= 3.04D-03

 Cycle   4  Pass 1  IDiag  1:
 E= -685.013016807723     Delta-E=       -0.000037473641 Rises=F Damp=F
 DIIS: error= 2.03D-04 at cycle   4 NSaved=   4.
 NSaved= 4 IEnMin= 4 EnMin= -685.013016807723     IErMin= 4 ErrMin= 2.03D-04
 ErrMax= 2.03D-04  0.00D+00 EMaxC= 1.00D-01 BMatC= 1.91D-05 BMatP= 1.66D-04
 IDIUse=3 WtCom= 9.98D-01 WtEn= 2.03D-03
 Coeff-Com: -0.326D-02 0.343D-02 0.262D+00 0.738D+00
 Coeff-En:   0.000D+00 0.000D+00 0.000D+00 0.100D+01
 Coeff:     -0.325D-02 0.343D-02 0.261D+00 0.738D+00
 Gap=     0.220 Goal=   None    Shift=    0.000
 Gap=     0.220 Goal=   None    Shift=    0.000
 RMSDP=4.12D-05 MaxDP=9.90D-04 DE=-3.75D-05 OVMax= 1.39D-03

 Cycle   5  Pass 1  IDiag  1:
 E= -685.013023824913     Delta-E=       -0.000007017190 Rises=F Damp=F
 DIIS: error= 3.66D-05 at cycle   5 NSaved=   5.
 NSaved= 5 IEnMin= 5 EnMin= -685.013023824913     IErMin= 5 ErrMin= 3.66D-05
 ErrMax= 3.66D-05  0.00D+00 EMaxC= 1.00D-01 BMatC= 5.85D-07 BMatP= 1.91D-05
 IDIUse=1 WtCom= 1.00D+00 WtEn= 0.00D+00
 Coeff-Com:  0.270D-02-0.552D-02-0.633D-01 0.123D-02 0.106D+01
 Coeff:      0.270D-02-0.552D-02-0.633D-01 0.123D-02 0.106D+01
 Gap=     0.220 Goal=   None    Shift=    0.000
 Gap=     0.220 Goal=   None    Shift=    0.000
 RMSDP=1.46D-05 MaxDP=2.02D-04 DE=-7.02D-06 OVMax= 5.80D-04

 Cycle   6  Pass 1  IDiag  1:
 E= -685.013024236356     Delta-E=       -0.000000411442 Rises=F Damp=F
 DIIS: error= 8.64D-06 at cycle   6 NSaved=   6.
 NSaved= 6 IEnMin= 6 EnMin= -685.013024236356     IErMin= 6 ErrMin= 8.64D-06
 ErrMax= 8.64D-06  0.00D+00 EMaxC= 1.00D-01 BMatC= 2.29D-08 BMatP= 5.85D-07
 IDIUse=1 WtCom= 1.00D+00 WtEn= 0.00D+00
 Coeff-Com:  0.203D-03-0.215D-03-0.178D-01-0.281D-01 0.556D-01 0.990D+00
 Coeff:      0.203D-03-0.215D-03-0.178D-01-0.281D-01 0.556D-01 0.990D+00
 Gap=     0.220 Goal=   None    Shift=    0.000
 Gap=     0.220 Goal=   None    Shift=    0.000
 RMSDP=3.39D-06 MaxDP=4.76D-05 DE=-4.11D-07 OVMax= 1.99D-04

 Cycle   7  Pass 1  IDiag  1:
 E= -685.013024264920     Delta-E=       -0.000000028564 Rises=F Damp=F
 DIIS: error= 2.62D-06 at cycle   7 NSaved=   7.
 NSaved= 7 IEnMin= 7 EnMin= -685.013024264920     IErMin= 7 ErrMin= 2.62D-06
 ErrMax= 2.62D-06  0.00D+00 EMaxC= 1.00D-01 BMatC= 3.23D-09 BMatP= 2.29D-08
 IDIUse=1 WtCom= 1.00D+00 WtEn= 0.00D+00
 Coeff-Com: -0.667D-04 0.167D-03 0.225D-02-0.238D-02-0.844D-01 0.915D-01
 Coeff-Com:  0.993D+00
 Coeff:     -0.667D-04 0.167D-03 0.225D-02-0.238D-02-0.844D-01 0.915D-01
 Coeff:      0.993D+00
 Gap=     0.220 Goal=   None    Shift=    0.000
 Gap=     0.220 Goal=   None    Shift=    0.000
 RMSDP=1.05D-06 MaxDP=1.31D-05 DE=-2.86D-08 OVMax= 6.15D-05

 Cycle   8  Pass 1  IDiag  1:
 E= -685.013024267738     Delta-E=       -0.000000002818 Rises=F Damp=F
 DIIS: error= 4.20D-07 at cycle   8 NSaved=   8.
 NSaved= 8 IEnMin= 8 EnMin= -685.013024267738     IErMin= 8 ErrMin= 4.20D-07
 ErrMax= 4.20D-07  0.00D+00 EMaxC= 1.00D-01 BMatC= 1.44D-10 BMatP= 3.23D-09
 IDIUse=1 WtCom= 1.00D+00 WtEn= 0.00D+00
 Coeff-Com: -0.312D-04 0.524D-04 0.130D-02 0.275D-02-0.560D-02-0.706D-01
 Coeff-Com:  0.470D-01 0.103D+01
 Coeff:     -0.312D-04 0.524D-04 0.130D-02 0.275D-02-0.560D-02-0.706D-01
 Coeff:      0.470D-01 0.103D+01
 Gap=     0.220 Goal=   None    Shift=    0.000
 Gap=     0.220 Goal=   None    Shift=    0.000
 RMSDP=2.50D-07 MaxDP=3.14D-06 DE=-2.82D-09 OVMax= 1.32D-05

 Cycle   9  Pass 1  IDiag  1:
 E= -685.013024267851     Delta-E=       -0.000000000113 Rises=F Damp=F
 DIIS: error= 2.60D-07 at cycle   9 NSaved=   9.
 NSaved= 9 IEnMin= 9 EnMin= -685.013024267851     IErMin= 9 ErrMin= 2.60D-07
 ErrMax= 2.60D-07  0.00D+00 EMaxC= 1.00D-01 BMatC= 4.73D-11 BMatP= 1.44D-10
 IDIUse=1 WtCom= 1.00D+00 WtEn= 0.00D+00
 Coeff-Com: -0.125D-04 0.189D-04 0.491D-03 0.145D-02 0.981D-03-0.373D-01
 Coeff-Com: -0.215D-01 0.488D+00 0.567D+00
 Coeff:     -0.125D-04 0.189D-04 0.491D-03 0.145D-02 0.981D-03-0.373D-01
 Coeff:     -0.215D-01 0.488D+00 0.567D+00
 Gap=     0.220 Goal=   None    Shift=    0.000
 Gap=     0.220 Goal=   None    Shift=    0.000
 RMSDP=6.25D-08 MaxDP=1.57D-06 DE=-1.13D-10 OVMax= 3.50D-06

 Cycle  10  Pass 1  IDiag  1:
 E= -685.013024267868     Delta-E=       -0.000000000017 Rises=F Damp=F
 DIIS: error= 6.38D-08 at cycle  10 NSaved=  10.
 NSaved=10 IEnMin=10 EnMin= -685.013024267868     IErMin=10 ErrMin= 6.38D-08
 ErrMax= 6.38D-08  0.00D+00 EMaxC= 1.00D-01 BMatC= 3.32D-12 BMatP= 4.73D-11
 IDIUse=1 WtCom= 1.00D+00 WtEn= 0.00D+00
 Coeff-Com: -0.131D-05 0.121D-05 0.396D-04 0.295D-03 0.107D-02-0.713D-02
 Coeff-Com: -0.175D-01 0.751D-01 0.235D+00 0.713D+00
 Coeff:     -0.131D-05 0.121D-05 0.396D-04 0.295D-03 0.107D-02-0.713D-02
 Coeff:     -0.175D-01 0.751D-01 0.235D+00 0.713D+00
 Gap=     0.220 Goal=   None    Shift=    0.000
 Gap=     0.220 Goal=   None    Shift=    0.000
 RMSDP=1.68D-08 MaxDP=3.33D-07 DE=-1.71D-11 OVMax= 7.70D-07

 Cycle  11  Pass 1  IDiag  1:
 E= -685.013024267870     Delta-E=       -0.000000000002 Rises=F Damp=F
 DIIS: error= 9.78D-09 at cycle  11 NSaved=  11.
 NSaved=11 IEnMin=11 EnMin= -685.013024267870     IErMin=11 ErrMin= 9.78D-09
 ErrMax= 9.78D-09  0.00D+00 EMaxC= 1.00D-01 BMatC= 4.20D-14 BMatP= 3.32D-12
 IDIUse=1 WtCom= 1.00D+00 WtEn= 0.00D+00
 Coeff-Com:  0.515D-06-0.724D-06-0.220D-04-0.780D-04-0.203D-03 0.254D-02
 Coeff-Com:  0.111D-02-0.302D-01-0.332D-01 0.520D-02 0.105D+01
 Coeff:      0.515D-06-0.724D-06-0.220D-04-0.780D-04-0.203D-03 0.254D-02
 Coeff:      0.111D-02-0.302D-01-0.332D-01 0.520D-02 0.105D+01
 Gap=     0.220 Goal=   None    Shift=    0.000
 Gap=     0.220 Goal=   None    Shift=    0.000
 RMSDP=4.70D-09 MaxDP=5.22D-08 DE=-1.93D-12 OVMax= 1.25D-07

 SCF Done:  E(UM062X) =  -685.013024268     A.U. after   11 cycles
            NFock= 11  Conv=0.47D-08     -V/T= 2.0017
 <Sx>= 0.0000 <Sy>= 0.0000 <Sz>= 0.0000 <S**2>=-0.0000 S=-0.0000
 <L.S>=  0.00000000000    
 KE= 6.838610023343D+02 PE=-1.777937389001D+03 EE= 3.348334032778D+02
 Annihilation of the first spin contaminant:
 S**2 before annihilation    -0.0000,   after     0.0000
 Leave Link  502 at Mon Apr 21 20:45:02 2025, MaxMem=   536870912 cpu:              83.2 elap:              11.1
 (Enter /home/szhao/Apps/g16/l601.exe)
 Copying SCF densities to generalized density rwf, IOpCl= 1 IROHF=0.

 **********************************************************************

            Population analysis using the SCF density.

 **********************************************************************

 Alpha  occ. eigenvalues --  -78.04219 -78.04219  -6.86592  -6.86591  -4.98143
 Alpha  occ. eigenvalues --   -4.98142  -4.98060  -4.98060  -4.97858  -4.97858
 Alpha  occ. eigenvalues --   -0.72504  -0.69276  -0.45387  -0.45100  -0.37677
 Alpha  occ. eigenvalues --   -0.34342  -0.29049
 Alpha virt. eigenvalues --   -0.07036   0.01402   0.03281   0.03757   0.03989
 Alpha virt. eigenvalues --    0.05025   0.05317   0.06237   0.06255   0.07111
 Alpha virt. eigenvalues --    0.09327   0.15079   0.18448   0.28553   0.28638
 Alpha virt. eigenvalues --    0.29646   0.31063   0.32562   0.34270   0.36970
 Alpha virt. eigenvalues --    0.39650   0.41559   0.53225   0.60465   0.63608
 Alpha virt. eigenvalues --    0.64805   0.65839   0.67512   0.70363   0.70541
 Alpha virt. eigenvalues --    0.77703   0.87632   0.89748   0.96369   0.97163
 Alpha virt. eigenvalues --    1.37856   1.37975   1.43687   1.43814   1.47834
 Alpha virt. eigenvalues --    1.49498   1.50541   1.51410   1.53428   1.60626
 Alpha virt. eigenvalues --    1.61866   1.68097   1.70035   1.79754   2.02047
 Alpha virt. eigenvalues --    2.03170   2.12552   2.13396   2.56376   2.56493
 Alpha virt. eigenvalues --    2.64075   2.75449   7.03122   7.08293  13.94821
 Alpha virt. eigenvalues --   14.03527  14.03754  14.05401  14.05647  14.09493
 Alpha virt. eigenvalues --  163.30422 163.38092
  Beta  occ. eigenvalues --  -78.04219 -78.04219  -6.86592  -6.86591  -4.98143
  Beta  occ. eigenvalues --   -4.98142  -4.98060  -4.98060  -4.97858  -4.97858
  Beta  occ. eigenvalues --   -0.72504  -0.69276  -0.45387  -0.45100  -0.37677
  Beta  occ. eigenvalues --   -0.34342  -0.29049
  Beta virt. eigenvalues --   -0.07036   0.01402   0.03281   0.03757   0.03989
  Beta virt. eigenvalues --    0.05025   0.05317   0.06237   0.06255   0.07111
  Beta virt. eigenvalues --    0.09327   0.15079   0.18448   0.28553   0.28638
  Beta virt. eigenvalues --    0.29646   0.31063   0.32562   0.34270   0.36970
  Beta virt. eigenvalues --    0.39650   0.41559   0.53225   0.60465   0.63608
  Beta virt. eigenvalues --    0.64805   0.65839   0.67512   0.70363   0.70541
  Beta virt. eigenvalues --    0.77703   0.87632   0.89748   0.96369   0.97163
  Beta virt. eigenvalues --    1.37856   1.37975   1.43687   1.43814   1.47834
  Beta virt. eigenvalues --    1.49498   1.50541   1.51410   1.53428   1.60626
  Beta virt. eigenvalues --    1.61866   1.68097   1.70035   1.79754   2.02047
  Beta virt. eigenvalues --    2.03170   2.12552   2.13396   2.56376   2.56493
  Beta virt. eigenvalues --    2.64075   2.75449   7.03122   7.08293  13.94821
  Beta virt. eigenvalues --   14.03527  14.03754  14.05401  14.05647  14.09493
  Beta virt. eigenvalues --  163.30422 163.38092
          Condensed to atoms (all electrons):
               1          2          3          4          5          6
     1  P   14.277280   0.252872  -0.027030   0.286473  -0.021199   0.275080
     2  P    0.252872  14.277279   0.286466  -0.027029   0.275077  -0.021198
     3  H   -0.027030   0.286466   0.742757   0.001158  -0.027852   0.000818
     4  H    0.286473  -0.027029   0.001158   0.742751   0.000818  -0.027854
     5  H   -0.021199   0.275077  -0.027852   0.000818   0.752919   0.000448
     6  H    0.275080  -0.021198   0.000818  -0.027854   0.000448   0.752915
          Atomic-Atomic Spin Densities.
               1          2          3          4          5          6
     1  P    0.000000   0.000000   0.000000   0.000000  -0.000000  -0.000000
     2  P    0.000000  -0.000000   0.000000  -0.000000   0.000000   0.000000
     3  H    0.000000   0.000000   0.000000   0.000000  -0.000000  -0.000000
     4  H    0.000000  -0.000000   0.000000  -0.000000   0.000000  -0.000000
     5  H   -0.000000   0.000000  -0.000000   0.000000  -0.000000   0.000000
     6  H   -0.000000   0.000000  -0.000000  -0.000000   0.000000   0.000000
 Mulliken charges and spin densities:
               1          2
     1  P   -0.043476   0.000000
     2  P   -0.043468  -0.000000
     3  H    0.023682   0.000000
     4  H    0.023683  -0.000000
     5  H    0.019788   0.000000
     6  H    0.019790  -0.000000
 Sum of Mulliken charges =  -0.00000  -0.00000
 Mulliken charges and spin densities with hydrogens summed into heavy atoms:
               1          2
     1  P   -0.000002   0.000000
     2  P    0.000002  -0.000000
 Electronic spatial extent (au):  <R**2>=            354.6101
 Charge=             -0.0000 electrons
 Dipole moment (field-independent basis, Debye):
    X=             -0.0000    Y=             -0.0790    Z=             -1.2565  Tot=              1.2589
 Quadrupole moment (field-independent basis, Debye-Ang):
   XX=            -29.4005   YY=            -29.2741   ZZ=            -30.2660
   XY=             -2.3845   XZ=              0.1500   YZ=             -0.0626
 Traceless Quadrupole moment (field-independent basis, Debye-Ang):
   XX=              0.2464   YY=              0.3728   ZZ=             -0.6191
   XY=             -2.3845   XZ=              0.1500   YZ=             -0.0626
 Octapole moment (field-independent basis, Debye-Ang**2):
  XXX=              0.0001  YYY=              0.3884  ZZZ=              6.1741  XYY=             -0.3171
  XXY=             -0.2715  XXZ=             -4.3193  XZZ=              0.3172  YZZ=              0.1294
  YYZ=              2.0585  XYZ=             -2.5118
 Hexadecapole moment (field-independent basis, Debye-Ang**3):
 XXXX=           -424.8767 YYYY=            -63.7289 ZZZZ=            -66.5621 XXXY=             -2.2017
 XXXZ=              0.1386 YYYX=              5.7798 YYYZ=             -0.2759 ZZZX=             -0.4017
 ZZZY=              0.0972 XXYY=            -81.3374 XXZZ=            -83.8720 YYZZ=            -22.6844
 XXYZ=             -0.1599 YYXZ=             -0.0954 ZZXY=              2.1285
 N-N= 7.422995912077D+01 E-N=-1.777937388910D+03  KE= 6.838610023343D+02
                          Isotropic Fermi Contact Couplings
        Atom                 a.u.       MegaHertz       Gauss      10(-4) cm-1
     1  P(31)              0.00000       0.00000       0.00000       0.00000
     2  P(31)              0.00000       0.00000       0.00000       0.00000
     3  H(1)               0.00000       0.00000       0.00000       0.00000
     4  H(1)              -0.00000      -0.00000      -0.00000      -0.00000
     5  H(1)               0.00000       0.00000       0.00000       0.00000
     6  H(1)              -0.00000      -0.00000      -0.00000      -0.00000
 --------------------------------------------------------
       Center         ----  Spin Dipole Couplings  ----
                      3XX-RR        3YY-RR        3ZZ-RR
 --------------------------------------------------------
     1   Atom        0.000000      0.000000      0.000000
     2   Atom        0.000000      0.000000      0.000000
     3   Atom        0.000000      0.000000      0.000000
     4   Atom        0.000000      0.000000      0.000000
     5   Atom        0.000000      0.000000      0.000000
     6   Atom        0.000000      0.000000      0.000000
 --------------------------------------------------------
                        XY            XZ            YZ
 --------------------------------------------------------
     1   Atom        0.000000      0.000000      0.000000
     2   Atom        0.000000      0.000000      0.000000
     3   Atom        0.000000      0.000000      0.000000
     4   Atom        0.000000      0.000000      0.000000
     5   Atom        0.000000      0.000000      0.000000
     6   Atom        0.000000      0.000000      0.000000
 --------------------------------------------------------


 ---------------------------------------------------------------------------------
              Anisotropic Spin Dipole Couplings in Principal Axis System
 ---------------------------------------------------------------------------------

       Atom             a.u.   MegaHertz   Gauss  10(-4) cm-1        Axes

              Baa     0.0000     0.000     0.000     0.000  1.0000  0.0000  0.0000
     1 P(31)  Bbb     0.0000     0.000     0.000     0.000 -0.0000  1.0000  0.0000
              Bcc     0.0000     0.000     0.000     0.000  0.0000  0.0000  1.0000
 
              Baa     0.0000     0.000     0.000     0.000  1.0000  0.0000  0.0000
     2 P(31)  Bbb     0.0000     0.000     0.000     0.000 -0.0000  1.0000  0.0000
              Bcc     0.0000     0.000     0.000     0.000  0.0000  0.0000  1.0000
 
              Baa     0.0000     0.000     0.000     0.000  1.0000  0.0000  0.0000
     3 H(1)   Bbb     0.0000     0.000     0.000     0.000 -0.0000  1.0000  0.0000
              Bcc     0.0000     0.000     0.000     0.000  0.0000  0.0000  1.0000
 
              Baa     0.0000     0.000     0.000     0.000  1.0000  0.0000  0.0000
     4 H(1)   Bbb     0.0000     0.000     0.000     0.000 -0.0000  1.0000  0.0000
              Bcc     0.0000     0.000     0.000     0.000  0.0000  0.0000  1.0000
 
              Baa     0.0000     0.000     0.000     0.000  1.0000  0.0000  0.0000
     5 H(1)   Bbb     0.0000     0.000     0.000     0.000 -0.0000  1.0000  0.0000
              Bcc     0.0000     0.000     0.000     0.000  0.0000  0.0000  1.0000
 
              Baa     0.0000     0.000     0.000     0.000  1.0000  0.0000  0.0000
     6 H(1)   Bbb     0.0000     0.000     0.000     0.000 -0.0000  1.0000  0.0000
              Bcc     0.0000     0.000     0.000     0.000  0.0000  0.0000  1.0000
 

 ---------------------------------------------------------------------------------

 No NMR shielding tensors so no spin-rotation constants.
 Leave Link  601 at Mon Apr 21 20:45:02 2025, MaxMem=   536870912 cpu:               1.9 elap:               0.3
 (Enter /home/szhao/Apps/g16/l701.exe)
 ... and contract with generalized density number  0.
 Compute integral first derivatives.
 Leave Link  701 at Mon Apr 21 20:45:03 2025, MaxMem=   536870912 cpu:               1.9 elap:               0.3
 (Enter /home/szhao/Apps/g16/l702.exe)
 L702 exits ... SP integral derivatives will be done elsewhere.
 Leave Link  702 at Mon Apr 21 20:45:03 2025, MaxMem=   536870912 cpu:               0.5 elap:               0.2
 (Enter /home/szhao/Apps/g16/l703.exe)
 Integral derivatives from FoFJK, PRISM(SPDF).
 Compute integral first derivatives, UseDBF=F ICtDFT=           0.
 Calling FoFJK, ICntrl=      2127 FMM=F ISym2X=0 I1Cent= 0 IOpClX= 1 NMat=1 NMatS=1 NMatT=0.
 FoFJK:  IHMeth= 1 ICntrl=    2127 DoSepK=F KAlg= 0 I1Cent=           0 FoldK=F
 IRaf=         0 NMat=       1 IRICut=       1 DoRegI=T DoRafI=F ISym2E= 0 IDoP0=0 IntGTp=1.
 FoFCou: FMM=F IPFlag=           0 FMFlag=      100000 FMFlg1=         800
         NFxFlg=           0 DoJE=F BraDBF=F KetDBF=F FulRan=T
         wScrn=  0.000000 ICntrl=      2127 IOpCl=  1 I1Cent=           0 NGrid=           0
         NMat0=    1 NMatS0=      1 NMatT0=    0 NMatD0=    1 NMtDS0=    0 NMtDT0=    0
 Symmetry not used in FoFCou.
 Leave Link  703 at Mon Apr 21 20:45:05 2025, MaxMem=   536870912 cpu:              11.5 elap:               1.5
 (Enter /home/szhao/Apps/g16/l716.exe)
 Dipole        =-4.26010103D-06-3.10756135D-02-4.94328274D-01
 -------------------------------------------------------------------
 Center     Atomic                   Forces (Hartrees/Bohr)
 Number     Number              X              Y              Z
 -------------------------------------------------------------------
      1       15          -0.000000000   -0.000000000   -0.000000000
      2       15          -0.000000000   -0.000000000   -0.000000000
      3        1          -0.003237345   -0.001344710   -0.001637431
      4        1           0.003237671    0.001121292   -0.001805387
      5        1          -0.003488505   -0.001496548   -0.001788386
      6        1           0.003483273    0.001257501   -0.001953616
 -------------------------------------------------------------------
 Cartesian Forces:  Max     0.003488505 RMS     0.001901868
 Leave Link  716 at Mon Apr 21 20:45:05 2025, MaxMem=   536870912 cpu:               0.5 elap:               0.1
 (Enter /home/szhao/Apps/g16/l103.exe)

 GradGradGradGradGradGradGradGradGradGradGradGradGradGradGradGradGradGrad
 Berny optimization.
 FormGI is forming the generalized inverse of G from B-inverse, IUseBI=4.
 Internal  Forces:  Max     0.010029041 RMS     0.005362062
 Search for a local minimum.
 Step number   1 out of a maximum of   30
 All quantities printed in internal units (Hartrees-Bohrs-Radians)
 RMS Force = .53173D-02 SwitMx=.10000D-02 MixMth= 1
 Mixed Optimization -- RFO/linear search
 Second derivative matrix not updated -- first step.
 The second derivative matrix:
                          X1        Y1        Z1        X2        Y2
           X1           0.50000
           Y1           0.00000   0.50000
           Z1           0.00000   0.00000   0.50000
           X2           0.00000   0.00000   0.00000   0.50000
           Y2           0.00000   0.00000   0.00000   0.00000   0.50000
           Z2           0.00000   0.00000   0.00000   0.00000   0.00000
           R1           0.00000   0.00000   0.00000   0.00000   0.00000
           R2           0.00000   0.00000   0.00000   0.00000   0.00000
           R3           0.00000   0.00000   0.00000   0.00000   0.00000
           R4           0.00000   0.00000   0.00000   0.00000   0.00000
           A1           0.00000   0.00000   0.00000   0.00000   0.00000
           A2           0.00000   0.00000   0.00000   0.00000   0.00000
           A3           0.00000   0.00000   0.00000   0.00000   0.00000
           A4           0.00000   0.00000   0.00000   0.00000   0.00000
           A5           0.00000   0.00000   0.00000   0.00000   0.00000
           A6           0.00000   0.00000   0.00000   0.00000   0.00000
           D1           0.00000   0.00000   0.00000   0.00000   0.00000
           D2           0.00000   0.00000   0.00000   0.00000   0.00000
           D3           0.00000   0.00000   0.00000   0.00000   0.00000
           D4           0.00000   0.00000   0.00000   0.00000   0.00000
                          Z2        R1        R2        R3        R4
           Z2           0.50000
           R1           0.00000   0.21281
           R2           0.00000   0.00000   0.21209
           R3           0.00000   0.00000   0.00000   0.21281
           R4           0.00000   0.00000   0.00000   0.00000   0.21209
           A1           0.00000   0.00000   0.00000   0.00000   0.00000
           A2           0.00000   0.00000   0.00000   0.00000   0.00000
           A3           0.00000   0.00000   0.00000   0.00000   0.00000
           A4           0.00000   0.00000   0.00000   0.00000   0.00000
           A5           0.00000   0.00000   0.00000   0.00000   0.00000
           A6           0.00000   0.00000   0.00000   0.00000   0.00000
           D1           0.00000   0.00000   0.00000   0.00000   0.00000
           D2           0.00000   0.00000   0.00000   0.00000   0.00000
           D3           0.00000   0.00000   0.00000   0.00000   0.00000
           D4           0.00000   0.00000   0.00000   0.00000   0.00000
                          A1        A2        A3        A4        A5
           A1           0.16000
           A2           0.00000   0.16000
           A3           0.00000   0.00000   0.16000
           A4           0.00000   0.00000   0.00000   0.16000
           A5           0.00000   0.00000   0.00000   0.00000   0.16000
           A6           0.00000   0.00000   0.00000   0.00000   0.00000
           D1           0.00000   0.00000   0.00000   0.00000   0.00000
           D2           0.00000   0.00000   0.00000   0.00000   0.00000
           D3           0.00000   0.00000   0.00000   0.00000   0.00000
           D4           0.00000   0.00000   0.00000   0.00000   0.00000
                          A6        D1        D2        D3        D4
           A6           0.16000
           D1           0.00000   0.00230
           D2           0.00000   0.00000   0.00230
           D3           0.00000   0.00000   0.00000   0.00230
           D4           0.00000   0.00000   0.00000   0.00000   0.00230
 ITU=  0
     Eigenvalues ---    0.00230   0.07808   0.07808   0.16000   0.16000
     Eigenvalues ---    0.16000   0.16000   0.21209   0.21209   0.21281
     Eigenvalues ---    0.212811000.000001000.000001000.000001000.00000
     Eigenvalues --- 1000.000001000.000001000.000001000.000001000.00000
 RFO step:  Lambda=-2.71952487D-03 EMin= 2.30000000D-03
 Linear search not attempted -- first point.
 Iteration  1 RMS(Cart)=  0.07640451 RMS(Int)=  0.00273581
 Iteration  2 RMS(Cart)=  0.00308232 RMS(Int)=  0.00101983
 Iteration  3 RMS(Cart)=  0.00000788 RMS(Int)=  0.00101983
 Iteration  4 RMS(Cart)=  0.00000002 RMS(Int)=  0.00101983
 ITry= 1 IFail=0 DXMaxC= 1.68D-01 DCOld= 1.00D+10 DXMaxT= 3.00D-01 DXLimC= 3.00D+00 Rises=F
 Variable       Old X    -DE/DX   Delta X   Delta X   Delta X     New X
                                 (Linear)    (Quad)   (Total)
    X1       -2.72539   0.00672   0.00000   0.00000   0.00000  -2.72539
    Y1        0.00000   0.00537   0.00000   0.00000   0.00000   0.00000
    Z1        0.00000  -0.00394   0.00000   0.00000   0.00000   0.00000
    X2        2.72539  -0.00673   0.00000   0.00000   0.00000   2.72539
    Y2        0.00000  -0.00582   0.00000   0.00000   0.00000   0.00000
    Z2        0.00000  -0.00325   0.00000   0.00000   0.00000   0.00000
    R1        2.67226   0.00107   0.00000   0.00495   0.00495   2.67721
    R2        2.67454   0.00103   0.00000   0.00481   0.00481   2.67935
    R3        2.67226   0.00107   0.00000   0.00498   0.00498   2.67724
    R4        2.67453   0.00104   0.00000   0.00484   0.00484   2.67938
    A1        1.65352  -0.00907   0.00000  -0.05938  -0.05962   1.59390
    A2        1.74123  -0.01001   0.00000  -0.06351  -0.06357   1.67766
    A3        1.63989  -0.00087   0.00000  -0.02593  -0.02821   1.61168
    A4        1.65351  -0.00907   0.00000  -0.05937  -0.05961   1.59390
    A5        1.74123  -0.01003   0.00000  -0.06360  -0.06367   1.67756
    A6        1.63988  -0.00087   0.00000  -0.02586  -0.02814   1.61174
    D1       -3.01600   0.00351   0.00000   0.04606   0.04380  -2.97221
    D2       -1.36055   0.00002   0.00000   0.00281   0.00281  -1.35774
    D3       -1.36054   0.00001   0.00000   0.00275   0.00274  -1.35780
    D4        0.29491  -0.00348   0.00000  -0.04051  -0.03824   0.25667
         Item               Value     Threshold  Converged?
 Maximum Force            0.010029     0.000450     NO 
 RMS     Force            0.005317     0.000300     NO 
 Maximum Displacement     0.168103     0.001800     NO 
 RMS     Displacement     0.077752     0.001200     NO 
 Predicted change in Energy=-1.356012D-03
 Lowest energy point so far.  Saving SCF results.
 GradGradGradGradGradGradGradGradGradGradGradGradGradGradGradGradGradGrad

 Leave Link  103 at Mon Apr 21 20:45:06 2025, MaxMem=   536870912 cpu:               0.8 elap:               0.4
 (Enter /home/szhao/Apps/g16/l202.exe)
                          Input orientation:                          
 ---------------------------------------------------------------------
 Center     Atomic      Atomic             Coordinates (Angstroms)
 Number     Number       Type             X           Y           Z
 ---------------------------------------------------------------------
      1         15           0       -1.442217    0.000000    0.000000
      2         15           0        1.442217    0.000000    0.000000
      3          1           0        1.474945   -1.416037   -0.029981
      4          1           0       -1.474948    1.400810   -0.209156
      5          1           0        1.593309    0.091344   -1.406829
      6          1           0       -1.593446   -0.268775   -1.383903
 ---------------------------------------------------------------------
                    Distance matrix (angstroms):
                    1          2          3          4          5
     1  P    0.000000
     2  P    2.884433   0.000000
     3  H    3.242821   1.416733   0.000000
     4  H    1.416717   3.242817   4.082719   0.000000
     5  H    3.346927   1.417864   2.044974   3.544477   0.000000
     6  H    1.417849   3.347039   3.544620   2.044892   3.207119
                    6
     6  H    0.000000
 Symmetry turned off by external request.
 Stoichiometry    H4P2
 Framework group  C1[X(H4P2)]
 Deg. of freedom    12
 Full point group                 C1      NOp   1
 Rotational constants (GHZ):          64.7067673           3.5520695           3.5481949
 Leave Link  202 at Mon Apr 21 20:45:06 2025, MaxMem=   536870912 cpu:               0.2 elap:               0.1
 (Enter /home/szhao/Apps/g16/l301.exe)
 Standard basis: 6-311+G(d,p) (5D, 7F)
 Ernie: Thresh=  0.10000D-02 Tol=  0.10000D-05 Strict=F.
    84 basis functions,   132 primitive gaussians,    86 cartesian basis functions
    17 alpha electrons       17 beta electrons
       nuclear repulsion energy        74.4302291710 Hartrees.
 IExCor= 4336 DFT=T Ex+Corr=M062X ExCW=0 ScaHFX=  0.540000
 ScaDFX=  1.000000  1.000000  1.000000  1.000000 ScalE2=  1.000000  1.000000
 IRadAn=      7 IRanWt=     -1 IRanGd=            0 ICorTp=0 IEmpDi=  4
 NAtoms=    6 NActive=    6 NUniq=    6 SFac= 1.00D+00 NAtFMM=   60 NAOKFM=F Big=F
 Integral buffers will be    131072 words long.
 Raffenetti 2 integral format.
 Two-electron integral symmetry is turned off.
 Leave Link  301 at Mon Apr 21 20:45:07 2025, MaxMem=   536870912 cpu:               0.7 elap:               0.1
 (Enter /home/szhao/Apps/g16/l302.exe)
 NPDir=0 NMtPBC=     1 NCelOv=     1 NCel=       1 NClECP=     1 NCelD=      1
         NCelK=      1 NCelE2=     1 NClLst=     1 CellRange=     0.0.
 One-electron integrals computed using PRISM.
 NBasis=    84 RedAO= T EigKep=  2.27D-03  NBF=    84
 NBsUse=    84 1.00D-06 EigRej= -1.00D+00 NBFU=    84
 Precomputing XC quadrature grid using
 IXCGrd= 4 IRadAn=           7 IRanWt=          -1 IRanGd=           0 AccXCQ= 0.00D+00.
 Generated NRdTot=       0 NPtTot=           0 NUsed=           0 NTot=          32
 NSgBfM=    83    83    83    83    83 MxSgAt=     6 MxSgA2=     6.
 Leave Link  302 at Mon Apr 21 20:45:07 2025, MaxMem=   536870912 cpu:               2.0 elap:               0.3
 (Enter /home/szhao/Apps/g16/l303.exe)
 DipDrv:  MaxL=1.
 Leave Link  303 at Mon Apr 21 20:45:08 2025, MaxMem=   536870912 cpu:               0.6 elap:               0.2
 (Enter /home/szhao/Apps/g16/l401.exe)
 Initial guess from the checkpoint file:  "opt.chk"
 B after Tr=    -0.000007   -0.000350   -0.005535
         Rot=    0.999998    0.000357    0.000122    0.001943 Ang=   0.23 deg.
 Guess basis will be translated and rotated to current coordinates.
 JPrj=2 DoOrth=T DoCkMO=T.
 Initial guess <Sx>= 0.0000 <Sy>= 0.0000 <Sz>= 0.0000 <S**2>=-0.0000 S=-0.0000
 Generating alternative initial guess.
 ExpMin= 3.48D-02 ExpMax= 7.75D+04 ExpMxC= 2.65D+03 IAcc=3 IRadAn=         5 AccDes= 0.00D+00
 Harris functional with IExCor= 1009 and IRadAn=       5 diagonalized for initial guess.
 HarFok:  IExCor= 1009 AccDes= 0.00D+00 IRadAn=         5 IDoV= 1 UseB2=F ITyADJ=14
 ICtDFT=  3500011 ScaDFX=  1.000000  1.000000  1.000000  1.000000
 FoFCou: FMM=F IPFlag=           0 FMFlag=      100000 FMFlg1=           0
         NFxFlg=           0 DoJE=T BraDBF=F KetDBF=T FulRan=T
         wScrn=  0.000000 ICntrl=       500 IOpCl=  0 I1Cent=   200000004 NGrid=           0
         NMat0=    1 NMatS0=      1 NMatT0=    0 NMatD0=    1 NMtDS0=    0 NMtDT0=    0
 Symmetry not used in FoFCou.
 Harris En= -684.720192179840    
 Leave Link  401 at Mon Apr 21 20:45:09 2025, MaxMem=   536870912 cpu:               5.7 elap:               0.9
 (Enter /home/szhao/Apps/g16/l502.exe)
 Keep R1 and R2 ints in memory in canonical form, NReq=20057634.
 FoFCou: FMM=F IPFlag=           0 FMFlag=           0 FMFlg1=           0
         NFxFlg=           0 DoJE=F BraDBF=F KetDBF=F FulRan=T
         wScrn=  0.000000 ICntrl=       600 IOpCl=  0 I1Cent=           0 NGrid=           0
         NMat0=    1 NMatS0=   3570 NMatT0=    0 NMatD0=    1 NMtDS0=    0 NMtDT0=    0
 Symmetry not used in FoFCou.
 Two-electron integral symmetry not used.
 UHF open shell SCF:
 Using DIIS extrapolation, IDIIS=  1040.
 NGot=   536870912 LenX=   524106186 LenY=   524098349
 Requested convergence on RMS density matrix=1.00D-08 within 128 cycles.
 Requested convergence on MAX density matrix=1.00D-06.
 Requested convergence on             energy=1.00D-06.
 No special actions if energy rises.

 Cycle   1  Pass 1  IDiag  1:
 E= -685.013395223315    
 DIIS: error= 2.38D-03 at cycle   1 NSaved=   1.
 NSaved= 1 IEnMin= 1 EnMin= -685.013395223315     IErMin= 1 ErrMin= 2.38D-03
 ErrMax= 2.38D-03  0.00D+00 EMaxC= 1.00D-01 BMatC= 2.52D-03 BMatP= 2.52D-03
 IDIUse=3 WtCom= 9.76D-01 WtEn= 2.38D-02
 Coeff-Com:  0.100D+01
 Coeff-En:   0.100D+01
 Coeff:      0.100D+01
 Gap=     0.435 Goal=   None    Shift=    0.000
 Gap=     0.435 Goal=   None    Shift=    0.000
 GapD=    0.435 DampG=2.000 DampE=1.000 DampFc=2.0000 IDamp=-1.
 RMSDP=7.25D-04 MaxDP=7.99D-03              OVMax= 1.95D-02

 Cycle   2  Pass 1  IDiag  1:
 E= -685.014778574221     Delta-E=       -0.001383350907 Rises=F Damp=F
 DIIS: error= 4.59D-04 at cycle   2 NSaved=   2.
 NSaved= 2 IEnMin= 2 EnMin= -685.014778574221     IErMin= 2 ErrMin= 4.59D-04
 ErrMax= 4.59D-04  0.00D+00 EMaxC= 1.00D-01 BMatC= 1.25D-04 BMatP= 2.52D-03
 IDIUse=3 WtCom= 9.95D-01 WtEn= 4.59D-03
 Coeff-Com: -0.117D+00 0.112D+01
 Coeff-En:   0.000D+00 0.100D+01
 Coeff:     -0.116D+00 0.112D+01
 Gap=     0.223 Goal=   None    Shift=    0.000
 Gap=     0.223 Goal=   None    Shift=    0.000
 RMSDP=1.66D-04 MaxDP=1.59D-03 DE=-1.38D-03 OVMax= 7.38D-03

 Cycle   3  Pass 1  IDiag  1:
 E= -685.014880576829     Delta-E=       -0.000102002608 Rises=F Damp=F
 DIIS: error= 1.96D-04 at cycle   3 NSaved=   3.
 NSaved= 3 IEnMin= 3 EnMin= -685.014880576829     IErMin= 3 ErrMin= 1.96D-04
 ErrMax= 1.96D-04  0.00D+00 EMaxC= 1.00D-01 BMatC= 1.41D-05 BMatP= 1.25D-04
 IDIUse=3 WtCom= 9.98D-01 WtEn= 1.96D-03
 Coeff-Com: -0.446D-01 0.215D+00 0.829D+00
 Coeff-En:   0.000D+00 0.000D+00 0.100D+01
 Coeff:     -0.445D-01 0.215D+00 0.830D+00
 Gap=     0.223 Goal=   None    Shift=    0.000
 Gap=     0.223 Goal=   None    Shift=    0.000
 RMSDP=6.76D-05 MaxDP=1.16D-03 DE=-1.02D-04 OVMax= 2.85D-03

 Cycle   4  Pass 1  IDiag  1:
 E= -685.014890738308     Delta-E=       -0.000010161478 Rises=F Damp=F
 DIIS: error= 8.40D-05 at cycle   4 NSaved=   4.
 NSaved= 4 IEnMin= 4 EnMin= -685.014890738308     IErMin= 4 ErrMin= 8.40D-05
 ErrMax= 8.40D-05  0.00D+00 EMaxC= 1.00D-01 BMatC= 3.00D-06 BMatP= 1.41D-05
 IDIUse=1 WtCom= 1.00D+00 WtEn= 0.00D+00
 Coeff-Com:  0.103D-01-0.145D+00 0.155D+00 0.980D+00
 Coeff:      0.103D-01-0.145D+00 0.155D+00 0.980D+00
 Gap=     0.224 Goal=   None    Shift=    0.000
 Gap=     0.224 Goal=   None    Shift=    0.000
 RMSDP=2.32D-05 MaxDP=2.20D-04 DE=-1.02D-05 OVMax= 1.31D-03

 Cycle   5  Pass 1  IDiag  1:
 E= -685.014892554208     Delta-E=       -0.000001815901 Rises=F Damp=F
 DIIS: error= 1.15D-05 at cycle   5 NSaved=   5.
 NSaved= 5 IEnMin= 5 EnMin= -685.014892554208     IErMin= 5 ErrMin= 1.15D-05
 ErrMax= 1.15D-05  0.00D+00 EMaxC= 1.00D-01 BMatC= 6.03D-08 BMatP= 3.00D-06
 IDIUse=1 WtCom= 1.00D+00 WtEn= 0.00D+00
 Coeff-Com:  0.262D-02-0.194D-01-0.132D-01-0.491D-02 0.103D+01
 Coeff:      0.262D-02-0.194D-01-0.132D-01-0.491D-02 0.103D+01
 Gap=     0.224 Goal=   None    Shift=    0.000
 Gap=     0.224 Goal=   None    Shift=    0.000
 RMSDP=4.94D-06 MaxDP=5.26D-05 DE=-1.82D-06 OVMax= 2.83D-04

 Cycle   6  Pass 1  IDiag  1:
 E= -685.014892611994     Delta-E=       -0.000000057786 Rises=F Damp=F
 DIIS: error= 3.09D-06 at cycle   6 NSaved=   6.
 NSaved= 6 IEnMin= 6 EnMin= -685.014892611994     IErMin= 6 ErrMin= 3.09D-06
 ErrMax= 3.09D-06  0.00D+00 EMaxC= 1.00D-01 BMatC= 4.98D-09 BMatP= 6.03D-08
 IDIUse=1 WtCom= 1.00D+00 WtEn= 0.00D+00
 Coeff-Com: -0.663D-03 0.116D-01-0.136D-01-0.879D-01 0.171D+00 0.919D+00
 Coeff:     -0.663D-03 0.116D-01-0.136D-01-0.879D-01 0.171D+00 0.919D+00
 Gap=     0.224 Goal=   None    Shift=    0.000
 Gap=     0.224 Goal=   None    Shift=    0.000
 RMSDP=1.17D-06 MaxDP=1.71D-05 DE=-5.78D-08 OVMax= 5.44D-05

 Cycle   7  Pass 1  IDiag  1:
 E= -685.014892614896     Delta-E=       -0.000000002902 Rises=F Damp=F
 DIIS: error= 3.69D-07 at cycle   7 NSaved=   7.
 NSaved= 7 IEnMin= 7 EnMin= -685.014892614896     IErMin= 7 ErrMin= 3.69D-07
 ErrMax= 3.69D-07  0.00D+00 EMaxC= 1.00D-01 BMatC= 1.19D-10 BMatP= 4.98D-09
 IDIUse=1 WtCom= 1.00D+00 WtEn= 0.00D+00
 Coeff-Com: -0.983D-04 0.122D-02-0.141D-02-0.489D-02-0.212D-01 0.480D-01
 Coeff-Com:  0.978D+00
 Coeff:     -0.983D-04 0.122D-02-0.141D-02-0.489D-02-0.212D-01 0.480D-01
 Coeff:      0.978D+00
 Gap=     0.224 Goal=   None    Shift=    0.000
 Gap=     0.224 Goal=   None    Shift=    0.000
 RMSDP=2.85D-07 MaxDP=4.23D-06 DE=-2.90D-09 OVMax= 9.64D-06

 Cycle   8  Pass 1  IDiag  1:
 E= -685.014892614984     Delta-E=       -0.000000000088 Rises=F Damp=F
 DIIS: error= 2.70D-07 at cycle   8 NSaved=   8.
 NSaved= 8 IEnMin= 8 EnMin= -685.014892614984     IErMin= 8 ErrMin= 2.70D-07
 ErrMax= 2.70D-07  0.00D+00 EMaxC= 1.00D-01 BMatC= 5.50D-11 BMatP= 1.19D-10
 IDIUse=1 WtCom= 1.00D+00 WtEn= 0.00D+00
 Coeff-Com: -0.957D-05-0.604D-04 0.840D-04 0.241D-02-0.185D-01-0.328D-01
 Coeff-Com:  0.470D+00 0.579D+00
 Coeff:     -0.957D-05-0.604D-04 0.840D-04 0.241D-02-0.185D-01-0.328D-01
 Coeff:      0.470D+00 0.579D+00
 Gap=     0.224 Goal=   None    Shift=    0.000
 Gap=     0.224 Goal=   None    Shift=    0.000
 RMSDP=7.56D-08 MaxDP=1.77D-06 DE=-8.78D-11 OVMax= 4.08D-06

 Cycle   9  Pass 1  IDiag  1:
 E= -685.014892615007     Delta-E=       -0.000000000023 Rises=F Damp=F
 DIIS: error= 6.69D-08 at cycle   9 NSaved=   9.
 NSaved= 9 IEnMin= 9 EnMin= -685.014892615007     IErMin= 9 ErrMin= 6.69D-08
 ErrMax= 6.69D-08  0.00D+00 EMaxC= 1.00D-01 BMatC= 4.06D-12 BMatP= 5.50D-11
 IDIUse=1 WtCom= 1.00D+00 WtEn= 0.00D+00
 Coeff-Com:  0.125D-04-0.219D-03 0.300D-03 0.163D-02-0.255D-02-0.225D-01
 Coeff-Com:  0.596D-02 0.212D+00 0.806D+00
 Coeff:      0.125D-04-0.219D-03 0.300D-03 0.163D-02-0.255D-02-0.225D-01
 Coeff:      0.596D-02 0.212D+00 0.806D+00
 Gap=     0.224 Goal=   None    Shift=    0.000
 Gap=     0.224 Goal=   None    Shift=    0.000
 RMSDP=2.81D-08 MaxDP=6.68D-07 DE=-2.25D-11 OVMax= 1.22D-06

 Cycle  10  Pass 1  IDiag  1:
 E= -685.014892615007     Delta-E=        0.000000000000 Rises=F Damp=F
 DIIS: error= 1.20D-08 at cycle  10 NSaved=  10.
 NSaved=10 IEnMin= 9 EnMin= -685.014892615007     IErMin=10 ErrMin= 1.20D-08
 ErrMax= 1.20D-08  0.00D+00 EMaxC= 1.00D-01 BMatC= 6.38D-14 BMatP= 4.06D-12
 IDIUse=1 WtCom= 1.00D+00 WtEn= 0.00D+00
 Coeff-Com:  0.153D-05-0.111D-04 0.119D-04-0.775D-05 0.834D-03 0.102D-02
 Coeff-Com: -0.297D-01-0.188D-01 0.679D-01 0.979D+00
 Coeff:      0.153D-05-0.111D-04 0.119D-04-0.775D-05 0.834D-03 0.102D-02
 Coeff:     -0.297D-01-0.188D-01 0.679D-01 0.979D+00
 Gap=     0.224 Goal=   None    Shift=    0.000
 Gap=     0.224 Goal=   None    Shift=    0.000
 RMSDP=5.73D-09 MaxDP=6.00D-08 DE= 0.00D+00 OVMax= 2.33D-07

 SCF Done:  E(UM062X) =  -685.014892615     A.U. after   10 cycles
            NFock= 10  Conv=0.57D-08     -V/T= 2.0017
 <Sx>= 0.0000 <Sy>= 0.0000 <Sz>= 0.0000 <S**2>=-0.0000 S=-0.0000
 <L.S>=  0.00000000000    
 KE= 6.838580275507D+02 PE=-1.778346598718D+03 EE= 3.350434493814D+02
 Annihilation of the first spin contaminant:
 S**2 before annihilation    -0.0000,   after     0.0000
 Leave Link  502 at Mon Apr 21 20:45:19 2025, MaxMem=   536870912 cpu:              73.8 elap:               9.9
 (Enter /home/szhao/Apps/g16/l701.exe)
 ... and contract with generalized density number  0.
 Compute integral first derivatives.
 Leave Link  701 at Mon Apr 21 20:45:20 2025, MaxMem=   536870912 cpu:               1.7 elap:               0.3
 (Enter /home/szhao/Apps/g16/l702.exe)
 L702 exits ... SP integral derivatives will be done elsewhere.
 Leave Link  702 at Mon Apr 21 20:45:20 2025, MaxMem=   536870912 cpu:               0.4 elap:               0.1
 (Enter /home/szhao/Apps/g16/l703.exe)
 Integral derivatives from FoFJK, PRISM(SPDF).
 Compute integral first derivatives, UseDBF=F ICtDFT=           0.
 Calling FoFJK, ICntrl=      2127 FMM=F ISym2X=0 I1Cent= 0 IOpClX= 1 NMat=1 NMatS=1 NMatT=0.
 FoFJK:  IHMeth= 1 ICntrl=    2127 DoSepK=F KAlg= 0 I1Cent=           0 FoldK=F
 IRaf=         0 NMat=       1 IRICut=       1 DoRegI=T DoRafI=F ISym2E= 0 IDoP0=0 IntGTp=1.
 FoFCou: FMM=F IPFlag=           0 FMFlag=      100000 FMFlg1=         800
         NFxFlg=           0 DoJE=F BraDBF=F KetDBF=F FulRan=T
         wScrn=  0.000000 ICntrl=      2127 IOpCl=  1 I1Cent=           0 NGrid=           0
         NMat0=    1 NMatS0=      1 NMatT0=    0 NMatD0=    1 NMtDS0=    0 NMtDT0=    0
 Symmetry not used in FoFCou.
 Leave Link  703 at Mon Apr 21 20:45:22 2025, MaxMem=   536870912 cpu:              11.5 elap:               1.5
 (Enter /home/szhao/Apps/g16/l716.exe)
 Dipole        = 5.78112451D-05-3.09250256D-02-4.86191914D-01
 -------------------------------------------------------------------
 Center     Atomic                   Forces (Hartrees/Bohr)
 Number     Number              X              Y              Z
 -------------------------------------------------------------------
      1       15          -0.000000000   -0.000000000   -0.000000000
      2       15          -0.000000000   -0.000000000   -0.000000000
      3        1          -0.000867433   -0.000223686    0.000231717
      4        1           0.000865569    0.000253563    0.000210145
      5        1          -0.002178482    0.000164819   -0.000447450
      6        1           0.002185588   -0.000227467   -0.000435170
 -------------------------------------------------------------------
 Cartesian Forces:  Max     0.002185588 RMS     0.000806395
 Leave Link  716 at Mon Apr 21 20:45:22 2025, MaxMem=   536870912 cpu:               0.4 elap:               0.1
 (Enter /home/szhao/Apps/g16/l103.exe)

 GradGradGradGradGradGradGradGradGradGradGradGradGradGradGradGradGradGrad
 Berny optimization.
 Using GEDIIS/GDIIS optimizer.
 FormGI is forming the generalized inverse of G from B-inverse, IUseBI=4.
 Internal  Forces:  Max     0.005944199 RMS     0.002245750
 Search for a local minimum.
 Step number   2 out of a maximum of   30
 All quantities printed in internal units (Hartrees-Bohrs-Radians)
 RMS Force = .24121D-02 SwitMx=.10000D-02 MixMth= 1
 Mixed Optimization -- RFO/linear search
 Update second derivatives using D2CorX and points    1    2
 DE= -1.87D-03 DEPred=-1.36D-03 R= 1.38D+00
 TightC=F SS=  1.41D+00  RLast= 1.42D-01 DXNew= 5.0454D-01 4.2725D-01
 Trust test= 1.38D+00 RLast= 1.42D-01 DXMaxT set to 4.27D-01
 The second derivative matrix:
                          X1        Y1        Z1        X2        Y2
           X1           0.50786
           Y1           0.01026   0.51338
           Z1          -0.00787  -0.01027   0.50789
           X2          -0.00788  -0.01028   0.00790   0.50791
           Y2          -0.01115  -0.01454   0.01117   0.01118   0.51581
           Z2          -0.00658  -0.00858   0.00659   0.00660   0.00933
           R1           0.00186   0.00242  -0.00186  -0.00186  -0.00263
           R2           0.00171   0.00223  -0.00171  -0.00172  -0.00243
           R3           0.00187   0.00244  -0.00188  -0.00188  -0.00266
           R4           0.00175   0.00228  -0.00175  -0.00176  -0.00248
           A1          -0.01455  -0.01898   0.01457   0.01459   0.02064
           A2          -0.00872  -0.01137   0.00873   0.00874   0.01236
           A3          -0.00286  -0.00374   0.00287   0.00287   0.00406
           A4          -0.01454  -0.01896   0.01456   0.01458   0.02062
           A5          -0.00880  -0.01148   0.00881   0.00882   0.01248
           A6          -0.00283  -0.00369   0.00283   0.00284   0.00401
           D1           0.00778   0.01015  -0.00779  -0.00780  -0.01103
           D2           0.00019   0.00025  -0.00019  -0.00019  -0.00027
           D3           0.00016   0.00021  -0.00016  -0.00016  -0.00023
           D4          -0.00742  -0.00968   0.00743   0.00744   0.01053
                          Z2        R1        R2        R3        R4
           Z2           0.50550
           R1          -0.00155   0.21284
           R2          -0.00143   0.00001   0.21208
           R3          -0.00157   0.00003   0.00001   0.21285
           R4          -0.00146   0.00002  -0.00000   0.00002   0.21209
           A1           0.01217   0.00026   0.00042   0.00026   0.00037
           A2           0.00729   0.00189   0.00193   0.00189   0.00190
           A3           0.00240   0.00107   0.00107   0.00108   0.00107
           A4           0.01216   0.00027   0.00042   0.00026   0.00037
           A5           0.00736   0.00187   0.00191   0.00188   0.00189
           A6           0.00237   0.00108   0.00108   0.00108   0.00107
           D1          -0.00651   0.00180   0.00166   0.00181   0.00169
           D2          -0.00016   0.00004   0.00004   0.00004   0.00004
           D3          -0.00014   0.00004   0.00003   0.00004   0.00003
           D4           0.00621  -0.00172  -0.00158  -0.00173  -0.00162
                          A1        A2        A3        A4        A5
           A1           0.15341
           A2          -0.01961   0.13156
           A3          -0.01056  -0.01373   0.15354
           A4          -0.00661  -0.01962  -0.01056   0.15336
           A5          -0.01951  -0.02841  -0.01373  -0.01952   0.13162
           A6          -0.01058  -0.01373  -0.00645  -0.01059  -0.01373
           D1          -0.01404  -0.00825  -0.00267  -0.01403  -0.00833
           D2          -0.00034  -0.00019  -0.00006  -0.00033  -0.00019
           D3          -0.00028  -0.00016  -0.00005  -0.00028  -0.00016
           D4           0.01343   0.00790   0.00256   0.01341   0.00798
                          A6        D1        D2        D3        D4
           A6           0.15355
           D1          -0.00263   0.00999
           D2          -0.00006   0.00019   0.00230
           D3          -0.00005   0.00016   0.00000   0.00230
           D4           0.00253  -0.00734  -0.00018  -0.00015   0.00930
 ITU=  1  0
 Use linear search instead of GDIIS.
     Eigenvalues ---    0.00230   0.07749   0.08019   0.09390   0.16000
     Eigenvalues ---    0.16000   0.17122   0.21209   0.21220   0.21281
     Eigenvalues ---    0.213071000.000001000.000001000.000001000.00000
     Eigenvalues --- 1000.000001000.000001000.000001000.000001000.00000
 RFO step:  Lambda=-3.61558691D-04 EMin= 2.30197988D-03
 Quartic linear search produced a step of  0.54981.
 Iteration  1 RMS(Cart)=  0.06611797 RMS(Int)=  0.00237222
 Iteration  2 RMS(Cart)=  0.00220476 RMS(Int)=  0.00100027
 Iteration  3 RMS(Cart)=  0.00000126 RMS(Int)=  0.00100027
 Iteration  4 RMS(Cart)=  0.00000000 RMS(Int)=  0.00100027
 ITry= 1 IFail=0 DXMaxC= 1.75D-01 DCOld= 1.00D+10 DXMaxT= 4.27D-01 DXLimC= 3.00D+00 Rises=F
 Variable       Old X    -DE/DX   Delta X   Delta X   Delta X     New X
                                 (Linear)    (Quad)   (Total)
    X1       -2.72539   0.00305   0.00000   0.00000   0.00000  -2.72539
    Y1        0.00000   0.00058   0.00000   0.00000   0.00000   0.00000
    Z1        0.00000  -0.00027   0.00000   0.00000   0.00000   0.00000
    X2        2.72539  -0.00305   0.00000   0.00000   0.00000   2.72539
    Y2        0.00000  -0.00062   0.00000   0.00000   0.00000   0.00000
    Z2        0.00000  -0.00018   0.00000   0.00000   0.00000   0.00000
    R1        2.67721   0.00020   0.00272  -0.00070   0.00202   2.67922
    R2        2.67935   0.00023   0.00265  -0.00038   0.00227   2.68161
    R3        2.67724   0.00020   0.00274  -0.00072   0.00201   2.67925
    R4        2.67938   0.00022   0.00266  -0.00048   0.00218   2.68155
    A1        1.59390  -0.00228  -0.03278   0.00350  -0.02937   1.56453
    A2        1.67766  -0.00594  -0.03495  -0.03042  -0.06536   1.61230
    A3        1.61168   0.00046  -0.01551   0.01726  -0.00048   1.61120
    A4        1.59390  -0.00229  -0.03278   0.00343  -0.02944   1.56446
    A5        1.67756  -0.00592  -0.03500  -0.03016  -0.06515   1.61241
    A6        1.61174   0.00045  -0.01547   0.01706  -0.00065   1.61109
    D1       -2.97221  -0.00012   0.02408  -0.06306  -0.04121  -3.01342
    D2       -1.35774  -0.00007   0.00154  -0.04636  -0.04482  -1.40256
    D3       -1.35780  -0.00006   0.00151  -0.04615  -0.04465  -1.40245
    D4        0.25667  -0.00002  -0.02103  -0.02946  -0.04825   0.20841
         Item               Value     Threshold  Converged?
 Maximum Force            0.005944     0.000450     NO 
 RMS     Force            0.002412     0.000300     NO 
 Maximum Displacement     0.174510     0.001800     NO 
 RMS     Displacement     0.066339     0.001200     NO 
 Predicted change in Energy=-4.937620D-04
 Lowest energy point so far.  Saving SCF results.
 GradGradGradGradGradGradGradGradGradGradGradGradGradGradGradGradGradGrad

 Leave Link  103 at Mon Apr 21 20:45:23 2025, MaxMem=   536870912 cpu:               1.0 elap:               0.3
 (Enter /home/szhao/Apps/g16/l202.exe)
                          Input orientation:                          
 ---------------------------------------------------------------------
 Center     Atomic      Atomic             Coordinates (Angstroms)
 Number     Number       Type             X           Y           Z
 ---------------------------------------------------------------------
      1         15           0       -1.442217    0.000000    0.000000
      2         15           0        1.442217    0.000000    0.000000
      3          1           0        1.433233   -1.417770    0.000551
      4          1           0       -1.433331    1.406057   -0.181766
      5          1           0        1.501252    0.056234   -1.416673
      6          1           0       -1.501099   -0.238109   -1.397689
 ---------------------------------------------------------------------
                    Distance matrix (angstroms):
                    1          2          3          4          5
     1  P    0.000000
     2  P    2.884433   0.000000
     3  H    3.205975   1.417798   0.000000
     4  H    1.417785   3.206058   4.027955   0.000000
     5  H    3.267129   1.419017   2.045931   3.458149   0.000000
     6  H    1.419048   3.267007   3.457886   2.046055   3.016805
                    6
     6  H    0.000000
 Symmetry turned off by external request.
 Stoichiometry    H4P2
 Framework group  C1[X(H4P2)]
 Deg. of freedom    12
 Full point group                 C1      NOp   1
 Rotational constants (GHZ):          64.2535968           3.5711197           3.5687584
 Leave Link  202 at Mon Apr 21 20:45:23 2025, MaxMem=   536870912 cpu:               0.4 elap:               0.1
 (Enter /home/szhao/Apps/g16/l301.exe)
 Standard basis: 6-311+G(d,p) (5D, 7F)
 Ernie: Thresh=  0.10000D-02 Tol=  0.10000D-05 Strict=F.
    84 basis functions,   132 primitive gaussians,    86 cartesian basis functions
    17 alpha electrons       17 beta electrons
       nuclear repulsion energy        74.6041140827 Hartrees.
 IExCor= 4336 DFT=T Ex+Corr=M062X ExCW=0 ScaHFX=  0.540000
 ScaDFX=  1.000000  1.000000  1.000000  1.000000 ScalE2=  1.000000  1.000000
 IRadAn=      7 IRanWt=     -1 IRanGd=            0 ICorTp=0 IEmpDi=  4
 NAtoms=    6 NActive=    6 NUniq=    6 SFac= 1.00D+00 NAtFMM=   60 NAOKFM=F Big=F
 Integral buffers will be    131072 words long.
 Raffenetti 2 integral format.
 Two-electron integral symmetry is turned off.
 Leave Link  301 at Mon Apr 21 20:45:24 2025, MaxMem=   536870912 cpu:               0.8 elap:               0.1
 (Enter /home/szhao/Apps/g16/l302.exe)
 NPDir=0 NMtPBC=     1 NCelOv=     1 NCel=       1 NClECP=     1 NCelD=      1
         NCelK=      1 NCelE2=     1 NClLst=     1 CellRange=     0.0.
 One-electron integrals computed using PRISM.
 NBasis=    84 RedAO= T EigKep=  2.34D-03  NBF=    84
 NBsUse=    84 1.00D-06 EigRej= -1.00D+00 NBFU=    84
 Precomputing XC quadrature grid using
 IXCGrd= 4 IRadAn=           7 IRanWt=          -1 IRanGd=           0 AccXCQ= 0.00D+00.
 Generated NRdTot=       0 NPtTot=           0 NUsed=           0 NTot=          32
 NSgBfM=    84    84    84    84    84 MxSgAt=     6 MxSgA2=     6.
 Leave Link  302 at Mon Apr 21 20:45:24 2025, MaxMem=   536870912 cpu:               1.6 elap:               0.2
 (Enter /home/szhao/Apps/g16/l303.exe)
 DipDrv:  MaxL=1.
 Leave Link  303 at Mon Apr 21 20:45:25 2025, MaxMem=   536870912 cpu:               0.6 elap:               0.1
 (Enter /home/szhao/Apps/g16/l401.exe)
 Initial guess from the checkpoint file:  "opt.chk"
 B after Tr=     0.000010    0.000115    0.001895
         Rot=    0.999999    0.000496    0.000087    0.001322 Ang=   0.16 deg.
 Guess basis will be translated and rotated to current coordinates.
 JPrj=2 DoOrth=T DoCkMO=T.
 Initial guess <Sx>= 0.0000 <Sy>= 0.0000 <Sz>= 0.0000 <S**2>=-0.0000 S=-0.0000
 Generating alternative initial guess.
 ExpMin= 3.48D-02 ExpMax= 7.75D+04 ExpMxC= 2.65D+03 IAcc=3 IRadAn=         5 AccDes= 0.00D+00
 Harris functional with IExCor= 1009 and IRadAn=       5 diagonalized for initial guess.
 HarFok:  IExCor= 1009 AccDes= 0.00D+00 IRadAn=         5 IDoV= 1 UseB2=F ITyADJ=14
 ICtDFT=  3500011 ScaDFX=  1.000000  1.000000  1.000000  1.000000
 FoFCou: FMM=F IPFlag=           0 FMFlag=      100000 FMFlg1=           0
         NFxFlg=           0 DoJE=T BraDBF=F KetDBF=T FulRan=T
         wScrn=  0.000000 ICntrl=       500 IOpCl=  0 I1Cent=   200000004 NGrid=           0
         NMat0=    1 NMatS0=      1 NMatT0=    0 NMatD0=    1 NMtDS0=    0 NMtDT0=    0
 Symmetry not used in FoFCou.
 Harris En= -684.720788589238    
 Leave Link  401 at Mon Apr 21 20:45:26 2025, MaxMem=   536870912 cpu:               5.0 elap:               1.0
 (Enter /home/szhao/Apps/g16/l502.exe)
 Keep R1 and R2 ints in memory in canonical form, NReq=20057634.
 FoFCou: FMM=F IPFlag=           0 FMFlag=           0 FMFlg1=           0
         NFxFlg=           0 DoJE=F BraDBF=F KetDBF=F FulRan=T
         wScrn=  0.000000 ICntrl=       600 IOpCl=  0 I1Cent=           0 NGrid=           0
         NMat0=    1 NMatS0=   3570 NMatT0=    0 NMatD0=    1 NMtDS0=    0 NMtDT0=    0
 Symmetry not used in FoFCou.
 Two-electron integral symmetry not used.
 UHF open shell SCF:
 Using DIIS extrapolation, IDIIS=  1040.
 NGot=   536870912 LenX=   524106186 LenY=   524098349
 Requested convergence on RMS density matrix=1.00D-08 within 128 cycles.
 Requested convergence on MAX density matrix=1.00D-06.
 Requested convergence on             energy=1.00D-06.
 No special actions if energy rises.

 Cycle   1  Pass 1  IDiag  1:
 E= -685.014202263915    
 DIIS: error= 2.32D-03 at cycle   1 NSaved=   1.
 NSaved= 1 IEnMin= 1 EnMin= -685.014202263915     IErMin= 1 ErrMin= 2.32D-03
 ErrMax= 2.32D-03  0.00D+00 EMaxC= 1.00D-01 BMatC= 1.91D-03 BMatP= 1.91D-03
 IDIUse=3 WtCom= 9.77D-01 WtEn= 2.32D-02
 Coeff-Com:  0.100D+01
 Coeff-En:   0.100D+01
 Coeff:      0.100D+01
 Gap=     0.438 Goal=   None    Shift=    0.000
 Gap=     0.438 Goal=   None    Shift=    0.000
 GapD=    0.438 DampG=2.000 DampE=1.000 DampFc=2.0000 IDamp=-1.
 RMSDP=5.20D-04 MaxDP=6.73D-03              OVMax= 1.75D-02

 Cycle   2  Pass 1  IDiag  1:
 E= -685.015304283549     Delta-E=       -0.001102019634 Rises=F Damp=F
 DIIS: error= 4.44D-04 at cycle   2 NSaved=   2.
 NSaved= 2 IEnMin= 2 EnMin= -685.015304283549     IErMin= 2 ErrMin= 4.44D-04
 ErrMax= 4.44D-04  0.00D+00 EMaxC= 1.00D-01 BMatC= 1.05D-04 BMatP= 1.91D-03
 IDIUse=3 WtCom= 9.96D-01 WtEn= 4.44D-03
 Coeff-Com: -0.126D+00 0.113D+01
 Coeff-En:   0.000D+00 0.100D+01
 Coeff:     -0.126D+00 0.113D+01
 Gap=     0.225 Goal=   None    Shift=    0.000
 Gap=     0.225 Goal=   None    Shift=    0.000
 RMSDP=1.46D-04 MaxDP=1.76D-03 DE=-1.10D-03 OVMax= 5.91D-03

 Cycle   3  Pass 1  IDiag  1:
 E= -685.015390269389     Delta-E=       -0.000085985840 Rises=F Damp=F
 DIIS: error= 1.89D-04 at cycle   3 NSaved=   3.
 NSaved= 3 IEnMin= 3 EnMin= -685.015390269389     IErMin= 3 ErrMin= 1.89D-04
 ErrMax= 1.89D-04  0.00D+00 EMaxC= 1.00D-01 BMatC= 1.20D-05 BMatP= 1.05D-04
 IDIUse=3 WtCom= 9.98D-01 WtEn= 1.89D-03
 Coeff-Com: -0.507D-01 0.229D+00 0.822D+00
 Coeff-En:   0.000D+00 0.000D+00 0.100D+01
 Coeff:     -0.506D-01 0.228D+00 0.822D+00
 Gap=     0.225 Goal=   None    Shift=    0.000
 Gap=     0.225 Goal=   None    Shift=    0.000
 RMSDP=5.79D-05 MaxDP=9.11D-04 DE=-8.60D-05 OVMax= 2.41D-03

 Cycle   4  Pass 1  IDiag  1:
 E= -685.015398563810     Delta-E=       -0.000008294421 Rises=F Damp=F
 DIIS: error= 7.55D-05 at cycle   4 NSaved=   4.
 NSaved= 4 IEnMin= 4 EnMin= -685.015398563810     IErMin= 4 ErrMin= 7.55D-05
 ErrMax= 7.55D-05  0.00D+00 EMaxC= 1.00D-01 BMatC= 2.21D-06 BMatP= 1.20D-05
 IDIUse=1 WtCom= 1.00D+00 WtEn= 0.00D+00
 Coeff-Com:  0.981D-02-0.134D+00 0.145D+00 0.979D+00
 Coeff:      0.981D-02-0.134D+00 0.145D+00 0.979D+00
 Gap=     0.225 Goal=   None    Shift=    0.000
 Gap=     0.225 Goal=   None    Shift=    0.000
 RMSDP=2.07D-05 MaxDP=2.02D-04 DE=-8.29D-06 OVMax= 1.01D-03

 Cycle   5  Pass 1  IDiag  1:
 E= -685.015399892079     Delta-E=       -0.000001328269 Rises=F Damp=F
 DIIS: error= 9.23D-06 at cycle   5 NSaved=   5.
 NSaved= 5 IEnMin= 5 EnMin= -685.015399892079     IErMin= 5 ErrMin= 9.23D-06
 ErrMax= 9.23D-06  0.00D+00 EMaxC= 1.00D-01 BMatC= 4.48D-08 BMatP= 2.21D-06
 IDIUse=1 WtCom= 1.00D+00 WtEn= 0.00D+00
 Coeff-Com:  0.299D-02-0.231D-01-0.994D-02 0.334D-01 0.997D+00
 Coeff:      0.299D-02-0.231D-01-0.994D-02 0.334D-01 0.997D+00
 Gap=     0.225 Goal=   None    Shift=    0.000
 Gap=     0.225 Goal=   None    Shift=    0.000
 RMSDP=4.05D-06 MaxDP=3.55D-05 DE=-1.33D-06 OVMax= 2.23D-04

 Cycle   6  Pass 1  IDiag  1:
 E= -685.015399933214     Delta-E=       -0.000000041135 Rises=F Damp=F
 DIIS: error= 2.81D-06 at cycle   6 NSaved=   6.
 NSaved= 6 IEnMin= 6 EnMin= -685.015399933214     IErMin= 6 ErrMin= 2.81D-06
 ErrMax= 2.81D-06  0.00D+00 EMaxC= 1.00D-01 BMatC= 3.51D-09 BMatP= 4.48D-08
 IDIUse=1 WtCom= 1.00D+00 WtEn= 0.00D+00
 Coeff-Com: -0.816D-03 0.124D-01-0.126D-01-0.922D-01 0.119D+00 0.974D+00
 Coeff:     -0.816D-03 0.124D-01-0.126D-01-0.922D-01 0.119D+00 0.974D+00
 Gap=     0.225 Goal=   None    Shift=    0.000
 Gap=     0.225 Goal=   None    Shift=    0.000
 RMSDP=1.10D-06 MaxDP=1.46D-05 DE=-4.11D-08 OVMax= 5.36D-05

 Cycle   7  Pass 1  IDiag  1:
 E= -685.015399935667     Delta-E=       -0.000000002453 Rises=F Damp=F
 DIIS: error= 2.70D-07 at cycle   7 NSaved=   7.
 NSaved= 7 IEnMin= 7 EnMin= -685.015399935667     IErMin= 7 ErrMin= 2.70D-07
 ErrMax= 2.70D-07  0.00D+00 EMaxC= 1.00D-01 BMatC= 5.67D-11 BMatP= 3.51D-09
 IDIUse=1 WtCom= 1.00D+00 WtEn= 0.00D+00
 Coeff-Com: -0.127D-04-0.232D-03 0.306D-03 0.460D-02-0.332D-01-0.896D-01
 Coeff-Com:  0.112D+01
 Coeff:     -0.127D-04-0.232D-03 0.306D-03 0.460D-02-0.332D-01-0.896D-01
 Coeff:      0.112D+01
 Gap=     0.225 Goal=   None    Shift=    0.000
 Gap=     0.225 Goal=   None    Shift=    0.000
 RMSDP=2.26D-07 MaxDP=3.18D-06 DE=-2.45D-09 OVMax= 9.84D-06

 Cycle   8  Pass 1  IDiag  1:
 E= -685.015399935737     Delta-E=       -0.000000000069 Rises=F Damp=F
 DIIS: error= 8.57D-08 at cycle   8 NSaved=   8.
 NSaved= 8 IEnMin= 8 EnMin= -685.015399935737     IErMin= 8 ErrMin= 8.57D-08
 ErrMax= 8.57D-08  0.00D+00 EMaxC= 1.00D-01 BMatC= 3.55D-12 BMatP= 5.67D-11
 IDIUse=1 WtCom= 1.00D+00 WtEn= 0.00D+00
 Coeff-Com:  0.231D-04-0.416D-03 0.517D-03 0.347D-02-0.592D-02-0.473D-01
 Coeff-Com:  0.158D+00 0.891D+00
 Coeff:      0.231D-04-0.416D-03 0.517D-03 0.347D-02-0.592D-02-0.473D-01
 Coeff:      0.158D+00 0.891D+00
 Gap=     0.225 Goal=   None    Shift=    0.000
 Gap=     0.225 Goal=   None    Shift=    0.000
 RMSDP=3.38D-08 MaxDP=4.94D-07 DE=-6.92D-11 OVMax= 1.25D-06

 Cycle   9  Pass 1  IDiag  1:
 E= -685.015399935740     Delta-E=       -0.000000000003 Rises=F Damp=F
 DIIS: error= 2.44D-08 at cycle   9 NSaved=   9.
 NSaved= 9 IEnMin= 9 EnMin= -685.015399935740     IErMin= 9 ErrMin= 2.44D-08
 ErrMax= 2.44D-08  0.00D+00 EMaxC= 1.00D-01 BMatC= 5.19D-13 BMatP= 3.55D-12
 IDIUse=1 WtCom= 1.00D+00 WtEn= 0.00D+00
 Coeff-Com:  0.791D-05-0.118D-03 0.156D-03 0.825D-03-0.117D-03-0.101D-01
 Coeff-Com: -0.110D-01 0.260D+00 0.760D+00
 Coeff:      0.791D-05-0.118D-03 0.156D-03 0.825D-03-0.117D-03-0.101D-01
 Coeff:     -0.110D-01 0.260D+00 0.760D+00
 Gap=     0.225 Goal=   None    Shift=    0.000
 Gap=     0.225 Goal=   None    Shift=    0.000
 RMSDP=1.05D-08 MaxDP=2.17D-07 DE=-2.96D-12 OVMax= 5.41D-07

 Cycle  10  Pass 1  IDiag  1:
 E= -685.015399935739     Delta-E=        0.000000000001 Rises=F Damp=F
 DIIS: error= 1.68D-08 at cycle  10 NSaved=  10.
 NSaved=10 IEnMin= 9 EnMin= -685.015399935740     IErMin=10 ErrMin= 1.68D-08
 ErrMax= 1.68D-08  0.00D+00 EMaxC= 1.00D-01 BMatC= 2.11D-13 BMatP= 5.19D-13
 IDIUse=1 WtCom= 1.00D+00 WtEn= 0.00D+00
 Coeff-Com:  0.867D-06-0.813D-06 0.610D-05-0.816D-04 0.818D-03 0.192D-02
 Coeff-Com: -0.317D-01 0.352D-02 0.421D+00 0.604D+00
 Coeff:      0.867D-06-0.813D-06 0.610D-05-0.816D-04 0.818D-03 0.192D-02
 Coeff:     -0.317D-01 0.352D-02 0.421D+00 0.604D+00
 Gap=     0.225 Goal=   None    Shift=    0.000
 Gap=     0.225 Goal=   None    Shift=    0.000
 RMSDP=4.10D-09 MaxDP=8.95D-08 DE= 6.82D-13 OVMax= 2.20D-07

 SCF Done:  E(UM062X) =  -685.015399936     A.U. after   10 cycles
            NFock= 10  Conv=0.41D-08     -V/T= 2.0017
 <Sx>= 0.0000 <Sy>= 0.0000 <Sz>= 0.0000 <S**2>=-0.0000 S=-0.0000
 <L.S>=  0.00000000000    
 KE= 6.838578794610D+02 PE=-1.778699628980D+03 EE= 3.352222355010D+02
 Annihilation of the first spin contaminant:
 S**2 before annihilation    -0.0000,   after    -0.0000
 Leave Link  502 at Mon Apr 21 20:45:36 2025, MaxMem=   536870912 cpu:              74.0 elap:               9.7
 (Enter /home/szhao/Apps/g16/l701.exe)
 ... and contract with generalized density number  0.
 Compute integral first derivatives.
 Leave Link  701 at Mon Apr 21 20:45:36 2025, MaxMem=   536870912 cpu:               1.2 elap:               0.2
 (Enter /home/szhao/Apps/g16/l702.exe)
 L702 exits ... SP integral derivatives will be done elsewhere.
 Leave Link  702 at Mon Apr 21 20:45:37 2025, MaxMem=   536870912 cpu:               0.4 elap:               0.1
 (Enter /home/szhao/Apps/g16/l703.exe)
 Integral derivatives from FoFJK, PRISM(SPDF).
 Compute integral first derivatives, UseDBF=F ICtDFT=           0.
 Calling FoFJK, ICntrl=      2127 FMM=F ISym2X=0 I1Cent= 0 IOpClX= 1 NMat=1 NMatS=1 NMatT=0.
 FoFJK:  IHMeth= 1 ICntrl=    2127 DoSepK=F KAlg= 0 I1Cent=           0 FoldK=F
 IRaf=         0 NMat=       1 IRICut=       1 DoRegI=T DoRafI=F ISym2E= 0 IDoP0=0 IntGTp=1.
 FoFCou: FMM=F IPFlag=           0 FMFlag=      100000 FMFlg1=         800
         NFxFlg=           0 DoJE=F BraDBF=F KetDBF=F FulRan=T
         wScrn=  0.000000 ICntrl=      2127 IOpCl=  1 I1Cent=           0 NGrid=           0
         NMat0=    1 NMatS0=      1 NMatT0=    0 NMatD0=    1 NMtDS0=    0 NMtDT0=    0
 Symmetry not used in FoFCou.
 Leave Link  703 at Mon Apr 21 20:45:38 2025, MaxMem=   536870912 cpu:              11.6 elap:               1.5
 (Enter /home/szhao/Apps/g16/l716.exe)
 Dipole        =-1.65242031D-05-3.08984762D-02-4.79107811D-01
 -------------------------------------------------------------------
 Center     Atomic                   Forces (Hartrees/Bohr)
 Number     Number              X              Y              Z
 -------------------------------------------------------------------
      1       15          -0.000000000   -0.000000000   -0.000000000
      2       15          -0.000000000   -0.000000000   -0.000000000
      3        1           0.000392970    0.000201251    0.000155942
      4        1          -0.000394035   -0.000188030    0.000165523
      5        1          -0.000412968    0.000056679    0.000299016
      6        1           0.000409042    0.000000982    0.000311194
 -------------------------------------------------------------------
 Cartesian Forces:  Max     0.000412968 RMS     0.000231491
 Leave Link  716 at Mon Apr 21 20:45:39 2025, MaxMem=   536870912 cpu:               1.1 elap:               0.2
 (Enter /home/szhao/Apps/g16/l103.exe)

 GradGradGradGradGradGradGradGradGradGradGradGradGradGradGradGradGradGrad
 Berny optimization.
 Using GEDIIS/GDIIS optimizer.
 FormGI is forming the generalized inverse of G from B-inverse, IUseBI=4.
 Internal  Forces:  Max     0.001073942 RMS     0.000555760
 Search for a local minimum.
 Step number   3 out of a maximum of   30
 All quantities printed in internal units (Hartrees-Bohrs-Radians)
 RMS Force = .59120D-03 SwitMx=.10000D-02 MixMth= 2
 Mixed Optimization -- En-DIIS/RFO-DIIS
 Update second derivatives using D2CorX and points    1    2    3
 DE= -5.07D-04 DEPred=-4.94D-04 R= 1.03D+00
 TightC=F SS=  1.41D+00  RLast= 1.35D-01 DXNew= 7.1855D-01 4.0576D-01
 Trust test= 1.03D+00 RLast= 1.35D-01 DXMaxT set to 4.27D-01
 The second derivative matrix:
                          X1        Y1        Z1        X2        Y2
           X1           0.51471
           Y1           0.00820   0.50573
           Z1          -0.00571  -0.00414   0.50300
           X2          -0.01467  -0.00819   0.00570   0.51464
           Y2          -0.00892  -0.00624   0.00450   0.00891   0.50678
           Z2          -0.00459  -0.00338   0.00245   0.00459   0.00367
[...]
           D1          -0.00425  -0.00287  -0.01229  -0.00361  -0.00536
           D2          -0.00385  -0.00078  -0.00405  -0.00321   0.00128
           D3           0.00326   0.00111   0.00398   0.00337  -0.00017
           D4           0.00366   0.00319   0.01222   0.00377   0.00646
                          A6        D1        D2        D3        D4
           A6           0.12484
           D1          -0.01300   0.00701
           D2           0.00121   0.00012   0.00321
           D3          -0.00118  -0.00133  -0.00161   0.00256
           D4           0.01303  -0.00592  -0.00082  -0.00001   0.00739
 ITU=  0  0  1  0  0  0  1  1  1 -1  0  1  1  1  1  1  1  1  0
     Eigenvalues ---    0.00023   0.07029   0.08041   0.08498   0.11862
     Eigenvalues ---    0.16146   0.16758   0.21084   0.21234   0.21405
     Eigenvalues ---    0.218711000.000001000.000001000.000001000.00000
     Eigenvalues --- 1000.000001000.000001000.000001000.000001000.00000
 En-DIIS/RFO-DIIS/Sim-DIIS IScMMF=       -3 using points:    19   18   17   16   15   14   13   12   11   10
 RFO step:  Lambda=-1.85739024D-11.
 NNeg= 0 NGDIIS=10 SimSw=  2.50D-01 Rises=F DC= -7.34D-09 SmlDif=  1.00D-05
 NRisDI= 0 DoIntr=F SqrtH=F CThrHd= 10.0 CDAdj=  3.0
 RMS Error=  0.2326385111D-04 NUsed=10 OKEnD=F EnDIS=F
 InvSVX:  RCond= 5.34D-12 Info=           0 Equed=N FErr=  1.66D-09 BErr=  8.95D-17
 DIIS inversion failure, remove point  10.
 InvSVX:  RCond= 6.31D-12 Info=           0 Equed=N FErr=  2.11D-09 BErr=  9.67D-17
 DIIS inversion failure, remove point   9.
 InvSVX:  RCond= 7.17D-12 Info=           0 Equed=N FErr=  2.18D-09 BErr=  1.07D-16
 DIIS inversion failure, remove point   8.
 InvSVX:  RCond= 3.41D-11 Info=           0 Equed=N FErr=  2.94D-10 BErr=  9.13D-17
 DIIS inversion failure, remove point   7.
 InvSVX:  RCond= 2.38D-10 Info=           0 Equed=N FErr=  1.24D-10 BErr=  7.33D-17
 DIIS inversion failure, remove point   6.
 InvSVX:  RCond= 8.66D-09 Info=           0 Equed=N FErr=  9.21D-13 BErr=  6.60D-17
 DIIS inversion failure, remove point   5.
 InvSVX:  RCond= 4.32D-10 Info=           0 Equed=N FErr=  6.53D-13 BErr=  1.02D-16
 DIIS inversion failure, remove point   4.
 InvSVX:  RCond= 3.08D-09 Info=           0 Equed=N FErr=  3.93D-13 BErr=  5.22D-17
 DIIS inversion failure, remove point   3.
 InvSVX:  RCond= 1.73D-05 Info=           0 Equed=N FErr=  9.15D-16 BErr=  7.59D-17
 RFO-DIIS uses    2 points instead of   10
 DidBck=F Rises=F RFO-DIIS coefs:    0.97369    0.02631    0.00000    0.00000    0.00000
                  RFO-DIIS coefs:    0.00000    0.00000    0.00000    0.00000    0.00000
 Iteration  1 RMS(Cart)=  0.00003172 RMS(Int)=  0.00000000
 Iteration  2 RMS(Cart)=  0.00000000 RMS(Int)=  0.00000000
 ITry= 1 IFail=0 DXMaxC= 5.31D-05 DCOld= 1.00D+10 DXMaxT= 1.65D+00 DXLimC= 3.00D+00 Rises=F
 Variable       Old X    -DE/DX   Delta X   Delta X   Delta X     New X
                                 (Linear)    (Quad)   (Total)
    X1       -2.72539  -0.00000   0.00000   0.00000   0.00000  -2.72539
    Y1        0.00000   0.00000   0.00000   0.00000   0.00000   0.00000
    Z1        0.00000  -0.00000   0.00000   0.00000   0.00000   0.00000
    X2        2.72539  -0.00000   0.00000   0.00000   0.00000   2.72539
    Y2        0.00000  -0.00000   0.00000   0.00000   0.00000   0.00000
    Z2        0.00000  -0.00000   0.00000   0.00000   0.00000   0.00000
    R1        2.67915  -0.00000   0.00000  -0.00000  -0.00000   2.67914
    R2        2.67899  -0.00000  -0.00000   0.00000  -0.00000   2.67899
    R3        2.67899   0.00000  -0.00000   0.00000   0.00000   2.67899
    R4        2.67914   0.00000   0.00000   0.00000   0.00000   2.67914
    A1        1.57152   0.00000  -0.00000   0.00001   0.00000   1.57152
    A2        1.57162   0.00000  -0.00000   0.00001   0.00000   1.57163
    A3        1.60792  -0.00000  -0.00000   0.00000  -0.00000   1.60792
    A4        1.57164  -0.00000  -0.00000  -0.00000  -0.00000   1.57164
    A5        1.57154  -0.00000  -0.00000  -0.00001  -0.00001   1.57153
    A6        1.60792   0.00000  -0.00000   0.00000   0.00000   1.60792
    D1        1.53370  -0.00000  -0.00005  -0.00000  -0.00005   1.53364
    D2       -3.14157   0.00000  -0.00005   0.00000  -0.00005   3.14156
    D3       -3.14157  -0.00000  -0.00005  -0.00000  -0.00005   3.14156
    D4       -1.53365  -0.00000  -0.00005   0.00000  -0.00005  -1.53371
         Item               Value     Threshold  Converged?
 Maximum Force            0.000001     0.000450     YES
 RMS     Force            0.000001     0.000300     YES
 Maximum Displacement     0.000053     0.001800     YES
 RMS     Displacement     0.000032     0.001200     YES
 Predicted change in Energy=-1.351221D-11
 Optimization completed.
    -- Stationary point found.
                           ----------------------------
                           !   Optimized Parameters   !
                           ! (Angstroms and Degrees)  !
 --------------------------                            --------------------------
 ! Name  Definition              Value          Derivative Info.                !
 --------------------------------------------------------------------------------
 ! X1    R(1,-1)                -1.4422         -DE/DX =    0.0                 !
 ! Y1    R(1,-2)                 0.0            -DE/DX =    0.0                 !
 ! Z1    R(1,-3)                 0.0            -DE/DX =    0.0                 !
 ! X2    R(2,-1)                 1.4422         -DE/DX =    0.0                 !
 ! Y2    R(2,-2)                 0.0            -DE/DX =    0.0                 !
 ! Z2    R(2,-3)                 0.0            -DE/DX =    0.0                 !
 ! R1    R(1,4)                  1.4177         -DE/DX =    0.0                 !
 ! R2    R(1,6)                  1.4177         -DE/DX =    0.0                 !
 ! R3    R(2,3)                  1.4177         -DE/DX =    0.0                 !
 ! R4    R(2,5)                  1.4177         -DE/DX =    0.0                 !
 ! A1    A(2,1,4)               90.0412         -DE/DX =    0.0                 !
 ! A2    A(2,1,6)               90.0474         -DE/DX =    0.0                 !
 ! A3    A(4,1,6)               92.1269         -DE/DX =    0.0                 !
 ! A4    A(1,2,3)               90.0486         -DE/DX =    0.0                 !
 ! A5    A(1,2,5)               90.0428         -DE/DX =    0.0                 !
 ! A6    A(3,2,5)               92.1268         -DE/DX =    0.0                 !
 ! D1    D(4,1,2,3)             87.8743         -DE/DX =    0.0                 !
 ! D2    D(4,1,2,5)            180.0012         -DE/DX =    0.0                 !
 ! D3    D(6,1,2,3)            180.0012         -DE/DX =    0.0                 !
 ! D4    D(6,1,2,5)            -87.8719         -DE/DX =    0.0                 !
 --------------------------------------------------------------------------------
 Lowest energy point so far.  Saving SCF results.
 Largest change from initial coordinates is atom    6       1.296 Angstoms.
 GradGradGradGradGradGradGradGradGradGradGradGradGradGradGradGradGradGrad

 Leave Link  103 at Mon Apr 21 20:49:30 2025, MaxMem=   536870912 cpu:               0.6 elap:               0.1
 (Enter /home/szhao/Apps/g16/l202.exe)
                          Input orientation:                          
 ---------------------------------------------------------------------
 Center     Atomic      Atomic             Coordinates (Angstroms)
 Number     Number       Type             X           Y           Z
 ---------------------------------------------------------------------
      1         15           0       -1.442217    0.000000    0.000000
      2         15           0        1.442217    0.000000    0.000000
      3          1           0        1.443420   -0.944881    1.056865
      4          1           0       -1.443236    1.021149    0.983488
      5          1           0        1.443274   -1.021128   -0.983508
      6          1           0       -1.443389    0.944858   -1.056886
 ---------------------------------------------------------------------
                    Distance matrix (angstroms):
                    1          2          3          4          5
     1  P    0.000000
     2  P    2.884433   0.000000
     3  H    3.215067   1.417662   0.000000
     4  H    1.417743   3.214939   3.493342   0.000000
     5  H    3.214973   1.417742   2.041797   4.046222   0.000000
     6  H    1.417662   3.215040   4.046321   2.041799   3.493324
                    6
     6  H    0.000000
 Symmetry turned off by external request.
 Stoichiometry    H4P2
 Framework group  C1[X(H4P2)]
 Deg. of freedom    12
 Full point group                 C1      NOp   1
 Rotational constants (GHZ):          64.3204832           3.5804644           3.5666696
 Leave Link  202 at Mon Apr 21 20:49:30 2025, MaxMem=   536870912 cpu:               0.2 elap:               0.1
 (Enter /home/szhao/Apps/g16/l601.exe)
 Copying SCF densities to generalized density rwf, IOpCl= 1 IROHF=0.

 **********************************************************************

            Population analysis using the SCF density.

 **********************************************************************

 Alpha  occ. eigenvalues --  -78.04155 -78.04155  -6.86523  -6.86522  -4.98066
 Alpha  occ. eigenvalues --   -4.98065  -4.97989  -4.97989  -4.97795  -4.97794
 Alpha  occ. eigenvalues --   -0.72532  -0.68993  -0.45571  -0.43790  -0.36629
 Alpha  occ. eigenvalues --   -0.35835  -0.29219
 Alpha virt. eigenvalues --   -0.06985   0.01416   0.03299   0.03369   0.04193
 Alpha virt. eigenvalues --    0.04654   0.05225   0.06248   0.06427   0.06844
 Alpha virt. eigenvalues --    0.09257   0.16600   0.18812   0.28486   0.28860
 Alpha virt. eigenvalues --    0.30499   0.30831   0.31006   0.34890   0.37197
 Alpha virt. eigenvalues --    0.39544   0.41516   0.54024   0.62481   0.64135
 Alpha virt. eigenvalues --    0.64502   0.66768   0.66944   0.70086   0.71248
 Alpha virt. eigenvalues --    0.75817   0.88696   0.89044   0.96396   0.96581
 Alpha virt. eigenvalues --    1.38388   1.38961   1.44217   1.44774   1.45108
 Alpha virt. eigenvalues --    1.48671   1.49307   1.51134   1.56072   1.58758
 Alpha virt. eigenvalues --    1.65414   1.65752   1.70777   1.82392   2.03090
 Alpha virt. eigenvalues --    2.03617   2.11817   2.11952   2.56935   2.57708
 Alpha virt. eigenvalues --    2.67004   2.73249   7.04301   7.08692  13.95173
 Alpha virt. eigenvalues --   14.03450  14.03876  14.05547  14.05829  14.10049
 Alpha virt. eigenvalues --  163.31791 163.38663
  Beta  occ. eigenvalues --  -78.04155 -78.04155  -6.86523  -6.86522  -4.98066
  Beta  occ. eigenvalues --   -4.98065  -4.97989  -4.97989  -4.97795  -4.97794
  Beta  occ. eigenvalues --   -0.72532  -0.68993  -0.45571  -0.43790  -0.36629
  Beta  occ. eigenvalues --   -0.35835  -0.29219
  Beta virt. eigenvalues --   -0.06985   0.01416   0.03299   0.03369   0.04193
  Beta virt. eigenvalues --    0.04654   0.05225   0.06248   0.06427   0.06844
  Beta virt. eigenvalues --    0.09257   0.16600   0.18812   0.28486   0.28860
  Beta virt. eigenvalues --    0.30499   0.30831   0.31006   0.34890   0.37197
  Beta virt. eigenvalues --    0.39544   0.41516   0.54024   0.62481   0.64135
  Beta virt. eigenvalues --    0.64502   0.66768   0.66944   0.70086   0.71248
  Beta virt. eigenvalues --    0.75817   0.88696   0.89044   0.96396   0.96581
  Beta virt. eigenvalues --    1.38388   1.38961   1.44217   1.44774   1.45108
  Beta virt. eigenvalues --    1.48671   1.49307   1.51134   1.56072   1.58758
  Beta virt. eigenvalues --    1.65414   1.65752   1.70777   1.82392   2.03090
  Beta virt. eigenvalues --    2.03617   2.11817   2.11952   2.56935   2.57708
  Beta virt. eigenvalues --    2.67004   2.73249   7.04301   7.08692  13.95173
  Beta virt. eigenvalues --   14.03450  14.03876  14.05547  14.05829  14.10049
  Beta virt. eigenvalues --  163.31791 163.38663
          Condensed to atoms (all electrons):
               1          2          3          4          5          6
     1  P   14.315684   0.241174  -0.023321   0.267683  -0.023324   0.267683
     2  P    0.241174  14.315696   0.267682  -0.023325   0.267683  -0.023323
     3  H   -0.023321   0.267682   0.755617   0.001076  -0.025068   0.001222
     4  H    0.267683  -0.023325   0.001076   0.755623   0.001222  -0.025068
     5  H   -0.023324   0.267683  -0.025068   0.001222   0.755622   0.001076
     6  H    0.267683  -0.023323   0.001222  -0.025068   0.001076   0.755618
          Atomic-Atomic Spin Densities.
               1          2          3          4          5          6
     1  P    0.000000  -0.000000  -0.000000  -0.000000   0.000000  -0.000000
     2  P   -0.000000  -0.000000   0.000000  -0.000000   0.000000   0.000000
     3  H   -0.000000   0.000000  -0.000000   0.000000  -0.000000   0.000000
     4  H   -0.000000  -0.000000   0.000000  -0.000000  -0.000000   0.000000
     5  H    0.000000   0.000000  -0.000000  -0.000000  -0.000000  -0.000000
     6  H   -0.000000   0.000000   0.000000   0.000000  -0.000000   0.000000
 Mulliken charges and spin densities:
               1          2
     1  P   -0.045579   0.000000
     2  P   -0.045587  -0.000000
     3  H    0.022793   0.000000
     4  H    0.022790  -0.000000
     5  H    0.022790   0.000000
     6  H    0.022793  -0.000000
 Sum of Mulliken charges =   0.00000   0.00000
 Mulliken charges and spin densities with hydrogens summed into heavy atoms:
               1          2
     1  P    0.000004   0.000000
     2  P   -0.000004  -0.000000
 Electronic spatial extent (au):  <R**2>=            347.7695
 Charge=             -0.0000 electrons
 Dipole moment (field-independent basis, Debye):
    X=             -0.0000    Y=              0.0000    Z=             -0.0000  Tot=              0.0000
 Quadrupole moment (field-independent basis, Debye-Ang):
   XX=            -30.3607   YY=            -30.9296   ZZ=            -28.1137
   XY=             -3.5636   XZ=              0.1338   YZ=              0.1054
 Traceless Quadrupole moment (field-independent basis, Debye-Ang):
   XX=             -0.5594   YY=             -1.1283   ZZ=              1.6876
   XY=             -3.5636   XZ=              0.1338   YZ=              0.1054
 Octapole moment (field-independent basis, Debye-Ang**2):
  XXX=             -0.0001  YYY=              0.0000  ZZZ=              0.0001  XYY=             -0.0001
  XXY=             -0.0001  XXZ=             -0.0001  XZZ=             -0.0001  YZZ=              0.0000
  YYZ=              0.0000  XYZ=             -0.0000
 Hexadecapole moment (field-independent basis, Debye-Ang**3):
 XXXX=           -423.6584 YYYY=            -70.4635 ZZZZ=            -61.7228 XXXY=             -3.2602
 XXXZ=              0.1259 YYYX=              9.3547 YYYZ=              0.2838 ZZZX=             -0.3713
 ZZZY=              0.0411 XXYY=            -84.5136 XXZZ=            -77.3473 YYZZ=            -20.9556
 XXYZ=              0.2675 YYXZ=             -0.1008 ZZXY=              3.3224
 N-N= 7.463291148422D+01 E-N=-1.778776150673D+03  KE= 6.838607973103D+02
                          Isotropic Fermi Contact Couplings
        Atom                 a.u.       MegaHertz       Gauss      10(-4) cm-1
     1  P(31)              0.00000       0.00000       0.00000       0.00000
     2  P(31)              0.00000       0.00000       0.00000       0.00000
     3  H(1)               0.00000       0.00000       0.00000       0.00000
     4  H(1)               0.00000       0.00000       0.00000       0.00000
     5  H(1)               0.00000       0.00000       0.00000       0.00000
     6  H(1)               0.00000       0.00000       0.00000       0.00000
 --------------------------------------------------------
       Center         ----  Spin Dipole Couplings  ----
                      3XX-RR        3YY-RR        3ZZ-RR
 --------------------------------------------------------
     1   Atom        0.000000      0.000000      0.000000
     2   Atom        0.000000      0.000000      0.000000
     3   Atom        0.000000      0.000000      0.000000
     4   Atom        0.000000      0.000000      0.000000
     5   Atom        0.000000      0.000000      0.000000
     6   Atom        0.000000      0.000000      0.000000
 --------------------------------------------------------
                        XY            XZ            YZ
 --------------------------------------------------------
     1   Atom        0.000000      0.000000      0.000000
     2   Atom        0.000000      0.000000      0.000000
     3   Atom        0.000000      0.000000      0.000000
     4   Atom        0.000000      0.000000      0.000000
     5   Atom        0.000000      0.000000      0.000000
     6   Atom        0.000000      0.000000      0.000000
 --------------------------------------------------------


 ---------------------------------------------------------------------------------
              Anisotropic Spin Dipole Couplings in Principal Axis System
 ---------------------------------------------------------------------------------

       Atom             a.u.   MegaHertz   Gauss  10(-4) cm-1        Axes

              Baa     0.0000     0.000     0.000     0.000  1.0000  0.0000  0.0000
     1 P(31)  Bbb     0.0000     0.000     0.000     0.000 -0.0000  1.0000  0.0000
              Bcc     0.0000     0.000     0.000     0.000  0.0000  0.0000  1.0000
 
              Baa     0.0000     0.000     0.000     0.000  1.0000  0.0000  0.0000
     2 P(31)  Bbb     0.0000     0.000     0.000     0.000 -0.0000  1.0000  0.0000
              Bcc     0.0000     0.000     0.000     0.000  0.0000  0.0000  1.0000
 
              Baa     0.0000     0.000     0.000     0.000  1.0000  0.0000  0.0000
     3 H(1)   Bbb     0.0000     0.000     0.000     0.000 -0.0000  1.0000  0.0000
              Bcc     0.0000     0.000     0.000     0.000  0.0000  0.0000  1.0000
 
              Baa     0.0000     0.000     0.000     0.000  1.0000  0.0000  0.0000
     4 H(1)   Bbb     0.0000     0.000     0.000     0.000 -0.0000  1.0000  0.0000
              Bcc     0.0000     0.000     0.000     0.000  0.0000  0.0000  1.0000
 
              Baa     0.0000     0.000     0.000     0.000  1.0000  0.0000  0.0000
     5 H(1)   Bbb     0.0000     0.000     0.000     0.000 -0.0000  1.0000  0.0000
              Bcc     0.0000     0.000     0.000     0.000  0.0000  0.0000  1.0000
 
              Baa     0.0000     0.000     0.000     0.000  1.0000  0.0000  0.0000
     6 H(1)   Bbb     0.0000     0.000     0.000     0.000 -0.0000  1.0000  0.0000
              Bcc     0.0000     0.000     0.000     0.000  0.0000  0.0000  1.0000
 

 ---------------------------------------------------------------------------------

 No NMR shielding tensors so no spin-rotation constants.
 Leave Link  601 at Mon Apr 21 20:49:30 2025, MaxMem=   536870912 cpu:               1.6 elap:               0.3
 (Enter /home/szhao/Apps/g16/l9999.exe)
 1\1\GINC-NODE06\FOpt\UM062X\6-311+G(d,p)\H4P2\SZHAO\21-Apr-2025\0\\#p 
 opt UM062X/6-311+G** nosymm int=superfine\\Title Card Required\\0,1\P,
 -1.44221652,0.,0.\P,1.44221652,0.,0.\H,1.4434195404,-0.944880677,1.056
 8647993\H,-1.4432364489,1.0211490895,0.9834877883\H,1.4432744887,-1.02
 11280386,-0.9835082879\H,-1.4433889181,0.9448580574,-1.056885625\\Vers
 ion=ES64L-G16RevA.03\HF=-685.0157059\S2=0.\S2-1=0.\S2A=0.\RMSD=1.902e-
 09\RMSF=8.551e-06\Dipole=-0.0000005,0.0000007,-0.0000066\Quadrupole=-0
 .4158718,-0.8388353,1.2547071,-2.6494647,0.0995045,0.0783277\PG=C01 [X
 (H4P2)]\\@


 You never know when you're making a memory.
                        -- Rickie Lee Jones
 Job cpu time:       0 days  0 hours 29 minutes 11.2 seconds.
 Elapsed time:       0 days  0 hours  4 minutes  2.9 seconds.
 File lengths (MBytes):  RWF=     22 Int=      0 D2E=      0 Chk=      3 Scr=      2
 Normal termination of Gaussian 16 at Mon Apr 21 20:49:31 2025.
