 Entering Gaussian System, Link 0=g16
 Initial command:
 /home/szhao/Apps/g16/l1.exe "/home/szhao/tmp/Gau-17787.inp" -scrdir="/home/szhao/tmp/"
 Default is to use a total of  16 processors:
                               16 via shared-memory
                                1 via Linda
 Entering Link 1 = /home/szhao/Apps/g16/l1.exe PID=     17789.
  
 Copyright (c) 1988,1990,1992,1993,1995,1998,2003,2009,2016,
            Gaussian, Inc.  All Rights Reserved.
  
 This is part of the Gaussian(R) 16 program.  It is based on
 the Gaussian(R) 09 system (copyright 2009, Gaussian, Inc.),
 the Gaussian(R) 03 system (copyright 2003, Gaussian, Inc.),
 the Gaussian(R) 98 system (copyright 1998, Gaussian, Inc.),
 the Gaussian(R) 94 system (copyright 1995, Gaussian, Inc.),
 the Gaussian 92(TM) system (copyright 1992, Gaussian, Inc.),
 the Gaussian 90(TM) system (copyright 1990, Gaussian, Inc.),
 the Gaussian 88(TM) system (copyright 1988, Gaussian, Inc.),
 the Gaussian 86(TM) system (copyright 1986, Carnegie Mellon
 University), and the Gaussian 82(TM) system (copyright 1983,
 Carnegie Mellon University). Gaussian is a federally registered
 trademark of Gaussian, Inc.
  
 This software contains proprietary and confidential information,
 including trade secrets, belonging to Gaussian, Inc.
  
 This software is provided under written license and may be
 used, copied, transmitted, or stored only in accord with that
 written license.
  
 The following legend is applicable only to US Government
 contracts under FAR:
  
                    RESTRICTED RIGHTS LEGEND
  
 Use, reproduction and disclosure by the US Government is
 subject to restrictions as set forth in subparagraphs (a)
 and (c) of the Commercial Computer Software - Restricted
 Rights clause in FAR 52.227-19.
  
 Gaussian, Inc.
 340 Quinnipiac St., Bldg. 40, Wallingford CT 06492
  
  
 ---------------------------------------------------------------
 Warning -- This program may not be used in any manner that
 competes with the business of Gaussian, Inc. or will provide
 assistance to any competitor of Gaussian, Inc.  The licensee
 of this program is prohibited from giving any competitor of
 Gaussian, Inc. access to this program.  By using this program,
 the user acknowledges that Gaussian, Inc. is engaged in the
 business of creating and licensing software in the field of
 computational chemistry and represents and warrants to the
 licensee that it is not a competitor of Gaussian, Inc. and that
 it will not use this program in any manner prohibited above.
 ---------------------------------------------------------------
  

 Cite this work as:
 Gaussian 16, Revision A.03,
 M. J. Frisch, G. W. Trucks, H. B. Schlegel, G. E. Scuseria, 
 M. A. Robb, J. R. Cheeseman, G. Scalmani, V. Barone, 
 G. A. Petersson, H. Nakatsuji, X. Li, M. Caricato, A. V. Marenich, 
 J. Bloino, B. G. Janesko, R. Gomperts, B. Mennucci, H. P. Hratchian, 
 J. V. Ortiz, A. F. Izmaylov, J. L. Sonnenberg, D. Williams-Young, 
 F. Ding, F. Lipparini, F. Egidi, J. Goings, B. Peng, A. Petrone, 
 T. Henderson, D. Ranasinghe, V. G. Zakrzewski, J. Gao, N. Rega, 
 G. Zheng, W. Liang, M. Hada, M. Ehara, K. Toyota, R. Fukuda, 
 J. Hasegawa, M. Ishida, T. Nakajima, Y. Honda, O. Kitao, H. Nakai, 
 T. Vreven, K. Throssell, J. A. Montgomery, Jr., J. E. Peralta, 
 F. Ogliaro, M. J. Bearpark, J. J. Heyd, E. N. Brothers, K. N. Kudin, 
 V. N. Staroverov, T. A. Keith, R. Kobayashi, J. Normand, 
 K. Raghavachari, A. P. Rendell, J. C. Burant, S. S. Iyengar, 
 J. Tomasi, M. Cossi, J. M. Millam, M. Klene, C. Adamo, R. Cammi, 
 J. W. Ochterski, R. L. Martin, K. Morokuma, O. Farkas, 
 J. B. Foresman, and D. J. Fox, Gaussian, Inc., Wallingford CT, 2016.
 
 ******************************************
 Gaussian 16:  ES64L-G16RevA.03 25-Dec-2016
                19-Nov-2024 
 ******************************************
 %chk=opt.chk
 %mem=4GB
 %nprocshared=8
 Will use up to    8 processors via shared memory.
 --------------------------------------------
 #p opt UM062X/6-311+G** nosymm int=superfine
 --------------------------------------------
 1/18=20,19=15,26=5,38=1/1,3;
 2/9=110,12=2,15=1,17=6,18=5,40=1/2;
 3/5=4,6=6,7=111,11=2,25=1,30=1,71=1,74=-55,75=-7,116=2/1,2,3;
 4//1;
 5/5=2,38=5/2;
 6/7=2,8=2,9=2,10=2,28=1/1;
 7/30=1/1,2,3,16;
 1/18=20,19=15,26=5/3(2);
 2/9=110,15=1/2;
 99//99;
 2/9=110,15=1/2;
 3/5=4,6=6,7=111,11=2,25=1,30=1,71=1,74=-55,75=-7,116=2/1,2,3;
 4/5=5,16=3,69=1/1;
 5/5=2,38=5/2;
 7/30=1/1,2,3,16;
 1/18=20,19=15,26=5/3(-5);
 2/9=110,15=1/2;
 6/7=2,8=2,9=2,10=2,19=2,28=1/1;
 99/9=1/99;
 Leave Link    1 at Tue Nov 19 10:06:40 2024, MaxMem=   536870912 cpu:               0.6 elap:               0.1
 (Enter /home/szhao/Apps/g16/l101.exe)
 -------------------
 Title Card Required
 -------------------
 Symbolic Z-matrix:
 Charge =  0 Multiplicity = 1
 C                    -1   -0.32481   0.        0. 
 C                    -1    0.32481   0.        0. 
 H                    0    -0.6039   -0.92138   0. 
 H                    0    -0.60232   0.9257    0. 
 H                    0     0.6039    0.92138   0. 
 H                    0     0.60232  -0.9257    0. 
 
 ITRead=  2  2  0  0  0  0
 MicOpt= -2 -2 -1 -1 -1 -1
 NAtoms=      6 NQM=        4 NQMF=       2 NMMI=      0 NMMIF=      0
                NMic=       0 NMicF=      0.
                    Isotopes and Nuclear Properties:
 (Nuclear quadrupole moments (NQMom) in fm**2, nuclear magnetic moments (NMagM)
  in nuclear magnetons)

  Atom         1           2           3           4           5           6
 IAtWgt=          12          12           1           1           1           1
 AtmWgt=  12.0000000  12.0000000   1.0078250   1.0078250   1.0078250   1.0078250
 NucSpn=           0           0           1           1           1           1
 AtZEff=  -0.0000000  -0.0000000  -0.0000000  -0.0000000  -0.0000000  -0.0000000
 NQMom=    0.0000000   0.0000000   0.0000000   0.0000000   0.0000000   0.0000000
 NMagM=    0.0000000   0.0000000   2.7928460   2.7928460   2.7928460   2.7928460
 AtZNuc=   6.0000000   6.0000000   1.0000000   1.0000000   1.0000000   1.0000000
 Leave Link  101 at Tue Nov 19 10:06:40 2024, MaxMem=   536870912 cpu:               2.7 elap:               0.3
 (Enter /home/szhao/Apps/g16/l103.exe)

 GradGradGradGradGradGradGradGradGradGradGradGradGradGradGradGradGradGrad
 Berny optimization.
 Initialization pass.
                           ----------------------------
                           !    Initial Parameters    !
                           ! (Angstroms and Degrees)  !
 --------------------------                            --------------------------
 ! Name  Definition              Value          Derivative Info.                !
 --------------------------------------------------------------------------------
 ! X1    R(1,-1)                -0.3248         Frozen                          !
 ! Y1    R(1,-2)                 0.0            Frozen                          !
 ! Z1    R(1,-3)                 0.0            Frozen                          !
 ! X2    R(2,-1)                 0.3248         Frozen                          !
 ! Y2    R(2,-2)                 0.0            Frozen                          !
 ! Z2    R(2,-3)                 0.0            Frozen                          !
 ! R1    R(1,3)                  0.9627         estimate D2E/DX2                !
 ! R2    R(1,4)                  0.9664         estimate D2E/DX2                !
 ! R3    R(2,5)                  0.9627         estimate D2E/DX2                !
 ! R4    R(2,6)                  0.9664         estimate D2E/DX2                !
 ! A1    A(2,1,3)              106.8518         estimate D2E/DX2                !
 ! A2    A(2,1,4)              106.6877         estimate D2E/DX2                !
 ! A3    A(3,1,4)              146.4605         estimate D2E/DX2                !
 ! A4    A(1,2,5)              106.8518         estimate D2E/DX2                !
 ! A5    A(1,2,6)              106.6877         estimate D2E/DX2                !
 ! A6    A(5,2,6)              146.4605         estimate D2E/DX2                !
 ! D1    D(3,1,2,5)            180.0            estimate D2E/DX2                !
 ! D2    D(3,1,2,6)              0.0            estimate D2E/DX2                !
 ! D3    D(4,1,2,5)              0.0            estimate D2E/DX2                !
 ! D4    D(4,1,2,6)            180.0            estimate D2E/DX2                !
 --------------------------------------------------------------------------------
 Trust Radius=3.00D-01 FncErr=1.00D-07 GrdErr=1.00D-07 EigMax=2.50D+02 EigMin=1.00D-04
 Number of steps in this run=     30 maximum allowed number of steps=    100.
 GradGradGradGradGradGradGradGradGradGradGradGradGradGradGradGradGradGrad

 Leave Link  103 at Tue Nov 19 10:06:40 2024, MaxMem=   536870912 cpu:               0.1 elap:               0.0
 (Enter /home/szhao/Apps/g16/l202.exe)
                          Input orientation:                          
 ---------------------------------------------------------------------
 Center     Atomic      Atomic             Coordinates (Angstroms)
 Number     Number       Type             X           Y           Z
 ---------------------------------------------------------------------
      1          6           0       -0.324807    0.000000    0.000000
      2          6           0        0.324807    0.000000    0.000000
      3          1           0       -0.603898   -0.921382    0.000000
      4          1           0       -0.602315    0.925704    0.000000
      5          1           0        0.603898    0.921382    0.000000
      6          1           0        0.602315   -0.925704    0.000000
 ---------------------------------------------------------------------
                    Distance matrix (angstroms):
                    1          2          3          4          5
     1  C    0.000000
     2  C    0.649615   0.000000
     3  H    0.962723   1.308220   0.000000
     4  H    0.966405   1.310147   1.847087   0.000000
     5  H    1.308220   0.962723   2.203304   1.206221   0.000000
     6  H    1.310147   0.966405   1.206221   2.208811   1.847087
                    6
     6  H    0.000000
 Symmetry turned off by external request.
 Stoichiometry    C2H4
 Framework group  C2H[SGH(C2H4)]
 Deg. of freedom     5
 Full point group                 C2H     NOp   4
 Rotational constants (GHZ):         146.9794598         126.3971342          67.9567414
 Leave Link  202 at Tue Nov 19 10:06:40 2024, MaxMem=   536870912 cpu:               0.0 elap:               0.0
 (Enter /home/szhao/Apps/g16/l301.exe)
 Standard basis: 6-311+G(d,p) (5D, 7F)
 Ernie: Thresh=  0.10000D-02 Tol=  0.10000D-05 Strict=F.
    68 basis functions,   104 primitive gaussians,    70 cartesian basis functions
     8 alpha electrons        8 beta electrons
       nuclear repulsion energy        54.1235970186 Hartrees.
 IExCor= 4336 DFT=T Ex+Corr=M062X ExCW=0 ScaHFX=  0.540000
 ScaDFX=  1.000000  1.000000  1.000000  1.000000 ScalE2=  1.000000  1.000000
 IRadAn=      7 IRanWt=     -1 IRanGd=            0 ICorTp=0 IEmpDi=  4
 NAtoms=    6 NActive=    6 NUniq=    6 SFac= 1.00D+00 NAtFMM=   60 NAOKFM=F Big=F
 Integral buffers will be    131072 words long.
 Raffenetti 2 integral format.
 Two-electron integral symmetry is turned off.
 Leave Link  301 at Tue Nov 19 10:06:40 2024, MaxMem=   536870912 cpu:               0.3 elap:               0.0
 (Enter /home/szhao/Apps/g16/l302.exe)
 NPDir=0 NMtPBC=     1 NCelOv=     1 NCel=       1 NClECP=     1 NCelD=      1
         NCelK=      1 NCelE2=     1 NClLst=     1 CellRange=     0.0.
 One-electron integrals computed using PRISM.
 NBasis=    68 RedAO= T EigKep=  1.91D-06  NBF=    68
 NBsUse=    68 1.00D-06 EigRej= -1.00D+00 NBFU=    68
 Precomputing XC quadrature grid using
 IXCGrd= 4 IRadAn=           7 IRanWt=          -1 IRanGd=           0 AccXCQ= 0.00D+00.
 Generated NRdTot=       0 NPtTot=           0 NUsed=           0 NTot=          32
 NSgBfM=    70    70    70    70    70 MxSgAt=     6 MxSgA2=     6.
 Leave Link  302 at Tue Nov 19 10:06:40 2024, MaxMem=   536870912 cpu:               1.1 elap:               0.1
 (Enter /home/szhao/Apps/g16/l303.exe)
 DipDrv:  MaxL=1.
 Leave Link  303 at Tue Nov 19 10:06:40 2024, MaxMem=   536870912 cpu:               0.3 elap:               0.0
 (Enter /home/szhao/Apps/g16/l401.exe)
 ExpMin= 4.38D-02 ExpMax= 4.56D+03 ExpMxC= 6.82D+02 IAcc=3 IRadAn=         7 AccDes= 0.00D+00
 Harris functional with IExCor= 1009 and IRadAn=       7 diagonalized for initial guess.
 HarFok:  IExCor= 1009 AccDes= 0.00D+00 IRadAn=         7 IDoV= 1 UseB2=F ITyADJ=14
 ICtDFT=  3500011 ScaDFX=  1.000000  1.000000  1.000000  1.000000
 FoFCou: FMM=F IPFlag=           0 FMFlag=      100000 FMFlg1=           0
         NFxFlg=           0 DoJE=T BraDBF=F KetDBF=T FulRan=T
         wScrn=  0.000000 ICntrl=       500 IOpCl=  0 I1Cent=   200000004 NGrid=           0
         NMat0=    1 NMatS0=      1 NMatT0=    0 NMatD0=    1 NMtDS0=    0 NMtDT0=    0
 Symmetry not used in FoFCou.
 Harris En= -76.6255426316516    
 JPrj=0 DoOrth=F DoCkMO=F.
 Initial guess <Sx>= 0.0000 <Sy>= 0.0000 <Sz>= 0.0000 <S**2>= 0.0000 S= 0.0000
 Leave Link  401 at Tue Nov 19 10:06:41 2024, MaxMem=   536870912 cpu:               2.7 elap:               0.3
 (Enter /home/szhao/Apps/g16/l502.exe)
 Keep R1 and R2 ints in memory in canonical form, NReq=12681614.
 FoFCou: FMM=F IPFlag=           0 FMFlag=           0 FMFlg1=           0
         NFxFlg=           0 DoJE=F BraDBF=F KetDBF=F FulRan=T
         wScrn=  0.000000 ICntrl=       600 IOpCl=  0 I1Cent=           0 NGrid=           0
         NMat0=    1 NMatS0=   2346 NMatT0=    0 NMatD0=    1 NMtDS0=    0 NMtDT0=    0
 Symmetry not used in FoFCou.
 Two-electron integral symmetry not used.
 UHF open shell SCF:
 Using DIIS extrapolation, IDIIS=  1040.
 NGot=   536870912 LenX=   531353794 LenY=   531348453
 Requested convergence on RMS density matrix=1.00D-08 within 128 cycles.
 Requested convergence on MAX density matrix=1.00D-06.
 Requested convergence on             energy=1.00D-06.
 No special actions if energy rises.

 Cycle   1  Pass 1  IDiag  1:
 E= -74.8489207186126    
 DIIS: error= 1.85D-01 at cycle   1 NSaved=   1.
 NSaved= 1 IEnMin= 1 EnMin= -74.8489207186126     IErMin= 1 ErrMin= 1.85D-01
 ErrMax= 1.85D-01  0.00D+00 EMaxC= 1.00D-01 BMatC= 5.60D+00 BMatP= 5.60D+00
 IDIUse=3 WtCom= 0.00D+00 WtEn= 1.00D+00
 Coeff-Com:  0.100D+01
 Coeff-En:   0.100D+01
 Coeff:      0.100D+01
 Gap=     0.199 Goal=   None    Shift=    0.000
 Gap=     0.199 Goal=   None    Shift=    0.000
 GapD=    0.199 DampG=1.000 DampE=0.250 DampFc=0.2500 IDamp=-1.
 Damping current iteration by 2.50D-01
 RMSDP=1.12D-01 MaxDP=3.40D+00              OVMax= 9.52D-01

 Cycle   2  Pass 1  IDiag  1:
 E= -75.1336633761769     Delta-E=       -0.284742657564 Rises=F Damp=T
 DIIS: error= 7.56D-02 at cycle   2 NSaved=   2.
 NSaved= 2 IEnMin= 2 EnMin= -75.1336633761769     IErMin= 2 ErrMin= 7.56D-02
 ErrMax= 7.56D-02  0.00D+00 EMaxC= 1.00D-01 BMatC= 1.09D+00 BMatP= 5.60D+00
 IDIUse=3 WtCom= 2.44D-01 WtEn= 7.56D-01
 Coeff-Com: -0.737D+00 0.174D+01
 Coeff-En:   0.000D+00 0.100D+01
 Coeff:     -0.180D+00 0.118D+01
 Gap=     0.084 Goal=   None    Shift=    0.000
 Gap=     0.084 Goal=   None    Shift=    0.000
 RMSDP=7.10D-02 MaxDP=2.17D+00 DE=-2.85D-01 OVMax= 8.61D-01

 Cycle   3  Pass 1  IDiag  1:
 E= -75.8230332791595     Delta-E=       -0.689369902983 Rises=F Damp=F
 DIIS: error= 1.73D-02 at cycle   3 NSaved=   3.
 NSaved= 3 IEnMin= 3 EnMin= -75.8230332791595     IErMin= 3 ErrMin= 1.73D-02
 ErrMax= 1.73D-02  0.00D+00 EMaxC= 1.00D-01 BMatC= 7.08D-02 BMatP= 1.09D+00
 IDIUse=3 WtCom= 8.27D-01 WtEn= 1.73D-01
 Coeff-Com:  0.382D-01 0.110D+00 0.852D+00
 Coeff-En:   0.000D+00 0.000D+00 0.100D+01
 Coeff:      0.316D-01 0.906D-01 0.878D+00
 Gap=     0.301 Goal=   None    Shift=    0.000
 Gap=     0.301 Goal=   None    Shift=    0.000
 RMSDP=3.34D-02 MaxDP=7.44D-01 DE=-6.89D-01 OVMax= 5.62D-02

 Cycle   4  Pass 1  IDiag  1:
 E= -75.8343006257191     Delta-E=       -0.011267346560 Rises=F Damp=F
 DIIS: error= 6.50D-03 at cycle   4 NSaved=   4.
 NSaved= 4 IEnMin= 4 EnMin= -75.8343006257191     IErMin= 4 ErrMin= 6.50D-03
 ErrMax= 6.50D-03  0.00D+00 EMaxC= 1.00D-01 BMatC= 6.96D-03 BMatP= 7.08D-02
 IDIUse=3 WtCom= 9.35D-01 WtEn= 6.50D-02
 Coeff-Com: -0.664D-01 0.820D-01 0.205D-01 0.964D+00
 Coeff-En:   0.000D+00 0.000D+00 0.000D+00 0.100D+01
 Coeff:     -0.621D-01 0.766D-01 0.192D-01 0.966D+00
 Gap=     0.281 Goal=   None    Shift=    0.000
 Gap=     0.281 Goal=   None    Shift=    0.000
 RMSDP=2.17D-03 MaxDP=4.81D-02 DE=-1.13D-02 OVMax= 6.53D-03

 Cycle   5  Pass 1  IDiag  1:
 E= -75.8353992361507     Delta-E=       -0.001098610432 Rises=F Damp=F
 DIIS: error= 2.20D-03 at cycle   5 NSaved=   5.
 NSaved= 5 IEnMin= 5 EnMin= -75.8353992361507     IErMin= 5 ErrMin= 2.20D-03
 ErrMax= 2.20D-03  0.00D+00 EMaxC= 1.00D-01 BMatC= 7.65D-04 BMatP= 6.96D-03
 IDIUse=3 WtCom= 9.78D-01 WtEn= 2.20D-02
 Coeff-Com: -0.192D-01 0.326D-01-0.163D-01-0.320D+00 0.132D+01
 Coeff-En:   0.000D+00 0.000D+00 0.000D+00 0.000D+00 0.100D+01
 Coeff:     -0.187D-01 0.318D-01-0.160D-01-0.313D+00 0.132D+01
 Gap=     0.278 Goal=   None    Shift=    0.000
 Gap=     0.278 Goal=   None    Shift=    0.000
 RMSDP=2.97D-04 MaxDP=3.84D-03 DE=-1.10D-03 OVMax= 3.10D-03

 Cycle   6  Pass 1  IDiag  1:
 E= -75.8355354083150     Delta-E=       -0.000136172164 Rises=F Damp=F
 DIIS: error= 7.52D-04 at cycle   6 NSaved=   6.
 NSaved= 6 IEnMin= 6 EnMin= -75.8355354083150     IErMin= 6 ErrMin= 7.52D-04
 ErrMax= 7.52D-04  0.00D+00 EMaxC= 1.00D-01 BMatC= 9.45D-05 BMatP= 7.65D-04
 IDIUse=3 WtCom= 9.92D-01 WtEn= 7.52D-03
 Coeff-Com:  0.299D-03-0.323D-03 0.548D-02 0.184D-01-0.559D+00 0.154D+01
 Coeff-En:   0.000D+00 0.000D+00 0.000D+00 0.000D+00 0.000D+00 0.100D+01
 Coeff:      0.297D-03-0.321D-03 0.544D-02 0.182D-01-0.555D+00 0.153D+01
 Gap=     0.277 Goal=   None    Shift=    0.000
 Gap=     0.277 Goal=   None    Shift=    0.000
 RMSDP=4.80D-04 MaxDP=1.32D-02 DE=-1.36D-04 OVMax= 1.54D-03

 Cycle   7  Pass 1  IDiag  1:
 E= -75.8355552757812     Delta-E=       -0.000019867466 Rises=F Damp=F
 DIIS: error= 8.36D-05 at cycle   7 NSaved=   7.
 NSaved= 7 IEnMin= 7 EnMin= -75.8355552757812     IErMin= 7 ErrMin= 8.36D-05
 ErrMax= 8.36D-05  0.00D+00 EMaxC= 1.00D-01 BMatC= 9.77D-07 BMatP= 9.45D-05
 IDIUse=1 WtCom= 1.00D+00 WtEn= 0.00D+00
 Coeff-Com:  0.502D-03-0.738D-03 0.185D-03 0.597D-02-0.381D-01 0.107D+00
 Coeff-Com:  0.925D+00
 Coeff:      0.502D-03-0.738D-03 0.185D-03 0.597D-02-0.381D-01 0.107D+00
 Coeff:      0.925D+00
 Gap=     0.277 Goal=   None    Shift=    0.000
 Gap=     0.277 Goal=   None    Shift=    0.000
 RMSDP=7.71D-05 MaxDP=2.19D-03 DE=-1.99D-05 OVMax= 1.12D-04

 Cycle   8  Pass 1  IDiag  1:
 E= -75.8355554615103     Delta-E=       -0.000000185729 Rises=F Damp=F
 DIIS: error= 2.96D-05 at cycle   8 NSaved=   8.
 NSaved= 8 IEnMin= 8 EnMin= -75.8355554615103     IErMin= 8 ErrMin= 2.96D-05
 ErrMax= 2.96D-05  0.00D+00 EMaxC= 1.00D-01 BMatC= 1.19D-07 BMatP= 9.77D-07
 IDIUse=1 WtCom= 1.00D+00 WtEn= 0.00D+00
 Coeff-Com: -0.128D-04 0.968D-05-0.134D-03-0.112D-02 0.224D-01-0.293D-01
 Coeff-Com: -0.151D+00 0.116D+01
 Coeff:     -0.128D-04 0.968D-05-0.134D-03-0.112D-02 0.224D-01-0.293D-01
 Coeff:     -0.151D+00 0.116D+01
 Gap=     0.277 Goal=   None    Shift=    0.000
 Gap=     0.277 Goal=   None    Shift=    0.000
 RMSDP=1.06D-05 MaxDP=2.13D-04 DE=-1.86D-07 OVMax= 6.41D-05

 Cycle   9  Pass 1  IDiag  1:
 E= -75.8355554865273     Delta-E=       -0.000000025017 Rises=F Damp=F
 DIIS: error= 9.54D-07 at cycle   9 NSaved=   9.
 NSaved= 9 IEnMin= 9 EnMin= -75.8355554865273     IErMin= 9 ErrMin= 9.54D-07
 ErrMax= 9.54D-07  0.00D+00 EMaxC= 1.00D-01 BMatC= 9.52D-11 BMatP= 1.19D-07
 IDIUse=1 WtCom= 1.00D+00 WtEn= 0.00D+00
 Coeff-Com:  0.116D-05-0.498D-05 0.194D-04 0.125D-03-0.334D-02 0.408D-02
 Coeff-Com: -0.500D-02-0.107D+00 0.111D+01
 Coeff:      0.116D-05-0.498D-05 0.194D-04 0.125D-03-0.334D-02 0.408D-02
 Coeff:     -0.500D-02-0.107D+00 0.111D+01
 Gap=     0.277 Goal=   None    Shift=    0.000
 Gap=     0.277 Goal=   None    Shift=    0.000
 RMSDP=2.74D-06 MaxDP=6.76D-05 DE=-2.50D-08 OVMax= 4.15D-06

 Cycle  10  Pass 1  IDiag  1:
 E= -75.8355554865571     Delta-E=       -0.000000000030 Rises=F Damp=F
 DIIS: error= 2.03D-07 at cycle  10 NSaved=  10.
 NSaved=10 IEnMin=10 EnMin= -75.8355554865571     IErMin=10 ErrMin= 2.03D-07
 ErrMax= 2.03D-07  0.00D+00 EMaxC= 1.00D-01 BMatC= 5.29D-12 BMatP= 9.52D-11
 IDIUse=1 WtCom= 1.00D+00 WtEn= 0.00D+00
 Coeff-Com:  0.435D-06 0.130D-06-0.800D-06-0.134D-04 0.194D-03 0.109D-03
 Coeff-Com:  0.112D-02 0.563D-02-0.170D+00 0.116D+01
 Coeff:      0.435D-06 0.130D-06-0.800D-06-0.134D-04 0.194D-03 0.109D-03
 Coeff:      0.112D-02 0.563D-02-0.170D+00 0.116D+01
 Gap=     0.277 Goal=   None    Shift=    0.000
 Gap=     0.277 Goal=   None    Shift=    0.000
 RMSDP=3.66D-07 MaxDP=1.05D-05 DE=-2.98D-11 OVMax= 6.90D-07

 Cycle  11  Pass 1  IDiag  1:
 E= -75.8355554865585     Delta-E=       -0.000000000001 Rises=F Damp=F
 DIIS: error= 1.50D-08 at cycle  11 NSaved=  11.
 NSaved=11 IEnMin=11 EnMin= -75.8355554865585     IErMin=11 ErrMin= 1.50D-08
 ErrMax= 1.50D-08  0.00D+00 EMaxC= 1.00D-01 BMatC= 3.83D-14 BMatP= 5.29D-12
 IDIUse=1 WtCom= 1.00D+00 WtEn= 0.00D+00
 Coeff-Com:  0.641D-07-0.153D-06-0.465D-06-0.100D-05 0.682D-04-0.119D-03
 Coeff-Com: -0.264D-03 0.331D-02-0.142D-01-0.156D+00 0.117D+01
 Coeff:      0.641D-07-0.153D-06-0.465D-06-0.100D-05 0.682D-04-0.119D-03
 Coeff:     -0.264D-03 0.331D-02-0.142D-01-0.156D+00 0.117D+01
 Gap=     0.277 Goal=   None    Shift=    0.000
 Gap=     0.277 Goal=   None    Shift=    0.000
 RMSDP=4.82D-08 MaxDP=1.34D-06 DE=-1.42D-12 OVMax= 1.44D-07

 Cycle  12  Pass 1  IDiag  1:
 E= -75.8355554865588     Delta-E=       -0.000000000000 Rises=F Damp=F
 DIIS: error= 5.15D-09 at cycle  12 NSaved=  12.
 NSaved=12 IEnMin=12 EnMin= -75.8355554865588     IErMin=12 ErrMin= 5.15D-09
 ErrMax= 5.15D-09  0.00D+00 EMaxC= 1.00D-01 BMatC= 4.12D-15 BMatP= 3.83D-14
 IDIUse=1 WtCom= 1.00D+00 WtEn= 0.00D+00
 Coeff-Com:  0.316D-08-0.981D-09 0.763D-07 0.232D-06-0.130D-04 0.222D-04
 Coeff-Com:  0.247D-04-0.586D-03 0.442D-02 0.577D-02-0.159D+00 0.115D+01
 Coeff:      0.316D-08-0.981D-09 0.763D-07 0.232D-06-0.130D-04 0.222D-04
 Coeff:      0.247D-04-0.586D-03 0.442D-02 0.577D-02-0.159D+00 0.115D+01
 Gap=     0.277 Goal=   None    Shift=    0.000
 Gap=     0.277 Goal=   None    Shift=    0.000
 RMSDP=8.93D-09 MaxDP=2.54D-07 DE=-3.41D-13 OVMax= 1.00D-08

 SCF Done:  E(UM062X) =  -75.8355554866     A.U. after   12 cycles
            NFock= 12  Conv=0.89D-08     -V/T= 1.8834
 <Sx>= 0.0000 <Sy>= 0.0000 <Sz>= 0.0000 <S**2>=-0.0000 S=-0.0000
 <L.S>=  0.00000000000    
 KE= 8.584651518255D+01 PE=-2.905222998185D+02 EE= 7.471663213080D+01
 Annihilation of the first spin contaminant:
 S**2 before annihilation    -0.0000,   after    -0.0000
 Leave Link  502 at Tue Nov 19 10:06:48 2024, MaxMem=   536870912 cpu:              58.0 elap:               7.4
 (Enter /home/szhao/Apps/g16/l601.exe)
 Copying SCF densities to generalized density rwf, IOpCl= 1 IROHF=0.

 **********************************************************************

            Population analysis using the SCF density.

 **********************************************************************

 Alpha  occ. eigenvalues --  -10.76872 -10.47876  -1.00892  -0.90528  -0.64022
 Alpha  occ. eigenvalues --   -0.53679  -0.38612  -0.25866
 Alpha virt. eigenvalues --    0.01805   0.03830   0.04990   0.05607   0.09200
 Alpha virt. eigenvalues --    0.09285   0.09526   0.12841   0.16507   0.17240
 Alpha virt. eigenvalues --    0.29582   0.30736   0.36864   0.37684   0.43190
 Alpha virt. eigenvalues --    0.43717   0.48680   0.57863   0.68350   0.68631
 Alpha virt. eigenvalues --    0.68817   0.78821   0.79674   0.84684   0.85647
 Alpha virt. eigenvalues --    1.11665   1.14569   1.39636   1.42016   1.49010
 Alpha virt. eigenvalues --    1.63777   1.65481   1.73542   1.84970   1.87287
 Alpha virt. eigenvalues --    1.91259   2.00426   2.08735   2.09306   2.33128
 Alpha virt. eigenvalues --    2.41187   2.42299   2.44251   2.60844   2.62039
 Alpha virt. eigenvalues --    2.64160   2.77323   2.91133   2.98385   3.05081
 Alpha virt. eigenvalues --    3.19229   3.23386   3.51653   3.53927   4.07114
 Alpha virt. eigenvalues --    4.16130   4.51943   6.06021  24.77831  25.53763
  Beta  occ. eigenvalues --  -10.76872 -10.47876  -1.00892  -0.90528  -0.64022
  Beta  occ. eigenvalues --   -0.53679  -0.38612  -0.25866
  Beta virt. eigenvalues --    0.01805   0.03830   0.04990   0.05607   0.09200
  Beta virt. eigenvalues --    0.09285   0.09526   0.12841   0.16507   0.17240
  Beta virt. eigenvalues --    0.29582   0.30736   0.36864   0.37684   0.43190
  Beta virt. eigenvalues --    0.43717   0.48680   0.57863   0.68350   0.68631
  Beta virt. eigenvalues --    0.68817   0.78821   0.79674   0.84684   0.85647
  Beta virt. eigenvalues --    1.11665   1.14569   1.39636   1.42016   1.49010
  Beta virt. eigenvalues --    1.63777   1.65481   1.73542   1.84970   1.87287
  Beta virt. eigenvalues --    1.91259   2.00426   2.08735   2.09306   2.33128
  Beta virt. eigenvalues --    2.41187   2.42299   2.44251   2.60844   2.62039
  Beta virt. eigenvalues --    2.64160   2.77323   2.91133   2.98385   3.05081
  Beta virt. eigenvalues --    3.19229   3.23386   3.51653   3.53927   4.07114
  Beta virt. eigenvalues --    4.16130   4.51943   6.06021  24.77831  25.53763
          Condensed to atoms (all electrons):
               1          2          3          4          5          6
     1  C    5.942541  -0.552679   0.507496   0.505642  -0.149328  -0.149458
     2  C   -0.552679   5.942541  -0.149328  -0.149458   0.507496   0.505642
     3  H    0.507496  -0.149328   0.886639  -0.111937   0.094908  -0.280711
     4  H    0.505642  -0.149458  -0.111937   0.889586  -0.280711   0.095595
     5  H   -0.149328   0.507496   0.094908  -0.280711   0.886639  -0.111937
     6  H   -0.149458   0.505642  -0.280711   0.095595  -0.111937   0.889586
          Atomic-Atomic Spin Densities.
               1          2          3          4          5          6
     1  C    0.000000   0.000000  -0.000000   0.000000  -0.000000   0.000000
     2  C    0.000000  -0.000000   0.000000  -0.000000   0.000000  -0.000000
     3  H   -0.000000   0.000000   0.000000   0.000000   0.000000  -0.000000
     4  H    0.000000  -0.000000   0.000000  -0.000000   0.000000  -0.000000
     5  H   -0.000000   0.000000   0.000000   0.000000  -0.000000  -0.000000
     6  H    0.000000  -0.000000  -0.000000  -0.000000  -0.000000   0.000000
 Mulliken charges and spin densities:
               1          2
     1  C   -0.104215   0.000000
     2  C   -0.104215  -0.000000
     3  H    0.052932   0.000000
     4  H    0.051282   0.000000
     5  H    0.052932  -0.000000
     6  H    0.051282  -0.000000
 Sum of Mulliken charges =  -0.00000   0.00000
 Mulliken charges and spin densities with hydrogens summed into heavy atoms:
               1          2
     1  C   -0.000000   0.000000
     2  C    0.000000  -0.000000
 Electronic spatial extent (au):  <R**2>=             50.7274
 Charge=             -0.0000 electrons
 Dipole moment (field-independent basis, Debye):
    X=              0.0000    Y=              0.0000    Z=              0.0000  Tot=              0.0000
 Quadrupole moment (field-independent basis, Debye-Ang):
   XX=            -16.2284   YY=            -10.6635   ZZ=            -11.8815
   XY=              0.0330   XZ=             -0.0000   YZ=             -0.0000
 Traceless Quadrupole moment (field-independent basis, Debye-Ang):
   XX=             -3.3039   YY=              2.2610   ZZ=              1.0430
   XY=              0.0330   XZ=             -0.0000   YZ=             -0.0000
 Octapole moment (field-independent basis, Debye-Ang**2):
  XXX=             -0.0000  YYY=             -0.0000  ZZZ=              0.0000  XYY=              0.0000
  XXY=              0.0000  XXZ=              0.0000  XZZ=              0.0000  YZZ=             -0.0000
  YYZ=              0.0000  XYZ=             -0.0000
 Hexadecapole moment (field-independent basis, Debye-Ang**3):
 XXXX=            -38.0969 YYYY=            -25.9886 ZZZZ=            -10.3323 XXXY=              0.0812
 XXXZ=             -0.0000 YYYX=              0.1088 YYYZ=             -0.0000 ZZZX=             -0.0000
 ZZZY=             -0.0000 XXYY=            -13.4505 XXZZ=             -7.5375 YYZZ=             -6.6704
 XXYZ=             -0.0000 YYXZ=              0.0000 ZZXY=              0.0248
 N-N= 5.412359701857D+01 E-N=-2.905223001036D+02  KE= 8.584651518255D+01
                          Isotropic Fermi Contact Couplings
        Atom                 a.u.       MegaHertz       Gauss      10(-4) cm-1
     1  C(13)              0.00000       0.00000       0.00000       0.00000
     2  C(13)              0.00000       0.00000       0.00000       0.00000
     3  H(1)               0.00000       0.00000       0.00000       0.00000
     4  H(1)              -0.00000      -0.00000      -0.00000      -0.00000
     5  H(1)              -0.00000      -0.00000      -0.00000      -0.00000
     6  H(1)               0.00000       0.00000       0.00000       0.00000
 --------------------------------------------------------
       Center         ----  Spin Dipole Couplings  ----
                      3XX-RR        3YY-RR        3ZZ-RR
 --------------------------------------------------------
     1   Atom       -0.000000     -0.000000      0.000000
     2   Atom       -0.000000      0.000000     -0.000000
     3   Atom        0.000000      0.000000     -0.000000
     4   Atom        0.000000     -0.000000      0.000000
     5   Atom       -0.000000     -0.000000      0.000000
     6   Atom       -0.000000      0.000000     -0.000000
 --------------------------------------------------------
                        XY            XZ            YZ
 --------------------------------------------------------
     1   Atom        0.000000     -0.000000      0.000000
     2   Atom       -0.000000      0.000000      0.000000
     3   Atom        0.000000     -0.000000     -0.000000
     4   Atom        0.000000     -0.000000      0.000000
     5   Atom       -0.000000      0.000000     -0.000000
     6   Atom       -0.000000      0.000000      0.000000
 --------------------------------------------------------


 ---------------------------------------------------------------------------------
              Anisotropic Spin Dipole Couplings in Principal Axis System
 ---------------------------------------------------------------------------------

       Atom             a.u.   MegaHertz   Gauss  10(-4) cm-1        Axes

              Baa    -0.0000    -0.000    -0.000    -0.000  0.7211 -0.6928  0.0123
     1 C(13)  Bbb     0.0000     0.000     0.000     0.000  0.6925  0.7211  0.0214
              Bcc     0.0000     0.000     0.000     0.000 -0.0237 -0.0069  0.9997
 
              Baa    -0.0000    -0.000    -0.000    -0.000  0.9936  0.1078 -0.0338
     2 C(13)  Bbb    -0.0000    -0.000    -0.000    -0.000  0.0338  0.0017  0.9994
              Bcc     0.0000     0.000     0.000     0.000 -0.1078  0.9942  0.0020
 
              Baa    -0.0000    -0.000    -0.000    -0.000 -0.0215  0.0325  0.9992
     3 H(1)   Bbb    -0.0000    -0.000    -0.000    -0.000  0.8083 -0.5877  0.0365
              Bcc     0.0000     0.000     0.000     0.000  0.5884  0.8085 -0.0136
 
              Baa    -0.0000    -0.000    -0.000    -0.000 -0.2539  0.9672 -0.0061
     4 H(1)   Bbb     0.0000     0.000     0.000     0.000  0.9672  0.2540  0.0094
              Bcc     0.0000     0.000     0.000     0.000 -0.0107  0.0035  0.9999
 
              Baa    -0.0000    -0.000    -0.000    -0.000  0.5396  0.8419  0.0003
     5 H(1)   Bbb     0.0000     0.000     0.000     0.000  0.8418 -0.5396 -0.0118
              Bcc     0.0000     0.000     0.000     0.000  0.0098 -0.0066  0.9999
 
              Baa    -0.0000    -0.000    -0.000    -0.000 -0.0026 -0.0007  1.0000
     6 H(1)   Bbb    -0.0000    -0.000    -0.000    -0.000  0.9529  0.3033  0.0027
              Bcc     0.0000     0.000     0.000     0.000 -0.3033  0.9529 -0.0002
 

 ---------------------------------------------------------------------------------

 No NMR shielding tensors so no spin-rotation constants.
 Leave Link  601 at Tue Nov 19 10:06:48 2024, MaxMem=   536870912 cpu:               1.3 elap:               0.2
 (Enter /home/szhao/Apps/g16/l701.exe)
 ... and contract with generalized density number  0.
 Compute integral first derivatives.
 Leave Link  701 at Tue Nov 19 10:06:48 2024, MaxMem=   536870912 cpu:               0.7 elap:               0.1
 (Enter /home/szhao/Apps/g16/l702.exe)
 L702 exits ... SP integral derivatives will be done elsewhere.
 Leave Link  702 at Tue Nov 19 10:06:48 2024, MaxMem=   536870912 cpu:               0.2 elap:               0.0
 (Enter /home/szhao/Apps/g16/l703.exe)
 Integral derivatives from FoFJK, PRISM(SPDF).
 Compute integral first derivatives, UseDBF=F ICtDFT=           0.
 Calling FoFJK, ICntrl=      2127 FMM=F ISym2X=0 I1Cent= 0 IOpClX= 1 NMat=1 NMatS=1 NMatT=0.
 FoFJK:  IHMeth= 1 ICntrl=    2127 DoSepK=F KAlg= 0 I1Cent=           0 FoldK=F
 IRaf=         0 NMat=       1 IRICut=       1 DoRegI=T DoRafI=F ISym2E= 0 IDoP0=0 IntGTp=1.
 FoFCou: FMM=F IPFlag=           0 FMFlag=      100000 FMFlg1=         800
         NFxFlg=           0 DoJE=F BraDBF=F KetDBF=F FulRan=T
         wScrn=  0.000000 ICntrl=      2127 IOpCl=  1 I1Cent=           0 NGrid=           0
         NMat0=    1 NMatS0=      1 NMatT0=    0 NMatD0=    1 NMtDS0=    0 NMtDT0=    0
 Symmetry not used in FoFCou.
 Leave Link  703 at Tue Nov 19 10:06:49 2024, MaxMem=   536870912 cpu:               8.9 elap:               1.1
 (Enter /home/szhao/Apps/g16/l716.exe)
 Dipole        = 6.77680134D-13 1.52238222D-11 2.10227194D-15
 -------------------------------------------------------------------
 Center     Atomic                   Forces (Hartrees/Bohr)
 Number     Number              X              Y              Z
 -------------------------------------------------------------------
      1        6          -0.000000000   -0.000000000   -0.000000000
      2        6          -0.000000000   -0.000000000   -0.000000000
      3        1          -0.202060386   -0.080857013   -0.000000000
      4        1          -0.200462599    0.078086503   -0.000000000
      5        1           0.202060386    0.080857013    0.000000000
      6        1           0.200462599   -0.078086503    0.000000000
 -------------------------------------------------------------------
 Cartesian Forces:  Max     0.202060386 RMS     0.102007087
 Leave Link  716 at Tue Nov 19 10:06:49 2024, MaxMem=   536870912 cpu:               0.3 elap:               0.0
 (Enter /home/szhao/Apps/g16/l103.exe)

 GradGradGradGradGradGradGradGradGradGradGradGradGradGradGradGradGradGrad
 Berny optimization.
 FormGI is forming the generalized inverse of G from B-inverse, IUseBI=4.
 Internal  Forces:  Max     0.402522986 RMS     0.161828005
 Search for a local minimum.
 Step number   1 out of a maximum of   30
 All quantities printed in internal units (Hartrees-Bohrs-Radians)
 RMS Force = .11943D+00 SwitMx=.10000D-02 MixMth= 1
 Mixed Optimization -- RFO/linear search
 Second derivative matrix not updated -- first step.
 The second derivative matrix:
                          X1        Y1        Z1        X2        Y2
           X1           0.50000
           Y1           0.00000   0.50000
           Z1           0.00000   0.00000   0.50000
           X2           0.00000   0.00000   0.00000   0.50000
           Y2           0.00000   0.00000   0.00000   0.00000   0.50000
           Z2           0.00000   0.00000   0.00000   0.00000   0.00000
           R1           0.00000   0.00000   0.00000   0.00000   0.00000
           R2           0.00000   0.00000   0.00000   0.00000   0.00000
           R3           0.00000   0.00000   0.00000   0.00000   0.00000
           R4           0.00000   0.00000   0.00000   0.00000   0.00000
           A1           0.00000   0.00000   0.00000   0.00000   0.00000
           A2           0.00000   0.00000   0.00000   0.00000   0.00000
           A3           0.00000   0.00000   0.00000   0.00000   0.00000
           A4           0.00000   0.00000   0.00000   0.00000   0.00000
           A5           0.00000   0.00000   0.00000   0.00000   0.00000
           A6           0.00000   0.00000   0.00000   0.00000   0.00000
           D1           0.00000   0.00000   0.00000   0.00000   0.00000
           D2           0.00000   0.00000   0.00000   0.00000   0.00000
           D3           0.00000   0.00000   0.00000   0.00000   0.00000
           D4           0.00000   0.00000   0.00000   0.00000   0.00000
                          Z2        R1        R2        R3        R4
           Z2           0.50000
           R1           0.00000   0.54892
           R2           0.00000   0.00000   0.54118
           R3           0.00000   0.00000   0.00000   0.54892
           R4           0.00000   0.00000   0.00000   0.00000   0.54118
           A1           0.00000   0.00000   0.00000   0.00000   0.00000
           A2           0.00000   0.00000   0.00000   0.00000   0.00000
           A3           0.00000   0.00000   0.00000   0.00000   0.00000
           A4           0.00000   0.00000   0.00000   0.00000   0.00000
           A5           0.00000   0.00000   0.00000   0.00000   0.00000
           A6           0.00000   0.00000   0.00000   0.00000   0.00000
           D1           0.00000   0.00000   0.00000   0.00000   0.00000
           D2           0.00000   0.00000   0.00000   0.00000   0.00000
           D3           0.00000   0.00000   0.00000   0.00000   0.00000
           D4           0.00000   0.00000   0.00000   0.00000   0.00000
                          A1        A2        A3        A4        A5
           A1           0.16000
           A2           0.00000   0.16000
           A3           0.00000   0.00000   0.16000
           A4           0.00000   0.00000   0.00000   0.16000
           A5           0.00000   0.00000   0.00000   0.00000   0.16000
           A6           0.00000   0.00000   0.00000   0.00000   0.00000
           D1           0.00000   0.00000   0.00000   0.00000   0.00000
           D2           0.00000   0.00000   0.00000   0.00000   0.00000
           D3           0.00000   0.00000   0.00000   0.00000   0.00000
           D4           0.00000   0.00000   0.00000   0.00000   0.00000
                          A6        D1        D2        D3        D4
           A6           0.16000
           D1           0.00000   0.12015
           D2           0.00000   0.00000   0.12015
           D3           0.00000   0.00000   0.00000   0.12015
           D4           0.00000   0.00000   0.00000   0.00000   0.12015
 ITU=  0
     Eigenvalues ---    0.12015   0.12015   0.12015   0.16000   0.16000
     Eigenvalues ---    0.16000   0.16000   0.54118   0.54118   0.54892
     Eigenvalues ---    0.548921000.000001000.000001000.000001000.00000
     Eigenvalues --- 1000.000001000.000001000.000001000.000001000.00000
 RFO step:  Lambda=-3.37952410D-01 EMin= 1.20149166D-01
 Linear search not attempted -- first point.
 Maximum step size (   0.300) exceeded in Quadratic search.
    -- Step size scaled by   0.385
 Iteration  1 RMS(Cart)=  0.07007328 RMS(Int)=  0.00323227
 Iteration  2 RMS(Cart)=  0.00334861 RMS(Int)=  0.00000656
 Iteration  3 RMS(Cart)=  0.00000690 RMS(Int)=  0.00000000
 Iteration  4 RMS(Cart)=  0.00000000 RMS(Int)=  0.00000000
 ITry= 1 IFail=0 DXMaxC= 1.59D-01 DCOld= 1.00D+10 DXMaxT= 3.00D-01 DXLimC= 3.00D+00 Rises=F
 Variable       Old X    -DE/DX   Delta X   Delta X   Delta X     New X
                                 (Linear)    (Quad)   (Total)
    X1       -0.61380  -0.40252   0.00000   0.00000   0.00000  -0.61380
    Y1        0.00000  -0.00367   0.00000   0.00000   0.00000   0.00000
    Z1        0.00000  -0.00000   0.00000   0.00000   0.00000   0.00000
    X2        0.61380   0.40252   0.00000   0.00000   0.00000   0.61380
    Y2        0.00000   0.00367   0.00000   0.00000   0.00000   0.00000
    Z2        0.00000   0.00000   0.00000   0.00000   0.00000   0.00000
    R1        1.81928   0.13596   0.00000   0.05902   0.05902   1.87830
    R2        1.82624   0.13236   0.00000   0.05796   0.05796   1.88420
    R3        1.81928   0.13596   0.00000   0.05902   0.05902   1.87830
    R4        1.82624   0.13236   0.00000   0.05796   0.05796   1.88420
    A1        1.86492   0.10288   0.00000   0.07953   0.07953   1.94445
    A2        1.86205   0.10342   0.00000   0.07996   0.07996   1.94201
    A3        2.55622  -0.20630   0.00000  -0.15949  -0.15949   2.39672
    A4        1.86492   0.10288   0.00000   0.07953   0.07953   1.94445
    A5        1.86205   0.10342   0.00000   0.07996   0.07996   1.94201
    A6        2.55622  -0.20630   0.00000  -0.15949  -0.15949   2.39672
    D1        3.14159   0.00000   0.00000   0.00000   0.00000   3.14159
    D2        0.00000  -0.00000   0.00000  -0.00000   0.00000   0.00000
    D3        0.00000   0.00000   0.00000   0.00000  -0.00000   0.00000
    D4        3.14159   0.00000   0.00000   0.00000   0.00000   3.14159
         Item               Value     Threshold  Converged?
 Maximum Force            0.206300     0.000450     NO 
 RMS     Force            0.119430     0.000300     NO 
 Maximum Displacement     0.159076     0.001800     NO 
 RMS     Displacement     0.071018     0.001200     NO 
 Predicted change in Energy=-1.202676D-01
 Lowest energy point so far.  Saving SCF results.
 GradGradGradGradGradGradGradGradGradGradGradGradGradGradGradGradGradGrad

 Leave Link  103 at Tue Nov 19 10:06:50 2024, MaxMem=   536870912 cpu:               0.0 elap:               0.0
 (Enter /home/szhao/Apps/g16/l202.exe)
                          Input orientation:                          
 ---------------------------------------------------------------------
 Center     Atomic      Atomic             Coordinates (Angstroms)
 Number     Number       Type             X           Y           Z
 ---------------------------------------------------------------------
      1          6           0       -0.324807    0.000000    0.000000
      2          6           0        0.324807    0.000000    0.000000
      3          1           0       -0.687620   -0.925372    0.000000
      4          1           0       -0.686495    0.929163    0.000000
      5          1           0        0.687620    0.925372   -0.000000
      6          1           0        0.686495   -0.929163   -0.000000
 ---------------------------------------------------------------------
                    Distance matrix (angstroms):
                    1          2          3          4          5
     1  C    0.000000
     2  C    0.649615   0.000000
     3  H    0.993955   1.371613   0.000000
     4  H    0.997077   1.373345   1.854535   0.000000
     5  H    1.371613   0.993955   2.305761   1.374120   0.000000
     6  H    1.373345   0.997077   1.374120   2.310514   1.854535
                    6
     6  H    0.000000
 Symmetry turned off by external request.
 Stoichiometry    C2H4
 Framework group  C2H[SGH(C2H4)]
 Deg. of freedom     5
 Full point group                 C2H     NOp   4
 Rotational constants (GHZ):         145.8013111         113.9531529          63.9624006
 Leave Link  202 at Tue Nov 19 10:06:50 2024, MaxMem=   536870912 cpu:               0.0 elap:               0.0
 (Enter /home/szhao/Apps/g16/l301.exe)
 Standard basis: 6-311+G(d,p) (5D, 7F)
 Ernie: Thresh=  0.10000D-02 Tol=  0.10000D-05 Strict=F.
    68 basis functions,   104 primitive gaussians,    70 cartesian basis functions
     8 alpha electrons        8 beta electrons
       nuclear repulsion energy        53.1360989563 Hartrees.
 IExCor= 4336 DFT=T Ex+Corr=M062X ExCW=0 ScaHFX=  0.540000
 ScaDFX=  1.000000  1.000000  1.000000  1.000000 ScalE2=  1.000000  1.000000
 IRadAn=      7 IRanWt=     -1 IRanGd=            0 ICorTp=0 IEmpDi=  4
 NAtoms=    6 NActive=    6 NUniq=    6 SFac= 1.00D+00 NAtFMM=   60 NAOKFM=F Big=F
 Integral buffers will be    131072 words long.
 Raffenetti 2 integral format.
 Two-electron integral symmetry is turned off.
 Leave Link  301 at Tue Nov 19 10:06:50 2024, MaxMem=   536870912 cpu:               0.3 elap:               0.0
 (Enter /home/szhao/Apps/g16/l302.exe)
 NPDir=0 NMtPBC=     1 NCelOv=     1 NCel=       1 NClECP=     1 NCelD=      1
         NCelK=      1 NCelE2=     1 NClLst=     1 CellRange=     0.0.
 One-electron integrals computed using PRISM.
 NBasis=    68 RedAO= T EigKep=  1.94D-06  NBF=    68
 NBsUse=    68 1.00D-06 EigRej= -1.00D+00 NBFU=    68
 Precomputing XC quadrature grid using
 IXCGrd= 4 IRadAn=           7 IRanWt=          -1 IRanGd=           0 AccXCQ= 0.00D+00.
 Generated NRdTot=       0 NPtTot=           0 NUsed=           0 NTot=          32
 NSgBfM=    70    70    70    70    70 MxSgAt=     6 MxSgA2=     6.
 Leave Link  302 at Tue Nov 19 10:06:50 2024, MaxMem=   536870912 cpu:               1.1 elap:               0.1
 (Enter /home/szhao/Apps/g16/l303.exe)
 DipDrv:  MaxL=1.
 Leave Link  303 at Tue Nov 19 10:06:50 2024, MaxMem=   536870912 cpu:               0.3 elap:               0.0
 (Enter /home/szhao/Apps/g16/l401.exe)
 Initial guess from the checkpoint file:  "opt.chk"
 B after Tr=     0.000000    0.000000    0.000000
         Rot=    1.000000   -0.000000   -0.000000   -0.000175 Ang=  -0.02 deg.
 Guess basis will be translated and rotated to current coordinates.
 JPrj=2 DoOrth=T DoCkMO=T.
 Initial guess <Sx>= 0.0000 <Sy>= 0.0000 <Sz>= 0.0000 <S**2>=-0.0000 S=-0.0000
 Generating alternative initial guess.
 ExpMin= 4.38D-02 ExpMax= 4.56D+03 ExpMxC= 6.82D+02 IAcc=3 IRadAn=         5 AccDes= 0.00D+00
 Harris functional with IExCor= 1009 and IRadAn=       5 diagonalized for initial guess.
 HarFok:  IExCor= 1009 AccDes= 0.00D+00 IRadAn=         5 IDoV= 1 UseB2=F ITyADJ=14
 ICtDFT=  3500011 ScaDFX=  1.000000  1.000000  1.000000  1.000000
 FoFCou: FMM=F IPFlag=           0 FMFlag=      100000 FMFlg1=           0
         NFxFlg=           0 DoJE=T BraDBF=F KetDBF=T FulRan=T
         wScrn=  0.000000 ICntrl=       500 IOpCl=  0 I1Cent=   200000004 NGrid=           0
         NMat0=    1 NMatS0=      1 NMatT0=    0 NMatD0=    1 NMtDS0=    0 NMtDT0=    0
 Symmetry not used in FoFCou.
 Harris En= -76.7174635500467    
 Leave Link  401 at Tue Nov 19 10:06:50 2024, MaxMem=   536870912 cpu:               1.9 elap:               0.2
 (Enter /home/szhao/Apps/g16/l502.exe)
 Keep R1 and R2 ints in memory in canonical form, NReq=12681614.
 FoFCou: FMM=F IPFlag=           0 FMFlag=           0 FMFlg1=           0
         NFxFlg=           0 DoJE=F BraDBF=F KetDBF=F FulRan=T
         wScrn=  0.000000 ICntrl=       600 IOpCl=  0 I1Cent=           0 NGrid=           0
         NMat0=    1 NMatS0=   2346 NMatT0=    0 NMatD0=    1 NMtDS0=    0 NMtDT0=    0
 Symmetry not used in FoFCou.
 Two-electron integral symmetry not used.
 UHF open shell SCF:
 Using DIIS extrapolation, IDIIS=  1040.
 NGot=   536870912 LenX=   531353794 LenY=   531348453
 Requested convergence on RMS density matrix=1.00D-08 within 128 cycles.
 Requested convergence on MAX density matrix=1.00D-06.
 Requested convergence on             energy=1.00D-06.
 No special actions if energy rises.

 Cycle   1  Pass 1  IDiag  1:
 E= -75.9464929628718    
 DIIS: error= 1.08D-02 at cycle   1 NSaved=   1.
 NSaved= 1 IEnMin= 1 EnMin= -75.9464929628718     IErMin= 1 ErrMin= 1.08D-02
 ErrMax= 1.08D-02  0.00D+00 EMaxC= 1.00D-01 BMatC= 1.40D-02 BMatP= 1.40D-02
 IDIUse=3 WtCom= 8.92D-01 WtEn= 1.08D-01
 Coeff-Com:  0.100D+01
 Coeff-En:   0.100D+01
 Coeff:      0.100D+01
 Recover alternate guess density for next cycle.
 RMSDP=3.22D-02 MaxDP=8.94D-01              OVMax= 0.00D+00

 Cycle   2  Pass 1  IDiag  1:
 E= -74.9644373733630     Delta-E=        0.982055589509 Rises=F Damp=F
 Switch densities from cycles 1 and 2 for lowest energy.
 DIIS: error= 1.79D-01 at cycle   2 NSaved=   2.
 NSaved= 2 IEnMin= 1 EnMin= -75.9464929628718     IErMin= 1 ErrMin= 1.08D-02
 ErrMax= 1.79D-01  0.00D+00 EMaxC= 1.00D+00 BMatC= 5.54D+00 BMatP= 1.40D-02
 IDIUse=1 WtCom= 1.00D+00 WtEn= 0.00D+00
 Coeff-Com:  0.998D+00 0.197D-02
 Coeff:      0.998D+00 0.197D-02
 Gap=     0.320 Goal=   None    Shift=    0.000
 Gap=     0.320 Goal=   None    Shift=    0.000
 RMSDP=3.41D-03 MaxDP=7.23D-02 DE= 9.82D-01 OVMax= 2.58D-01

 Cycle   3  Pass 1  IDiag  1:
 E= -75.9493892539453     Delta-E=       -0.984951880582 Rises=F Damp=F
 DIIS: error= 9.58D-04 at cycle   3 NSaved=   3.
 NSaved= 3 IEnMin= 3 EnMin= -75.9493892539453     IErMin= 3 ErrMin= 9.58D-04
 ErrMax= 9.58D-04  0.00D+00 EMaxC= 1.00D+00 BMatC= 1.98D-04 BMatP= 1.40D-02
 IDIUse=1 WtCom= 1.00D+00 WtEn= 0.00D+00
 Coeff-Com: -0.825D-01-0.326D-02 0.109D+01
 Coeff:     -0.825D-01-0.326D-02 0.109D+01
 Gap=     0.287 Goal=   None    Shift=    0.000
 Gap=     0.287 Goal=   None    Shift=    0.000
 RMSDP=9.04D-04 MaxDP=2.15D-02 DE=-9.85D-01 OVMax= 3.58D-03

 Cycle   4  Pass 1  IDiag  1:
 E= -75.9494551800538     Delta-E=       -0.000065926109 Rises=F Damp=F
 DIIS: error= 1.95D-04 at cycle   4 NSaved=   4.
 NSaved= 4 IEnMin= 4 EnMin= -75.9494551800538     IErMin= 4 ErrMin= 1.95D-04
 ErrMax= 1.95D-04  0.00D+00 EMaxC= 1.00D+00 BMatC= 7.20D-06 BMatP= 1.98D-04
 IDIUse=1 WtCom= 1.00D+00 WtEn= 0.00D+00
 Coeff-Com: -0.340D-02 0.103D-02-0.312D-01 0.103D+01
 Coeff:     -0.340D-02 0.103D-02-0.312D-01 0.103D+01
 Gap=     0.287 Goal=   None    Shift=    0.000
 Gap=     0.287 Goal=   None    Shift=    0.000
 RMSDP=2.13D-04 MaxDP=4.96D-03 DE=-6.59D-05 OVMax= 7.76D-04

 Cycle   5  Pass 1  IDiag  1:
 E= -75.9494574744924     Delta-E=       -0.000002294439 Rises=F Damp=F
 DIIS: error= 2.99D-05 at cycle   5 NSaved=   5.
 NSaved= 5 IEnMin= 5 EnMin= -75.9494574744924     IErMin= 5 ErrMin= 2.99D-05
 ErrMax= 2.99D-05  0.00D+00 EMaxC= 1.00D+00 BMatC= 1.31D-07 BMatP= 7.20D-06
 IDIUse=1 WtCom= 1.00D+00 WtEn= 0.00D+00
 Coeff-Com:  0.189D-02-0.749D-04-0.233D-01-0.627D-01 0.108D+01
 Coeff:      0.189D-02-0.749D-04-0.233D-01-0.627D-01 0.108D+01
 Gap=     0.287 Goal=   None    Shift=    0.000
 Gap=     0.287 Goal=   None    Shift=    0.000
 RMSDP=7.08D-05 MaxDP=2.11D-03 DE=-2.29D-06 OVMax= 2.49D-04

 Cycle   6  Pass 1  IDiag  1:
 E= -75.9494575646987     Delta-E=       -0.000000090206 Rises=F Damp=F
 DIIS: error= 5.49D-06 at cycle   6 NSaved=   6.
 NSaved= 6 IEnMin= 6 EnMin= -75.9494575646987     IErMin= 6 ErrMin= 5.49D-06
 ErrMax= 5.49D-06  0.00D+00 EMaxC= 1.00D+00 BMatC= 4.91D-09 BMatP= 1.31D-07
 IDIUse=1 WtCom= 1.00D+00 WtEn= 0.00D+00
 Coeff-Com: -0.119D-03-0.133D-04 0.334D-02-0.312D-01-0.812D-01 0.111D+01
 Coeff:     -0.119D-03-0.133D-04 0.334D-02-0.312D-01-0.812D-01 0.111D+01
 Gap=     0.287 Goal=   None    Shift=    0.000
 Gap=     0.287 Goal=   None    Shift=    0.000
 RMSDP=8.63D-06 MaxDP=2.50D-04 DE=-9.02D-08 OVMax= 4.49D-05

 Cycle   7  Pass 1  IDiag  1:
 E= -75.9494575674028     Delta-E=       -0.000000002704 Rises=F Damp=F
 DIIS: error= 6.47D-07 at cycle   7 NSaved=   7.
 NSaved= 7 IEnMin= 7 EnMin= -75.9494575674028     IErMin= 7 ErrMin= 6.47D-07
 ErrMax= 6.47D-07  0.00D+00 EMaxC= 1.00D+00 BMatC= 3.81D-11 BMatP= 4.91D-09
 IDIUse=1 WtCom= 1.00D+00 WtEn= 0.00D+00
 Coeff-Com: -0.118D-04 0.185D-05 0.129D-04 0.271D-02 0.735D-03-0.127D+00
 Coeff-Com:  0.112D+01
 Coeff:     -0.118D-04 0.185D-05 0.129D-04 0.271D-02 0.735D-03-0.127D+00
 Coeff:      0.112D+01
 Gap=     0.287 Goal=   None    Shift=    0.000
 Gap=     0.287 Goal=   None    Shift=    0.000
 RMSDP=7.70D-07 MaxDP=2.14D-05 DE=-2.70D-09 OVMax= 4.13D-06

 Cycle   8  Pass 1  IDiag  1:
 E= -75.9494575674279     Delta-E=       -0.000000000025 Rises=F Damp=F
 DIIS: error= 1.05D-07 at cycle   8 NSaved=   8.
 NSaved= 8 IEnMin= 8 EnMin= -75.9494575674279     IErMin= 8 ErrMin= 1.05D-07
 ErrMax= 1.05D-07  0.00D+00 EMaxC= 1.00D+00 BMatC= 9.79D-13 BMatP= 3.81D-11
 IDIUse=1 WtCom= 1.00D+00 WtEn= 0.00D+00
 Coeff-Com:  0.207D-05-0.141D-06-0.345D-04-0.686D-04 0.154D-02-0.170D-02
 Coeff-Com: -0.163D+00 0.116D+01
 Coeff:      0.207D-05-0.141D-06-0.345D-04-0.686D-04 0.154D-02-0.170D-02
 Coeff:     -0.163D+00 0.116D+01
 Gap=     0.287 Goal=   None    Shift=    0.000
 Gap=     0.287 Goal=   None    Shift=    0.000
 RMSDP=1.27D-07 MaxDP=3.50D-06 DE=-2.51D-11 OVMax= 5.79D-07

 Cycle   9  Pass 1  IDiag  1:
 E= -75.9494575674284     Delta-E=       -0.000000000001 Rises=F Damp=F
 DIIS: error= 1.00D-08 at cycle   9 NSaved=   9.
 NSaved= 9 IEnMin= 9 EnMin= -75.9494575674284     IErMin= 9 ErrMin= 1.00D-08
 ErrMax= 1.00D-08  0.00D+00 EMaxC= 1.00D+00 BMatC= 1.33D-14 BMatP= 9.79D-13
 IDIUse=1 WtCom= 1.00D+00 WtEn= 0.00D+00
 Coeff-Com:  0.151D-06 0.121D-07 0.543D-06-0.457D-04-0.546D-04 0.302D-02
 Coeff-Com: -0.129D-01-0.612D-01 0.107D+01
 Coeff:      0.151D-06 0.121D-07 0.543D-06-0.457D-04-0.546D-04 0.302D-02
 Coeff:     -0.129D-01-0.612D-01 0.107D+01
 Gap=     0.287 Goal=   None    Shift=    0.000
 Gap=     0.287 Goal=   None    Shift=    0.000
 RMSDP=7.70D-09 MaxDP=8.82D-08 DE=-5.40D-13 OVMax= 7.15D-08

 SCF Done:  E(UM062X) =  -75.9494575674     A.U. after    9 cycles
            NFock=  9  Conv=0.77D-08     -V/T= 1.8874
 <Sx>= 0.0000 <Sy>= 0.0000 <Sz>= 0.0000 <S**2>=-0.0000 S=-0.0000
 <L.S>=  0.00000000000    
 KE= 8.558383458338D+01 PE=-2.886911179358D+02 EE= 7.402172682869D+01
 Annihilation of the first spin contaminant:
 S**2 before annihilation    -0.0000,   after     0.0000
 Leave Link  502 at Tue Nov 19 10:06:56 2024, MaxMem=   536870912 cpu:              43.5 elap:               5.5
 (Enter /home/szhao/Apps/g16/l701.exe)
 ... and contract with generalized density number  0.
 Compute integral first derivatives.
 Leave Link  701 at Tue Nov 19 10:06:56 2024, MaxMem=   536870912 cpu:               0.8 elap:               0.1
 (Enter /home/szhao/Apps/g16/l702.exe)
 L702 exits ... SP integral derivatives will be done elsewhere.
 Leave Link  702 at Tue Nov 19 10:06:56 2024, MaxMem=   536870912 cpu:               0.3 elap:               0.0
 (Enter /home/szhao/Apps/g16/l703.exe)
 Integral derivatives from FoFJK, PRISM(SPDF).
 Compute integral first derivatives, UseDBF=F ICtDFT=           0.
 Calling FoFJK, ICntrl=      2127 FMM=F ISym2X=0 I1Cent= 0 IOpClX= 1 NMat=1 NMatS=1 NMatT=0.
 FoFJK:  IHMeth= 1 ICntrl=    2127 DoSepK=F KAlg= 0 I1Cent=           0 FoldK=F
 IRaf=         0 NMat=       1 IRICut=       1 DoRegI=T DoRafI=F ISym2E= 0 IDoP0=0 IntGTp=1.
 FoFCou: FMM=F IPFlag=           0 FMFlag=      100000 FMFlg1=         800
         NFxFlg=           0 DoJE=F BraDBF=F KetDBF=F FulRan=T
         wScrn=  0.000000 ICntrl=      2127 IOpCl=  1 I1Cent=           0 NGrid=           0
         NMat0=    1 NMatS0=      1 NMatT0=    0 NMatD0=    1 NMtDS0=    0 NMtDT0=    0
 Symmetry not used in FoFCou.
 Leave Link  703 at Tue Nov 19 10:06:57 2024, MaxMem=   536870912 cpu:               8.3 elap:               1.0
 (Enter /home/szhao/Apps/g16/l716.exe)
 Dipole        =-7.99360578D-15-3.18447491D-11 4.23375776D-15
 -------------------------------------------------------------------
 Center     Atomic                   Forces (Hartrees/Bohr)
 Number     Number              X              Y              Z
 -------------------------------------------------------------------
      1        6          -0.000000000   -0.000000000   -0.000000000
      2        6          -0.000000000   -0.000000000   -0.000000000
      3        1          -0.153926126   -0.047989952    0.000000000
      4        1          -0.152622738    0.046027575    0.000000000
      5        1           0.153926126    0.047989952   -0.000000000
      6        1           0.152622738   -0.046027575   -0.000000000
 -------------------------------------------------------------------
 Cartesian Forces:  Max     0.153926126 RMS     0.075578161
 Leave Link  716 at Tue Nov 19 10:06:57 2024, MaxMem=   536870912 cpu:               0.3 elap:               0.0
 (Enter /home/szhao/Apps/g16/l103.exe)

 GradGradGradGradGradGradGradGradGradGradGradGradGradGradGradGradGradGrad
 Berny optimization.
 Using GEDIIS/GDIIS optimizer.
 FormGI is forming the generalized inverse of G from B-inverse, IUseBI=4.
 Internal  Forces:  Max     0.306548864 RMS     0.122907043
 Search for a local minimum.
 Step number   2 out of a maximum of   30
 All quantities printed in internal units (Hartrees-Bohrs-Radians)
 RMS Force = .90304D-01 SwitMx=.10000D-02 MixMth= 1
 Mixed Optimization -- RFO/linear search
 Update second derivatives using D2CorX and points    1    2
 DE= -1.14D-01 DEPred=-1.20D-01 R= 9.47D-01
 TightC=F SS=  1.41D+00  RLast= 3.00D-01 DXNew= 5.0454D-01 9.0000D-01
 Trust test= 9.47D-01 RLast= 3.00D-01 DXMaxT set to 5.05D-01
 The second derivative matrix:
                          X1        Y1        Z1        X2        Y2
           X1           0.79335
           Y1           0.00393   0.50005
           Z1           0.00000   0.00000   0.50000
           X2          -0.29335  -0.00393  -0.00000   0.79335
           Y2          -0.00393  -0.00005  -0.00000   0.00393   0.50005
           Z2          -0.00000  -0.00000  -0.00000   0.00000   0.00000
           R1          -0.10728  -0.00144  -0.00000   0.10728   0.00144
           R2          -0.10425  -0.00140  -0.00000   0.10425   0.00140
           R3          -0.10728  -0.00144  -0.00000   0.10728   0.00144
           R4          -0.10425  -0.00140  -0.00000   0.10425   0.00140
           A1          -0.07398  -0.00099  -0.00000   0.07398   0.00099
           A2          -0.07488  -0.00100  -0.00000   0.07488   0.00100
           A3           0.14886   0.00199   0.00000  -0.14886  -0.00199
           A4          -0.07398  -0.00099  -0.00000   0.07398   0.00099
           A5          -0.07488  -0.00100  -0.00000   0.07488   0.00100
           A6           0.14886   0.00199   0.00000  -0.14886  -0.00199
           D1           0.00000   0.00000   0.00000  -0.00000  -0.00000
           D2           0.00000   0.00000   0.00000  -0.00000  -0.00000
           D3          -0.00000  -0.00000  -0.00000   0.00000   0.00000
           D4          -0.00000  -0.00000  -0.00000   0.00000   0.00000
                          Z2        R1        R2        R3        R4
           Z2           0.50000
           R1           0.00000   0.53479
           R2           0.00000  -0.01354   0.52821
           R3           0.00000  -0.01413  -0.01354   0.53479
           R4           0.00000  -0.01354  -0.01298  -0.01354   0.52821
           A1           0.00000   0.00610   0.00600   0.00610   0.00600
           A2           0.00000   0.00631   0.00621   0.00631   0.00621
           A3          -0.00000  -0.01241  -0.01221  -0.01241  -0.01221
           A4           0.00000   0.00610   0.00600   0.00610   0.00600
           A5           0.00000   0.00631   0.00621   0.00631   0.00621
           A6          -0.00000  -0.01241  -0.01221  -0.01241  -0.01221
           D1          -0.00000  -0.00000  -0.00000  -0.00000  -0.00000
           D2          -0.00000  -0.00000  -0.00000  -0.00000  -0.00000
           D3           0.00000   0.00000   0.00000   0.00000   0.00000
           D4           0.00000   0.00000   0.00000   0.00000   0.00000
                          A1        A2        A3        A4        A5
           A1           0.17043
           A2           0.01061   0.17079
           A3          -0.02103  -0.02140   0.20243
           A4           0.01043   0.01061  -0.02103   0.17043
           A5           0.01061   0.01079  -0.02140   0.01061   0.17079
           A6          -0.02103  -0.02140   0.04243  -0.02103  -0.02140
           D1          -0.00000  -0.00000   0.00000  -0.00000  -0.00000
           D2          -0.00000  -0.00000   0.00000  -0.00000  -0.00000
           D3           0.00000   0.00000  -0.00000   0.00000   0.00000
           D4           0.00000   0.00000  -0.00000   0.00000   0.00000
                          A6        D1        D2        D3        D4
           A6           0.20243
           D1           0.00000   0.12015
           D2           0.00000   0.00000   0.12015
           D3          -0.00000  -0.00000  -0.00000   0.12015
           D4          -0.00000  -0.00000  -0.00000   0.00000   0.12015
 ITU=  1  0
 Use linear search instead of GDIIS.
 Linear search step of   0.600 exceeds DXMaxT=   0.505 but not scaled.
 Quartic linear search produced a step of  2.00000.
 Iteration  1 RMS(Cart)=  0.11358443 RMS(Int)=  0.03696134
 Iteration  2 RMS(Cart)=  0.04269386 RMS(Int)=  0.00102111
 Iteration  3 RMS(Cart)=  0.00102380 RMS(Int)=  0.00000015
 Iteration  4 RMS(Cart)=  0.00000017 RMS(Int)=  0.00000000
 ITry= 1 IFail=0 DXMaxC= 3.30D-01 DCOld= 1.00D+10 DXMaxT= 5.05D-01 DXLimC= 3.00D+00 Rises=F
 Variable       Old X    -DE/DX   Delta X   Delta X   Delta X     New X
                                 (Linear)    (Quad)   (Total)
    X1       -0.61380  -0.30655   0.00000   0.00000   0.00000  -0.61380
    Y1        0.00000  -0.00238   0.00000   0.00000   0.00000   0.00000
    Z1        0.00000   0.00000   0.00000   0.00000   0.00000   0.00000
    X2        0.61380   0.30655   0.00000   0.00000   0.00000   0.61380
    Y2        0.00000   0.00238   0.00000   0.00000   0.00000   0.00000
    Z2        0.00000  -0.00000   0.00000   0.00000   0.00000   0.00000
    R1        1.87830   0.10086   0.11804   0.00000   0.11804   1.99634
    R2        1.88420   0.09826   0.11592   0.00000   0.11592   2.00012
    R3        1.87830   0.10086   0.11804   0.00000   0.11804   1.99634
    R4        1.88420   0.09826   0.11592   0.00000   0.11592   2.00012
    A1        1.94445   0.07867   0.15907   0.00000   0.15907   2.10352
    A2        1.94201   0.07893   0.15992   0.00000   0.15992   2.10193
    A3        2.39672  -0.15760  -0.31899   0.00000  -0.31899   2.07774
    A4        1.94445   0.07867   0.15907   0.00000   0.15907   2.10352
    A5        1.94201   0.07893   0.15992   0.00000   0.15992   2.10193
    A6        2.39672  -0.15760  -0.31899   0.00000  -0.31899   2.07774
    D1        3.14159   0.00000   0.00000   0.00000   0.00000   3.14159
    D2        0.00000   0.00000   0.00000   0.00000   0.00000   0.00000
    D3       -0.00000  -0.00000   0.00000   0.00000   0.00000   0.00000
    D4        3.14159   0.00000   0.00000   0.00000   0.00000   3.14159
         Item               Value     Threshold  Converged?
 Maximum Force            0.157598     0.000450     NO 
 RMS     Force            0.090304     0.000300     NO 
 Maximum Displacement     0.329595     0.001800     NO 
 RMS     Displacement     0.147724     0.001200     NO 
 Predicted change in Energy=-1.346076D-01
 Lowest energy point so far.  Saving SCF results.
 GradGradGradGradGradGradGradGradGradGradGradGradGradGradGradGradGradGrad

 Leave Link  103 at Tue Nov 19 10:06:57 2024, MaxMem=   536870912 cpu:               0.0 elap:               0.0
 (Enter /home/szhao/Apps/g16/l202.exe)
                          Input orientation:                          
 ---------------------------------------------------------------------
 Center     Atomic      Atomic             Coordinates (Angstroms)
 Number     Number       Type             X           Y           Z
 ---------------------------------------------------------------------
      1          6           0       -0.324807    0.000000    0.000000
      2          6           0        0.324807    0.000000    0.000000
      3          1           0       -0.861340   -0.910027    0.000000
      4          1           0       -0.860909    0.912606    0.000000
      5          1           0        0.861340    0.910027   -0.000000
      6          1           0        0.860909   -0.912606   -0.000000
 ---------------------------------------------------------------------
                    Distance matrix (angstroms):
                    1          2          3          4          5
     1  C    0.000000
     2  C    0.649615   0.000000
     3  H    1.056417   1.495023   0.000000
     4  H    1.058420   1.496252   1.822633   0.000000
     5  H    1.495023   1.056417   2.506038   1.722251   0.000000
     6  H    1.496252   1.058420   1.722251   2.509193   1.822633
                    6
     6  H    0.000000
 Symmetry turned off by external request.
 Stoichiometry    C2H4
 Framework group  C2H[SGH(C2H4)]
 Deg. of freedom     5
 Full point group                 C2H     NOp   4
 Rotational constants (GHZ):         150.9501770          91.5317460          56.9804672
 Leave Link  202 at Tue Nov 19 10:06:57 2024, MaxMem=   536870912 cpu:               0.0 elap:               0.0
 (Enter /home/szhao/Apps/g16/l301.exe)
 Standard basis: 6-311+G(d,p) (5D, 7F)
 Ernie: Thresh=  0.10000D-02 Tol=  0.10000D-05 Strict=F.
    68 basis functions,   104 primitive gaussians,    70 cartesian basis functions
     8 alpha electrons        8 beta electrons
       nuclear repulsion energy        51.4450733609 Hartrees.
 IExCor= 4336 DFT=T Ex+Corr=M062X ExCW=0 ScaHFX=  0.540000
 ScaDFX=  1.000000  1.000000  1.000000  1.000000 ScalE2=  1.000000  1.000000
 IRadAn=      7 IRanWt=     -1 IRanGd=            0 ICorTp=0 IEmpDi=  4
 NAtoms=    6 NActive=    6 NUniq=    6 SFac= 1.00D+00 NAtFMM=   60 NAOKFM=F Big=F
 Integral buffers will be    131072 words long.
 Raffenetti 2 integral format.
 Two-electron integral symmetry is turned off.
 Leave Link  301 at Tue Nov 19 10:06:57 2024, MaxMem=   536870912 cpu:               0.3 elap:               0.0
 (Enter /home/szhao/Apps/g16/l302.exe)
 NPDir=0 NMtPBC=     1 NCelOv=     1 NCel=       1 NClECP=     1 NCelD=      1
         NCelK=      1 NCelE2=     1 NClLst=     1 CellRange=     0.0.
 One-electron integrals computed using PRISM.
 NBasis=    68 RedAO= T EigKep=  2.04D-06  NBF=    68
 NBsUse=    68 1.00D-06 EigRej= -1.00D+00 NBFU=    68
 Precomputing XC quadrature grid using
 IXCGrd= 4 IRadAn=           7 IRanWt=          -1 IRanGd=           0 AccXCQ= 0.00D+00.
 Generated NRdTot=       0 NPtTot=           0 NUsed=           0 NTot=          32
 NSgBfM=    70    70    70    70    70 MxSgAt=     6 MxSgA2=     6.
 Leave Link  302 at Tue Nov 19 10:06:57 2024, MaxMem=   536870912 cpu:               1.1 elap:               0.1
 (Enter /home/szhao/Apps/g16/l303.exe)
 DipDrv:  MaxL=1.
 Leave Link  303 at Tue Nov 19 10:06:57 2024, MaxMem=   536870912 cpu:               0.3 elap:               0.0
 (Enter /home/szhao/Apps/g16/l401.exe)
 Initial guess from the checkpoint file:  "opt.chk"
 B after Tr=     0.000000    0.000000   -0.000000
         Rot=    1.000000   -0.000000   -0.000000   -0.000302 Ang=  -0.03 deg.
 Guess basis will be translated and rotated to current coordinates.
 JPrj=2 DoOrth=T DoCkMO=T.
 Initial guess <Sx>= 0.0000 <Sy>= 0.0000 <Sz>= 0.0000 <S**2>=-0.0000 S=-0.0000
 Generating alternative initial guess.
 ExpMin= 4.38D-02 ExpMax= 4.56D+03 ExpMxC= 6.82D+02 IAcc=3 IRadAn=         5 AccDes= 0.00D+00
 Harris functional with IExCor= 1009 and IRadAn=       5 diagonalized for initial guess.
 HarFok:  IExCor= 1009 AccDes= 0.00D+00 IRadAn=         5 IDoV= 1 UseB2=F ITyADJ=14
 ICtDFT=  3500011 ScaDFX=  1.000000  1.000000  1.000000  1.000000
 FoFCou: FMM=F IPFlag=           0 FMFlag=      100000 FMFlg1=           0
         NFxFlg=           0 DoJE=T BraDBF=F KetDBF=T FulRan=T
         wScrn=  0.000000 ICntrl=       500 IOpCl=  0 I1Cent=   200000004 NGrid=           0
         NMat0=    1 NMatS0=      1 NMatT0=    0 NMatD0=    1 NMtDS0=    0 NMtDT0=    0
 Symmetry not used in FoFCou.
 Harris En= -76.8236146001860    
 Leave Link  401 at Tue Nov 19 10:06:57 2024, MaxMem=   536870912 cpu:               2.0 elap:               0.2
 (Enter /home/szhao/Apps/g16/l502.exe)
 Keep R1 and R2 ints in memory in canonical form, NReq=12681614.
 FoFCou: FMM=F IPFlag=           0 FMFlag=           0 FMFlg1=           0
         NFxFlg=           0 DoJE=F BraDBF=F KetDBF=F FulRan=T
         wScrn=  0.000000 ICntrl=       600 IOpCl=  0 I1Cent=           0 NGrid=           0
         NMat0=    1 NMatS0=   2346 NMatT0=    0 NMatD0=    1 NMtDS0=    0 NMtDT0=    0
 Symmetry not used in FoFCou.
 Two-electron integral symmetry not used.
 UHF open shell SCF:
 Using DIIS extrapolation, IDIIS=  1040.
 NGot=   536870912 LenX=   531353794 LenY=   531348453
 Requested convergence on RMS density matrix=1.00D-08 within 128 cycles.
 Requested convergence on MAX density matrix=1.00D-06.
 Requested convergence on             energy=1.00D-06.
 No special actions if energy rises.

 Cycle   1  Pass 1  IDiag  1:
 E= -76.0875518269137    
 DIIS: error= 1.56D-02 at cycle   1 NSaved=   1.
 NSaved= 1 IEnMin= 1 EnMin= -76.0875518269137     IErMin= 1 ErrMin= 1.56D-02
 ErrMax= 1.56D-02  0.00D+00 EMaxC= 1.00D-01 BMatC= 4.03D-02 BMatP= 4.03D-02
 IDIUse=3 WtCom= 8.44D-01 WtEn= 1.56D-01
 Coeff-Com:  0.100D+01
 Coeff-En:   0.100D+01
 Coeff:      0.100D+01
 Recover alternate guess density for next cycle.
 RMSDP=2.06D-02 MaxDP=2.85D-01              OVMax= 0.00D+00

 Cycle   2  Pass 1  IDiag  1:
 E= -75.1116245915342     Delta-E=        0.975927235380 Rises=F Damp=F
 Switch densities from cycles 1 and 2 for lowest energy.
 DIIS: error= 1.69D-01 at cycle   2 NSaved=   2.
 NSaved= 2 IEnMin= 1 EnMin= -76.0875518269137     IErMin= 1 ErrMin= 1.56D-02
 ErrMax= 1.69D-01  0.00D+00 EMaxC= 1.00D+00 BMatC= 5.41D+00 BMatP= 4.03D-02
 IDIUse=1 WtCom= 1.00D+00 WtEn= 0.00D+00
 Coeff-Com:  0.999D+00 0.142D-02
 Coeff:      0.999D+00 0.142D-02
 Gap=     0.313 Goal=   None    Shift=    0.000
 Gap=     0.313 Goal=   None    Shift=    0.000
 RMSDP=9.14D-03 MaxDP=1.48D-01 DE= 9.76D-01 OVMax= 2.63D-01

 Cycle   3  Pass 1  IDiag  1:
 E= -76.0961220594354     Delta-E=       -0.984497467901 Rises=F Damp=F
 DIIS: error= 1.62D-03 at cycle   3 NSaved=   3.
 NSaved= 3 IEnMin= 3 EnMin= -76.0961220594354     IErMin= 3 ErrMin= 1.62D-03
 ErrMax= 1.62D-03  0.00D+00 EMaxC= 1.00D+00 BMatC= 4.39D-04 BMatP= 4.03D-02
 IDIUse=1 WtCom= 1.00D+00 WtEn= 0.00D+00
 Coeff-Com: -0.827D-01-0.226D-02 0.108D+01
 Coeff:     -0.827D-01-0.226D-02 0.108D+01
 Gap=     0.293 Goal=   None    Shift=    0.000
 Gap=     0.293 Goal=   None    Shift=    0.000
 RMSDP=1.71D-03 MaxDP=3.40D-02 DE=-9.84D-01 OVMax= 5.01D-03

 Cycle   4  Pass 1  IDiag  1:
 E= -76.0962796675369     Delta-E=       -0.000157608102 Rises=F Damp=F
 DIIS: error= 3.28D-04 at cycle   4 NSaved=   4.
 NSaved= 4 IEnMin= 4 EnMin= -76.0962796675369     IErMin= 4 ErrMin= 3.28D-04
 ErrMax= 3.28D-04  0.00D+00 EMaxC= 1.00D+00 BMatC= 1.17D-05 BMatP= 4.39D-04
 IDIUse=1 WtCom= 1.00D+00 WtEn= 0.00D+00
 Coeff-Com:  0.863D-03 0.143D-02-0.791D-01 0.108D+01
 Coeff:      0.863D-03 0.143D-02-0.791D-01 0.108D+01
 Gap=     0.293 Goal=   None    Shift=    0.000
 Gap=     0.293 Goal=   None    Shift=    0.000
 RMSDP=1.88D-04 MaxDP=3.67D-03 DE=-1.58D-04 OVMax= 9.66D-04

 Cycle   5  Pass 1  IDiag  1:
 E= -76.0962835714735     Delta-E=       -0.000003903937 Rises=F Damp=F
 DIIS: error= 3.97D-05 at cycle   5 NSaved=   5.
 NSaved= 5 IEnMin= 5 EnMin= -76.0962835714735     IErMin= 5 ErrMin= 3.97D-05
 ErrMax= 3.97D-05  0.00D+00 EMaxC= 1.00D+00 BMatC= 2.12D-07 BMatP= 1.17D-05
 IDIUse=1 WtCom= 1.00D+00 WtEn= 0.00D+00
 Coeff-Com:  0.110D-02-0.134D-03-0.143D-01-0.172D-01 0.103D+01
 Coeff:      0.110D-02-0.134D-03-0.143D-01-0.172D-01 0.103D+01
 Gap=     0.293 Goal=   None    Shift=    0.000
 Gap=     0.293 Goal=   None    Shift=    0.000
 RMSDP=6.26D-05 MaxDP=1.90D-03 DE=-3.90D-06 OVMax= 1.98D-04

 Cycle   6  Pass 1  IDiag  1:
 E= -76.0962836616310     Delta-E=       -0.000000090158 Rises=F Damp=F
 DIIS: error= 8.53D-06 at cycle   6 NSaved=   6.
 NSaved= 6 IEnMin= 6 EnMin= -76.0962836616310     IErMin= 6 ErrMin= 8.53D-06
 ErrMax= 8.53D-06  0.00D+00 EMaxC= 1.00D+00 BMatC= 7.41D-09 BMatP= 2.12D-07
 IDIUse=1 WtCom= 1.00D+00 WtEn= 0.00D+00
 Coeff-Com: -0.935D-04 0.603D-05 0.240D-02-0.249D-01-0.589D-01 0.108D+01
 Coeff:     -0.935D-04 0.603D-05 0.240D-02-0.249D-01-0.589D-01 0.108D+01
 Gap=     0.293 Goal=   None    Shift=    0.000
 Gap=     0.293 Goal=   None    Shift=    0.000
 RMSDP=8.28D-06 MaxDP=2.45D-04 DE=-9.02D-08 OVMax= 3.22D-05

 Cycle   7  Pass 1  IDiag  1:
 E= -76.0962836643136     Delta-E=       -0.000000002683 Rises=F Damp=F
 DIIS: error= 4.25D-07 at cycle   7 NSaved=   7.
 NSaved= 7 IEnMin= 7 EnMin= -76.0962836643136     IErMin= 7 ErrMin= 4.25D-07
 ErrMax= 4.25D-07  0.00D+00 EMaxC= 1.00D+00 BMatC= 2.84D-11 BMatP= 7.41D-09
 IDIUse=1 WtCom= 1.00D+00 WtEn= 0.00D+00
 Coeff-Com: -0.113D-04 0.129D-05 0.111D-03 0.101D-02-0.748D-02-0.604D-01
 Coeff-Com:  0.107D+01
 Coeff:     -0.113D-04 0.129D-05 0.111D-03 0.101D-02-0.748D-02-0.604D-01
 Coeff:      0.107D+01
 Gap=     0.293 Goal=   None    Shift=    0.000
 Gap=     0.293 Goal=   None    Shift=    0.000
 RMSDP=6.15D-07 MaxDP=1.44D-05 DE=-2.68D-09 OVMax= 3.47D-06

 Cycle   8  Pass 1  IDiag  1:
 E= -76.0962836643318     Delta-E=       -0.000000000018 Rises=F Damp=F
 DIIS: error= 1.12D-07 at cycle   8 NSaved=   8.
 NSaved= 8 IEnMin= 8 EnMin= -76.0962836643318     IErMin= 8 ErrMin= 1.12D-07
 ErrMax= 1.12D-07  0.00D+00 EMaxC= 1.00D+00 BMatC= 1.30D-12 BMatP= 2.84D-11
 IDIUse=1 WtCom= 1.00D+00 WtEn= 0.00D+00
 Coeff-Com:  0.188D-05-0.150D-06-0.437D-04 0.265D-03 0.194D-02-0.163D-01
 Coeff-Com: -0.899D-01 0.110D+01
 Coeff:      0.188D-05-0.150D-06-0.437D-04 0.265D-03 0.194D-02-0.163D-01
 Coeff:     -0.899D-01 0.110D+01
 Gap=     0.293 Goal=   None    Shift=    0.000
 Gap=     0.293 Goal=   None    Shift=    0.000
 RMSDP=4.94D-08 MaxDP=7.47D-07 DE=-1.82D-11 OVMax= 5.03D-07

 Cycle   9  Pass 1  IDiag  1:
 E= -76.0962836643324     Delta-E=       -0.000000000001 Rises=F Damp=F
 DIIS: error= 1.13D-08 at cycle   9 NSaved=   9.
 NSaved= 9 IEnMin= 9 EnMin= -76.0962836643324     IErMin= 9 ErrMin= 1.13D-08
 ErrMax= 1.13D-08  0.00D+00 EMaxC= 1.00D+00 BMatC= 1.47D-14 BMatP= 1.30D-12
 IDIUse=1 WtCom= 1.00D+00 WtEn= 0.00D+00
 Coeff-Com:  0.262D-06-0.480D-08-0.217D-05-0.265D-04 0.120D-03 0.261D-02
 Coeff-Com: -0.201D-01-0.742D-01 0.109D+01
 Coeff:      0.262D-06-0.480D-08-0.217D-05-0.265D-04 0.120D-03 0.261D-02
 Coeff:     -0.201D-01-0.742D-01 0.109D+01
 Gap=     0.293 Goal=   None    Shift=    0.000
 Gap=     0.293 Goal=   None    Shift=    0.000
 RMSDP=1.44D-08 MaxDP=2.94D-07 DE=-5.97D-13 OVMax= 9.51D-08

 Cycle  10  Pass 1  IDiag  1:
 E= -76.0962836643325     Delta-E=       -0.000000000000 Rises=F Damp=F
 DIIS: error= 1.05D-09 at cycle  10 NSaved=  10.
 NSaved=10 IEnMin=10 EnMin= -76.0962836643325     IErMin=10 ErrMin= 1.05D-09
 ErrMax= 1.05D-09  0.00D+00 EMaxC= 1.00D+00 BMatC= 2.04D-16 BMatP= 1.47D-14
 IDIUse=1 WtCom= 1.00D+00 WtEn= 0.00D+00
 Coeff-Com: -0.327D-07 0.497D-08 0.467D-06-0.437D-07-0.291D-04-0.594D-04
 Coeff-Com:  0.213D-02-0.793D-02-0.722D-01 0.108D+01
 Coeff:     -0.327D-07 0.497D-08 0.467D-06-0.437D-07-0.291D-04-0.594D-04
 Coeff:      0.213D-02-0.793D-02-0.722D-01 0.108D+01
 Gap=     0.293 Goal=   None    Shift=    0.000
 Gap=     0.293 Goal=   None    Shift=    0.000
 RMSDP=2.24D-09 MaxDP=4.84D-08 DE=-1.14D-13 OVMax= 6.79D-09

 SCF Done:  E(UM062X) =  -76.0962836643     A.U. after   10 cycles
            NFock= 10  Conv=0.22D-08     -V/T= 1.8943
 <Sx>= 0.0000 <Sy>= 0.0000 <Sz>= 0.0000 <S**2>=-0.0000 S=-0.0000
 <L.S>=  0.00000000000    
 KE= 8.508699289941D+01 PE=-2.853179024548D+02 EE= 7.268955253012D+01
 Annihilation of the first spin contaminant:
 S**2 before annihilation    -0.0000,   after    -0.0000
 Leave Link  502 at Tue Nov 19 10:07:04 2024, MaxMem=   536870912 cpu:              49.8 elap:               6.3
 (Enter /home/szhao/Apps/g16/l701.exe)
 ... and contract with generalized density number  0.
 Compute integral first derivatives.
 Leave Link  701 at Tue Nov 19 10:07:04 2024, MaxMem=   536870912 cpu:               0.8 elap:               0.1
 (Enter /home/szhao/Apps/g16/l702.exe)
 L702 exits ... SP integral derivatives will be done elsewhere.
 Leave Link  702 at Tue Nov 19 10:07:04 2024, MaxMem=   536870912 cpu:               0.3 elap:               0.0
 (Enter /home/szhao/Apps/g16/l703.exe)
 Integral derivatives from FoFJK, PRISM(SPDF).
 Compute integral first derivatives, UseDBF=F ICtDFT=           0.
 Calling FoFJK, ICntrl=      2127 FMM=F ISym2X=0 I1Cent= 0 IOpClX= 1 NMat=1 NMatS=1 NMatT=0.
 FoFJK:  IHMeth= 1 ICntrl=    2127 DoSepK=F KAlg= 0 I1Cent=           0 FoldK=F
 IRaf=         0 NMat=       1 IRICut=       1 DoRegI=T DoRafI=F ISym2E= 0 IDoP0=0 IntGTp=1.
 FoFCou: FMM=F IPFlag=           0 FMFlag=      100000 FMFlg1=         800
         NFxFlg=           0 DoJE=F BraDBF=F KetDBF=F FulRan=T
         wScrn=  0.000000 ICntrl=      2127 IOpCl=  1 I1Cent=           0 NGrid=           0
         NMat0=    1 NMatS0=      1 NMatT0=    0 NMatD0=    1 NMtDS0=    0 NMtDT0=    0
 Symmetry not used in FoFCou.
 Leave Link  703 at Tue Nov 19 10:07:05 2024, MaxMem=   536870912 cpu:               9.9 elap:               1.2
 (Enter /home/szhao/Apps/g16/l716.exe)
 Dipole        =-2.34701147D-13 7.00994818D-13-2.44647294D-14
 -------------------------------------------------------------------
 Center     Atomic                   Forces (Hartrees/Bohr)
 Number     Number              X              Y              Z
 -------------------------------------------------------------------
      1        6          -0.000000000   -0.000000000   -0.000000000
      2        6          -0.000000000   -0.000000000   -0.000000000
      3        1          -0.077773311   -0.006365328   -0.000000000
      4        1          -0.077073005    0.005551911   -0.000000000
      5        1           0.077773311    0.006365328    0.000000000
      6        1           0.077073005   -0.005551911    0.000000000
 -------------------------------------------------------------------
 Cartesian Forces:  Max     0.077773311 RMS     0.036606431
 Leave Link  716 at Tue Nov 19 10:07:05 2024, MaxMem=   536870912 cpu:               0.3 elap:               0.0
 (Enter /home/szhao/Apps/g16/l103.exe)

 GradGradGradGradGradGradGradGradGradGradGradGradGradGradGradGradGradGrad
 Berny optimization.
 Using GEDIIS/GDIIS optimizer.
 FormGI is forming the generalized inverse of G from B-inverse, IUseBI=4.
 Internal  Forces:  Max     0.154846315 RMS     0.062229057
 Search for a local minimum.
 Step number   3 out of a maximum of   30
 All quantities printed in internal units (Hartrees-Bohrs-Radians)
 RMS Force = .45898D-01 SwitMx=.10000D-02 MixMth= 1
 Mixed Optimization -- RFO/linear search
 Update second derivatives using D2CorX and points    2    3
 The second derivative matrix:
                          X1        Y1        Z1        X2        Y2
           X1           0.74119
           Y1           0.00249   0.50003
           Z1          -0.00000  -0.00000   0.50000
           X2          -0.24119  -0.00249   0.00000   0.74119
           Y2          -0.00249  -0.00003   0.00000   0.00249   0.50003
           Z2           0.00000   0.00000  -0.00000  -0.00000  -0.00000
           R1          -0.08885  -0.00092   0.00000   0.08885   0.00092
           R2          -0.08654  -0.00089   0.00000   0.08654   0.00089
           R3          -0.08885  -0.00092   0.00000   0.08885   0.00092
           R4          -0.08654  -0.00089   0.00000   0.08654   0.00089
           A1          -0.05762  -0.00060   0.00000   0.05762   0.00060
           A2          -0.05803  -0.00060   0.00000   0.05803   0.00060
           A3           0.11564   0.00120  -0.00000  -0.11564  -0.00120
           A4          -0.05762  -0.00060   0.00000   0.05762   0.00060
           A5          -0.05803  -0.00060   0.00000   0.05803   0.00060
           A6           0.11564   0.00120  -0.00000  -0.11564  -0.00120
           D1          -0.00000  -0.00000   0.00000   0.00000   0.00000
           D2          -0.00000  -0.00000   0.00000   0.00000   0.00000
           D3           0.00000   0.00000  -0.00000  -0.00000  -0.00000
           D4          -0.00000  -0.00000   0.00000   0.00000   0.00000
                          Z2        R1        R2        R3        R4
           Z2           0.50000
[...]
           A2          -0.03939  -0.00028  -0.00000   0.03939   0.00028
           A3           0.07842   0.00055   0.00000  -0.07842  -0.00055
           A4          -0.03903  -0.00028  -0.00000   0.03903   0.00028
           A5          -0.03939  -0.00028  -0.00000   0.03939   0.00028
           A6           0.07842   0.00055   0.00000  -0.07842  -0.00055
           D1           0.00000   0.00000   0.00000  -0.00000  -0.00000
           D2          -0.00000   0.00000   0.00000   0.00000  -0.00000
           D3           0.00000  -0.00000  -0.00000  -0.00000   0.00000
           D4          -0.00000   0.00000   0.00000   0.00000  -0.00000
                          Z2        R1        R2        R3        R4
           Z2           0.50000
           R1          -0.00000   0.47175
           R2          -0.00000  -0.07572   0.46687
           R3          -0.00000  -0.07717  -0.07572   0.47175
           R4          -0.00000  -0.07572  -0.07431  -0.07572   0.46687
           A1           0.00000  -0.00293  -0.00254  -0.00293  -0.00254
           A2           0.00000  -0.00276  -0.00236  -0.00276  -0.00236
           A3          -0.00000   0.00569   0.00489   0.00569   0.00489
           A4           0.00000  -0.00293  -0.00254  -0.00293  -0.00254
           A5           0.00000  -0.00276  -0.00236  -0.00276  -0.00236
           A6          -0.00000   0.00569   0.00489   0.00569   0.00489
           D1          -0.00000   0.00000   0.00000   0.00000   0.00000
           D2          -0.00000   0.00000   0.00000   0.00000   0.00000
           D3           0.00000  -0.00000  -0.00000  -0.00000  -0.00000
           D4          -0.00000   0.00000   0.00000   0.00000   0.00000
                          A1        A2        A3        A4        A5
           A1           0.16086
           A2           0.00080   0.16073
           A3          -0.00166  -0.00153   0.16319
           A4           0.00086   0.00080  -0.00166   0.16086
           A5           0.00080   0.00073  -0.00153   0.00080   0.16073
           A6          -0.00166  -0.00153   0.00319  -0.00166  -0.00153
           D1          -0.00000  -0.00000   0.00000  -0.00000  -0.00000
           D2          -0.00000  -0.00000   0.00000  -0.00000  -0.00000
           D3           0.00000   0.00000  -0.00000   0.00000   0.00000
           D4          -0.00000  -0.00000   0.00000  -0.00000  -0.00000
                          A6        D1        D2        D3        D4
           A6           0.16319
           D1           0.00000   0.12015
           D2           0.00000   0.00000   0.12015
           D3          -0.00000  -0.00000  -0.00000   0.12015
           D4           0.00000   0.00000   0.00000  -0.00000   0.12015
 ITU=  1  1  0  0  1  0
 Use linear search instead of GDIIS.
     Eigenvalues ---    0.12015   0.12015   0.12015   0.15999   0.16000
     Eigenvalues ---    0.16000   0.16520   0.24650   0.54118   0.54501
     Eigenvalues ---    0.548921000.000001000.000001000.000001000.00000
     Eigenvalues --- 1000.000001000.000001000.000001000.000001000.00000
 RFO step:  Lambda=-3.84770597D-07 EMin= 1.20149166D-01
 Quartic linear search produced a step of  0.01229.
 Iteration  1 RMS(Cart)=  0.00044141 RMS(Int)=  0.00000010
 Iteration  2 RMS(Cart)=  0.00000010 RMS(Int)=  0.00000000
 ITry= 1 IFail=0 DXMaxC= 7.21D-04 DCOld= 1.00D+10 DXMaxT= 5.05D-01 DXLimC= 3.00D+00 Rises=F
 Variable       Old X    -DE/DX   Delta X   Delta X   Delta X     New X
                                 (Linear)    (Quad)   (Total)
    X1       -0.61380  -0.00013   0.00000   0.00000   0.00000  -0.61380
    Y1        0.00000  -0.00001   0.00000   0.00000   0.00000   0.00000
    Z1        0.00000   0.00000   0.00000   0.00000   0.00000   0.00000
    X2        0.61380   0.00013   0.00000   0.00000   0.00000   0.61380
    Y2        0.00000   0.00001   0.00000   0.00000   0.00000   0.00000
    Z2        0.00000  -0.00000   0.00000   0.00000   0.00000   0.00000
    R1        2.15609  -0.00001  -0.00019   0.00021   0.00002   2.15611
    R2        2.15611  -0.00001  -0.00019   0.00021   0.00002   2.15613
    R3        2.15609  -0.00001  -0.00019   0.00021   0.00002   2.15611
    R4        2.15611  -0.00001  -0.00019   0.00021   0.00002   2.15613
    A1        2.37286   0.00008   0.00003   0.00041   0.00044   2.37330
    A2        2.37280   0.00008   0.00004   0.00044   0.00047   2.37328
    A3        1.53752  -0.00016  -0.00007  -0.00085  -0.00091   1.53661
    A4        2.37286   0.00008   0.00003   0.00041   0.00044   2.37330
    A5        2.37280   0.00008   0.00004   0.00044   0.00047   2.37328
    A6        1.53752  -0.00016  -0.00007  -0.00085  -0.00091   1.53661
    D1        3.14159   0.00000   0.00000   0.00000   0.00000   3.14159
    D2       -0.00000   0.00000   0.00000   0.00000   0.00000   0.00000
    D3        0.00000  -0.00000   0.00000  -0.00000   0.00000   0.00000
    D4        3.14159   0.00000   0.00000   0.00000   0.00000   3.14159
         Item               Value     Threshold  Converged?
 Maximum Force            0.000155     0.000450     YES
 RMS     Force            0.000072     0.000300     YES
 Maximum Displacement     0.000721     0.001800     YES
 RMS     Displacement     0.000441     0.001200     YES
 Predicted change in Energy=-2.130819D-07
 Optimization completed.
    -- Stationary point found.
                           ----------------------------
                           !   Optimized Parameters   !
                           ! (Angstroms and Degrees)  !
 --------------------------                            --------------------------
 ! Name  Definition              Value          Derivative Info.                !
 --------------------------------------------------------------------------------
 ! X1    R(1,-1)                -0.3248         -DE/DX =   -0.0001              !
 ! Y1    R(1,-2)                 0.0            -DE/DX =    0.0                 !
 ! Z1    R(1,-3)                 0.0            -DE/DX =    0.0                 !
 ! X2    R(2,-1)                 0.3248         -DE/DX =    0.0001              !
 ! Y2    R(2,-2)                 0.0            -DE/DX =    0.0                 !
 ! Z2    R(2,-3)                 0.0            -DE/DX =    0.0                 !
 ! R1    R(1,3)                  1.141          -DE/DX =    0.0                 !
 ! R2    R(1,4)                  1.141          -DE/DX =    0.0                 !
 ! R3    R(2,5)                  1.141          -DE/DX =    0.0                 !
 ! R4    R(2,6)                  1.141          -DE/DX =    0.0                 !
 ! A1    A(2,1,3)              135.9548         -DE/DX =    0.0001              !
 ! A2    A(2,1,4)              135.9517         -DE/DX =    0.0001              !
 ! A3    A(3,1,4)               88.0935         -DE/DX =   -0.0002              !
 ! A4    A(1,2,5)              135.9548         -DE/DX =    0.0001              !
 ! A5    A(1,2,6)              135.9517         -DE/DX =    0.0001              !
 ! A6    A(5,2,6)               88.0935         -DE/DX =   -0.0002              !
 ! D1    D(3,1,2,5)            180.0            -DE/DX =    0.0                 !
 ! D2    D(3,1,2,6)              0.0            -DE/DX =    0.0                 !
 ! D3    D(4,1,2,5)              0.0            -DE/DX =    0.0                 !
 ! D4    D(4,1,2,6)            180.0            -DE/DX =    0.0                 !
 --------------------------------------------------------------------------------
 Lowest energy point so far.  Saving SCF results.
 Largest change from initial coordinates is atom    4       0.558 Angstoms.
 GradGradGradGradGradGradGradGradGradGradGradGradGradGradGradGradGradGrad

 Leave Link  103 at Tue Nov 19 10:07:28 2024, MaxMem=   536870912 cpu:               0.0 elap:               0.0
 (Enter /home/szhao/Apps/g16/l202.exe)
                          Input orientation:                          
 ---------------------------------------------------------------------
 Center     Atomic      Atomic             Coordinates (Angstroms)
 Number     Number       Type             X           Y           Z
 ---------------------------------------------------------------------
      1          6           0       -0.324807    0.000000    0.000000
      2          6           0        0.324807    0.000000    0.000000
      3          1           0       -1.144913   -0.793219   -0.000000
      4          1           0       -1.144881    0.793273   -0.000000
      5          1           0        1.144913    0.793219    0.000000
      6          1           0        1.144881   -0.793273    0.000000
 ---------------------------------------------------------------------
                    Distance matrix (angstroms):
                    1          2          3          4          5
     1  C    0.000000
     2  C    0.649615   0.000000
     3  H    1.140951   1.670112   0.000000
     4  H    1.140966   1.670110   1.586493   0.000000
     5  H    1.670112   1.140951   2.785693   2.289794   0.000000
     6  H    1.670110   1.140966   2.289794   2.785703   1.586493
                    6
     6  H    0.000000
 Symmetry turned off by external request.
 Stoichiometry    C2H4
 Framework group  C2H[SGH(C2H4)]
 Deg. of freedom     5
 Full point group                 C2H     NOp   4
 Rotational constants (GHZ):         199.2305604          64.6580610          48.8155255
 Leave Link  202 at Tue Nov 19 10:07:28 2024, MaxMem=   536870912 cpu:               0.0 elap:               0.0
 (Enter /home/szhao/Apps/g16/l601.exe)
 Copying SCF densities to generalized density rwf, IOpCl= 1 IROHF=0.

 **********************************************************************

            Population analysis using the SCF density.

 **********************************************************************

 Alpha  occ. eigenvalues --  -10.79195 -10.50331  -0.88333  -0.68916  -0.61119
 Alpha  occ. eigenvalues --   -0.60108  -0.47729  -0.24794
 Alpha virt. eigenvalues --    0.01465   0.02531   0.03987   0.05111   0.08172
 Alpha virt. eigenvalues --    0.09793   0.09803   0.12662   0.15802   0.18801
 Alpha virt. eigenvalues --    0.24629   0.27617   0.37912   0.41996   0.44675
 Alpha virt. eigenvalues --    0.44866   0.47442   0.51823   0.52533   0.64087
 Alpha virt. eigenvalues --    0.72156   0.75926   0.79072   0.85291   0.97785
 Alpha virt. eigenvalues --    1.02168   1.30187   1.30793   1.34531   1.47419
 Alpha virt. eigenvalues --    1.62949   1.69698   1.71689   1.76480   1.78223
 Alpha virt. eigenvalues --    1.81103   1.94051   2.02787   2.10290   2.29495
 Alpha virt. eigenvalues --    2.29712   2.44848   2.45385   2.46174   2.55305
 Alpha virt. eigenvalues --    2.56110   2.56196   2.64440   2.64666   2.65957
 Alpha virt. eigenvalues --    2.72076   3.34937   3.44124   3.46389   3.53659
 Alpha virt. eigenvalues --    3.58734   4.66676   6.04513  24.32593  25.54574
  Beta  occ. eigenvalues --  -10.79195 -10.50331  -0.88333  -0.68916  -0.61119
  Beta  occ. eigenvalues --   -0.60108  -0.47729  -0.24794
  Beta virt. eigenvalues --    0.01465   0.02531   0.03987   0.05111   0.08172
  Beta virt. eigenvalues --    0.09793   0.09803   0.12662   0.15802   0.18801
  Beta virt. eigenvalues --    0.24629   0.27617   0.37912   0.41996   0.44675
  Beta virt. eigenvalues --    0.44866   0.47442   0.51823   0.52533   0.64087
  Beta virt. eigenvalues --    0.72156   0.75926   0.79072   0.85291   0.97785
  Beta virt. eigenvalues --    1.02168   1.30187   1.30793   1.34531   1.47419
  Beta virt. eigenvalues --    1.62949   1.69698   1.71689   1.76480   1.78223
  Beta virt. eigenvalues --    1.81103   1.94051   2.02787   2.10290   2.29495
  Beta virt. eigenvalues --    2.29712   2.44848   2.45385   2.46174   2.55305
  Beta virt. eigenvalues --    2.56110   2.56196   2.64440   2.64666   2.65957
  Beta virt. eigenvalues --    2.72076   3.34937   3.44124   3.46389   3.53659
  Beta virt. eigenvalues --    3.58734   4.66676   6.04513  24.32593  25.54574
          Condensed to atoms (all electrons):
               1          2          3          4          5          6
     1  C    6.184173  -0.610271   0.354610   0.354616  -0.016713  -0.016745
     2  C   -0.610271   6.184173  -0.016713  -0.016745   0.354610   0.354616
     3  H    0.354610  -0.016713   0.669102  -0.101623   0.032139  -0.062357
     4  H    0.354616  -0.016745  -0.101623   0.669137  -0.062357   0.032144
     5  H   -0.016713   0.354610   0.032139  -0.062357   0.669102  -0.101623
     6  H   -0.016745   0.354616  -0.062357   0.032144  -0.101623   0.669137
          Atomic-Atomic Spin Densities.
               1          2          3          4          5          6
     1  C   -0.000000   0.000000   0.000000  -0.000000   0.000000  -0.000000
     2  C    0.000000  -0.000000  -0.000000   0.000000  -0.000000   0.000000
     3  H    0.000000  -0.000000  -0.000000  -0.000000   0.000000   0.000000
     4  H   -0.000000   0.000000  -0.000000   0.000000  -0.000000   0.000000
     5  H    0.000000  -0.000000   0.000000  -0.000000   0.000000  -0.000000
     6  H   -0.000000   0.000000   0.000000   0.000000  -0.000000  -0.000000
 Mulliken charges and spin densities:
               1          2
     1  C   -0.249670  -0.000000
     2  C   -0.249670   0.000000
     3  H    0.124841  -0.000000
     4  H    0.124829   0.000000
     5  H    0.124841   0.000000
     6  H    0.124829  -0.000000
 Sum of Mulliken charges =  -0.00000   0.00000
 Mulliken charges and spin densities with hydrogens summed into heavy atoms:
               1          2
     1  C   -0.000000  -0.000000
     2  C    0.000000   0.000000
 Electronic spatial extent (au):  <R**2>=             61.0317
 Charge=             -0.0000 electrons
 Dipole moment (field-independent basis, Debye):
    X=              0.0000    Y=              0.0000    Z=              0.0000  Tot=              0.0000
 Quadrupole moment (field-independent basis, Debye-Ang):
   XX=            -13.0096   YY=            -13.0602   ZZ=            -12.6656
   XY=              0.0002   XZ=              0.0000   YZ=              0.0000
 Traceless Quadrupole moment (field-independent basis, Debye-Ang):
   XX=             -0.0978   YY=             -0.1484   ZZ=              0.2462
   XY=              0.0002   XZ=              0.0000   YZ=              0.0000
 Octapole moment (field-independent basis, Debye-Ang**2):
  XXX=              0.0000  YYY=              0.0000  ZZZ=             -0.0000  XYY=              0.0000
  XXY=             -0.0000  XXZ=              0.0000  XZZ=              0.0000  YZZ=              0.0000
  YYZ=             -0.0000  XYZ=             -0.0000
 Hexadecapole moment (field-independent basis, Debye-Ang**3):
 XXXX=            -52.3721 YYYY=            -30.0930 ZZZZ=            -11.4903 XXXY=              0.0009
 XXXZ=             -0.0000 YYYX=              0.0007 YYYZ=              0.0000 ZZZX=             -0.0000
 ZZZY=              0.0000 XXYY=            -15.2035 XXZZ=            -10.9928 YYZZ=             -7.1380
 XXYZ=              0.0000 YYXZ=             -0.0000 ZZXY=              0.0002
 N-N= 4.957054648205D+01 E-N=-2.811634202852D+02  KE= 8.445047259170D+01
                          Isotropic Fermi Contact Couplings
        Atom                 a.u.       MegaHertz       Gauss      10(-4) cm-1
     1  C(13)              0.00000       0.00000       0.00000       0.00000
     2  C(13)             -0.00000      -0.00000      -0.00000      -0.00000
     3  H(1)              -0.00000      -0.00000      -0.00000      -0.00000
     4  H(1)               0.00000       0.00000       0.00000       0.00000
     5  H(1)               0.00000       0.00000       0.00000       0.00000
     6  H(1)              -0.00000      -0.00000      -0.00000      -0.00000
 --------------------------------------------------------
       Center         ----  Spin Dipole Couplings  ----
                      3XX-RR        3YY-RR        3ZZ-RR
 --------------------------------------------------------
     1   Atom        0.000000      0.000000     -0.000000
     2   Atom        0.000000     -0.000000      0.000000
     3   Atom       -0.000000      0.000000      0.000000
     4   Atom        0.000000     -0.000000     -0.000000
     5   Atom        0.000000     -0.000000     -0.000000
     6   Atom       -0.000000      0.000000      0.000000
 --------------------------------------------------------
                        XY            XZ            YZ
 --------------------------------------------------------
     1   Atom        0.000000     -0.000000      0.000000
     2   Atom       -0.000000      0.000000     -0.000000
     3   Atom       -0.000000      0.000000     -0.000000
     4   Atom       -0.000000     -0.000000      0.000000
     5   Atom        0.000000     -0.000000     -0.000000
     6   Atom        0.000000     -0.000000      0.000000
 --------------------------------------------------------


 ---------------------------------------------------------------------------------
              Anisotropic Spin Dipole Couplings in Principal Axis System
 ---------------------------------------------------------------------------------

       Atom             a.u.   MegaHertz   Gauss  10(-4) cm-1        Axes

              Baa    -0.0000    -0.000    -0.000    -0.000  0.7116 -0.7026  0.0005
     1 C(13)  Bbb    -0.0000    -0.000    -0.000    -0.000 -0.0003  0.0005  1.0000
              Bcc     0.0000     0.000     0.000     0.000  0.7026  0.7116 -0.0001
 
              Baa    -0.0000    -0.000    -0.000    -0.000  0.7012  0.7129 -0.0006
     2 C(13)  Bbb     0.0000     0.000     0.000     0.000 -0.0001  0.0009  1.0000
              Bcc     0.0000     0.000     0.000     0.000  0.7129 -0.7012  0.0008
 
              Baa    -0.0000    -0.000    -0.000    -0.000  0.8624  0.5062  0.0000
     3 H(1)   Bbb     0.0000     0.000     0.000     0.000 -0.5062  0.8624  0.0002
              Bcc     0.0000     0.000     0.000     0.000  0.0001 -0.0001  1.0000
 
              Baa    -0.0000    -0.000    -0.000    -0.000 -0.0000 -0.0001  1.0000
     4 H(1)   Bbb    -0.0000    -0.000    -0.000    -0.000  0.5075  0.8616  0.0001
              Bcc     0.0000     0.000     0.000     0.000  0.8616 -0.5075 -0.0000
 
              Baa    -0.0000    -0.000    -0.000    -0.000 -0.0001  0.0001  1.0000
     5 H(1)   Bbb    -0.0000    -0.000    -0.000    -0.000 -0.5069  0.8620 -0.0001
              Bcc     0.0000     0.000     0.000     0.000  0.8620  0.5069 -0.0000
 
              Baa    -0.0000    -0.000    -0.000    -0.000  0.8620 -0.5069  0.0000
     6 H(1)   Bbb     0.0000     0.000     0.000     0.000  0.5069  0.8620 -0.0001
              Bcc     0.0000     0.000     0.000     0.000  0.0000  0.0001  1.0000
 

 ---------------------------------------------------------------------------------

 No NMR shielding tensors so no spin-rotation constants.
 Leave Link  601 at Tue Nov 19 10:07:29 2024, MaxMem=   536870912 cpu:               1.3 elap:               0.2
 (Enter /home/szhao/Apps/g16/l9999.exe)
 1\1\GINC-NODE01\FOpt\UM062X\6-311+G(d,p)\C2H4\SZHAO\19-Nov-2024\0\\#p 
 opt UM062X/6-311+G** nosymm int=superfine\\Title Card Required\\0,1\C,
 -0.32480728,0.,0.\C,0.32480728,0.,0.\H,-1.1449128138,-0.7932191413,-0.
 0000000016\H,-1.1448813073,0.7932734554,-0.0000000015\H,1.1449128138,0
 .7932191413,0.0000000015\H,1.1448813073,-0.7932734554,0.0000000016\\Ve
 rsion=ES64L-G16RevA.03\HF=-76.1737366\S2=0.\S2-1=0.\S2A=0.\RMSD=7.757e
 -09\RMSF=5.116e-05\Dipole=0.,0.,0.\Quadrupole=-0.0726981,-0.1103334,0.
 1830315,0.0001303,0.,0.\PG=C02H [SGH(C2H4)]\\@


 FIREWORKS ENDED
 AND SPECTATORS GONE AWAY....
 AH, HOW VAST AND DARK
                     SHIKI
 Job cpu time:       0 days  0 hours  6 minutes 19.3 seconds.
 Elapsed time:       0 days  0 hours  0 minutes 48.1 seconds.
 File lengths (MBytes):  RWF=     10 Int=      0 D2E=      0 Chk=      2 Scr=      1
 Normal termination of Gaussian 16 at Tue Nov 19 10:07:29 2024.
