 Entering Gaussian System, Link 0=g16
 Initial command:
 /home/szhao/Apps/g16/l1.exe "/home/szhao/tmp/Gau-72181.inp" -scrdir="/home/szhao/tmp/"
 Default is to use a total of  16 processors:
                               16 via shared-memory
                                1 via Linda
 Entering Link 1 = /home/szhao/Apps/g16/l1.exe PID=     72215.
  
 Copyright (c) 1988,1990,1992,1993,1995,1998,2003,2009,2016,
            Gaussian, Inc.  All Rights Reserved.
  
 This is part of the Gaussian(R) 16 program.  It is based on
 the Gaussian(R) 09 system (copyright 2009, Gaussian, Inc.),
 the Gaussian(R) 03 system (copyright 2003, Gaussian, Inc.),
 the Gaussian(R) 98 system (copyright 1998, Gaussian, Inc.),
 the Gaussian(R) 94 system (copyright 1995, Gaussian, Inc.),
 the Gaussian 92(TM) system (copyright 1992, Gaussian, Inc.),
 the Gaussian 90(TM) system (copyright 1990, Gaussian, Inc.),
 the Gaussian 88(TM) system (copyright 1988, Gaussian, Inc.),
 the Gaussian 86(TM) system (copyright 1986, Carnegie Mellon
 University), and the Gaussian 82(TM) system (copyright 1983,
 Carnegie Mellon University). Gaussian is a federally registered
 trademark of Gaussian, Inc.
  
 This software contains proprietary and confidential information,
 including trade secrets, belonging to Gaussian, Inc.
  
 This software is provided under written license and may be
 used, copied, transmitted, or stored only in accord with that
 written license.
  
 The following legend is applicable only to US Government
 contracts under FAR:
  
                    RESTRICTED RIGHTS LEGEND
  
 Use, reproduction and disclosure by the US Government is
 subject to restrictions as set forth in subparagraphs (a)
 and (c) of the Commercial Computer Software - Restricted
 Rights clause in FAR 52.227-19.
  
 Gaussian, Inc.
 340 Quinnipiac St., Bldg. 40, Wallingford CT 06492
  
  
 ---------------------------------------------------------------
 Warning -- This program may not be used in any manner that
 competes with the business of Gaussian, Inc. or will provide
 assistance to any competitor of Gaussian, Inc.  The licensee
 of this program is prohibited from giving any competitor of
 Gaussian, Inc. access to this program.  By using this program,
 the user acknowledges that Gaussian, Inc. is engaged in the
 business of creating and licensing software in the field of
 computational chemistry and represents and warrants to the
 licensee that it is not a competitor of Gaussian, Inc. and that
 it will not use this program in any manner prohibited above.
 ---------------------------------------------------------------
  

 Cite this work as:
 Gaussian 16, Revision A.03,
 M. J. Frisch, G. W. Trucks, H. B. Schlegel, G. E. Scuseria, 
 M. A. Robb, J. R. Cheeseman, G. Scalmani, V. Barone, 
 G. A. Petersson, H. Nakatsuji, X. Li, M. Caricato, A. V. Marenich, 
 J. Bloino, B. G. Janesko, R. Gomperts, B. Mennucci, H. P. Hratchian, 
 J. V. Ortiz, A. F. Izmaylov, J. L. Sonnenberg, D. Williams-Young, 
 F. Ding, F. Lipparini, F. Egidi, J. Goings, B. Peng, A. Petrone, 
 T. Henderson, D. Ranasinghe, V. G. Zakrzewski, J. Gao, N. Rega, 
 G. Zheng, W. Liang, M. Hada, M. Ehara, K. Toyota, R. Fukuda, 
 J. Hasegawa, M. Ishida, T. Nakajima, Y. Honda, O. Kitao, H. Nakai, 
 T. Vreven, K. Throssell, J. A. Montgomery, Jr., J. E. Peralta, 
 F. Ogliaro, M. J. Bearpark, J. J. Heyd, E. N. Brothers, K. N. Kudin, 
 V. N. Staroverov, T. A. Keith, R. Kobayashi, J. Normand, 
 K. Raghavachari, A. P. Rendell, J. C. Burant, S. S. Iyengar, 
 J. Tomasi, M. Cossi, J. M. Millam, M. Klene, C. Adamo, R. Cammi, 
 J. W. Ochterski, R. L. Martin, K. Morokuma, O. Farkas, 
 J. B. Foresman, and D. J. Fox, Gaussian, Inc., Wallingford CT, 2016.
 
 ******************************************
 Gaussian 16:  ES64L-G16RevA.03 25-Dec-2016
                21-Apr-2025 
 ******************************************
 %chk=force.chk
 %mem=4GB
 %nprocshared=8
 Will use up to    8 processors via shared memory.
 ---------------------------------------------------
 #p UM062X/6-311+G** force int=superfine pop=saveNBO
 ---------------------------------------------------
 1/10=7,30=1,38=1/1,3;
 2/12=2,17=6,18=5,40=1/2;
 3/5=4,6=6,7=111,11=2,25=1,30=1,71=1,74=-55,75=-7,116=2/1,2,3;
 4//1;
 5/5=2,38=5/2;
 6/7=2,8=2,9=2,10=2,28=1,40=1,73=1/1,7;
 7/29=1/1,2,3,16;
 1/10=7,30=1/3;
 99//99;
 Leave Link    1 at Mon Apr 21 19:31:58 2025, MaxMem=   536870912 cpu:               3.0 elap:               0.5
 (Enter /home/szhao/Apps/g16/l101.exe)
 -------------------
 Title Card Required
 -------------------
 Symbolic Z-matrix:
 Charge =  0 Multiplicity = 1
 C                    -2.06108   0.        0. 
 O                     2.06108   0.        0. 
 
 ITRead=  0  0
 MicOpt= -1 -1
 NAtoms=      2 NQM=        2 NQMF=       0 NMMI=      0 NMMIF=      0
                NMic=       0 NMicF=      0.
                    Isotopes and Nuclear Properties:
 (Nuclear quadrupole moments (NQMom) in fm**2, nuclear magnetic moments (NMagM)
  in nuclear magnetons)

  Atom         1           2
 IAtWgt=          12          16
 AtmWgt=  12.0000000  15.9949146
 NucSpn=           0           0
 AtZEff=  -0.0000000  -0.0000000
 NQMom=    0.0000000   0.0000000
 NMagM=    0.0000000   0.0000000
 AtZNuc=   6.0000000   8.0000000
 Leave Link  101 at Mon Apr 21 19:31:59 2025, MaxMem=   536870912 cpu:               2.4 elap:               0.4
 (Enter /home/szhao/Apps/g16/l103.exe)

 GradGradGradGradGradGradGradGradGradGradGradGradGradGradGradGradGradGrad
 Berny optimization.
 Initialization pass.
 Trust Radius=3.00D-01 FncErr=1.00D-07 GrdErr=1.00D-07 EigMax=2.50D+02 EigMin=1.00D-04
 Number of steps in this run=      2 maximum allowed number of steps=      2.
 GradGradGradGradGradGradGradGradGradGradGradGradGradGradGradGradGradGrad

 Leave Link  103 at Mon Apr 21 19:32:00 2025, MaxMem=   536870912 cpu:               0.3 elap:               0.1
 (Enter /home/szhao/Apps/g16/l202.exe)
                          Input orientation:                          
 ---------------------------------------------------------------------
 Center     Atomic      Atomic             Coordinates (Angstroms)
 Number     Number       Type             X           Y           Z
 ---------------------------------------------------------------------
      1          6           0       -2.061082    0.000000    0.000000
      2          8           0        2.061082    0.000000    0.000000
 ---------------------------------------------------------------------
 Stoichiometry    CO
 Framework group  C*V[C*(CO)]
 Deg. of freedom     1
 Full point group                 C*V     NOp   4
 Largest Abelian subgroup         C2V     NOp   4
 Largest concise Abelian subgroup C1      NOp   1
                         Standard orientation:                         
 ---------------------------------------------------------------------
 Center     Atomic      Atomic             Coordinates (Angstroms)
 Number     Number       Type             X           Y           Z
 ---------------------------------------------------------------------
      1          6           0        0.000000    0.000000   -2.355522
      2          8           0        0.000000    0.000000    1.766642
 ---------------------------------------------------------------------
 Rotational constants (GHZ):           0.0000000           4.3379310           4.3379310
 Leave Link  202 at Mon Apr 21 19:32:01 2025, MaxMem=   536870912 cpu:               0.2 elap:               0.3
 (Enter /home/szhao/Apps/g16/l301.exe)
 Standard basis: 6-311+G(d,p) (5D, 7F)
 Ernie: Thresh=  0.10000D-02 Tol=  0.10000D-05 Strict=F.
 There are    24 symmetry adapted cartesian basis functions of A1  symmetry.
 There are     2 symmetry adapted cartesian basis functions of A2  symmetry.
 There are    10 symmetry adapted cartesian basis functions of B1  symmetry.
 There are    10 symmetry adapted cartesian basis functions of B2  symmetry.
 There are    22 symmetry adapted basis functions of A1  symmetry.
 There are     2 symmetry adapted basis functions of A2  symmetry.
 There are    10 symmetry adapted basis functions of B1  symmetry.
 There are    10 symmetry adapted basis functions of B2  symmetry.
    44 basis functions,    72 primitive gaussians,    46 cartesian basis functions
     7 alpha electrons        7 beta electrons
       nuclear repulsion energy         6.1619348779 Hartrees.
 IExCor= 4336 DFT=T Ex+Corr=M062X ExCW=0 ScaHFX=  0.540000
 ScaDFX=  1.000000  1.000000  1.000000  1.000000 ScalE2=  1.000000  1.000000
 IRadAn=      7 IRanWt=     -1 IRanGd=            0 ICorTp=0 IEmpDi=  4
 NAtoms=    2 NActive=    2 NUniq=    2 SFac= 1.00D+00 NAtFMM=   60 NAOKFM=F Big=F
 Integral buffers will be    131072 words long.
 Raffenetti 2 integral format.
 Two-electron integral symmetry is turned on.
 Leave Link  301 at Mon Apr 21 19:32:01 2025, MaxMem=   536870912 cpu:               1.3 elap:               0.3
 (Enter /home/szhao/Apps/g16/l302.exe)
 NPDir=0 NMtPBC=     1 NCelOv=     1 NCel=       1 NClECP=     1 NCelD=      1
         NCelK=      1 NCelE2=     1 NClLst=     1 CellRange=     0.0.
 One-electron integrals computed using PRISM.
 One-electron integral symmetry used in STVInt
 NBasis=    44 RedAO= T EigKep=  5.55D-02  NBF=    22     2    10    10
 NBsUse=    44 1.00D-06 EigRej= -1.00D+00 NBFU=    22     2    10    10
 Precomputing XC quadrature grid using
 IXCGrd= 4 IRadAn=           7 IRanWt=          -1 IRanGd=           0 AccXCQ= 0.00D+00.
 Generated NRdTot=       0 NPtTot=           0 NUsed=           0 NTot=          32
 NSgBfM=    46    46    46    46    46 MxSgAt=     2 MxSgA2=     2.
 Leave Link  302 at Mon Apr 21 19:32:02 2025, MaxMem=   536870912 cpu:               1.6 elap:               0.4
 (Enter /home/szhao/Apps/g16/l303.exe)
 DipDrv:  MaxL=1.
 Leave Link  303 at Mon Apr 21 19:32:02 2025, MaxMem=   536870912 cpu:               0.4 elap:               0.1
 (Enter /home/szhao/Apps/g16/l401.exe)
 ExpMin= 4.38D-02 ExpMax= 8.59D+03 ExpMxC= 1.30D+03 IAcc=3 IRadAn=         7 AccDes= 0.00D+00
 Harris functional with IExCor= 1009 and IRadAn=       7 diagonalized for initial guess.
 HarFok:  IExCor= 1009 AccDes= 0.00D+00 IRadAn=         7 IDoV= 1 UseB2=F ITyADJ=14
 ICtDFT=  3500011 ScaDFX=  1.000000  1.000000  1.000000  1.000000
 FoFCou: FMM=F IPFlag=           0 FMFlag=      100000 FMFlg1=           0
         NFxFlg=           0 DoJE=T BraDBF=F KetDBF=T FulRan=T
         wScrn=  0.000000 ICntrl=       500 IOpCl=  0 I1Cent=   200000004 NGrid=           0
         NMat0=    1 NMatS0=      1 NMatT0=    0 NMatD0=    1 NMtDS0=    0 NMtDT0=    0
 Petite list used in FoFCou.
 Harris En= -112.935866231439    
 JPrj=0 DoOrth=F DoCkMO=F.
 Initial guess orbital symmetries:
 Alpha Orbitals:
       Occupied  (SG) (SG) (SG) (SG) (SG) (PI) (PI)
       Virtual   (PI) (PI) (SG) (SG) (SG) (PI) (PI) (SG) (PI) (PI)
                 (SG) (PI) (PI) (SG) (SG) (PI) (PI) (SG) (SG) (DLTA)
                 (DLTA) (PI) (PI) (SG) (PI) (PI) (SG) (DLTA) (DLTA)
                 (PI) (PI) (SG) (PI) (PI) (SG) (SG) (SG)
 Beta  Orbitals:
       Occupied  (SG) (SG) (SG) (SG) (SG) (PI) (PI)
       Virtual   (PI) (PI) (SG) (SG) (SG) (PI) (PI) (SG) (PI) (PI)
                 (SG) (PI) (PI) (SG) (SG) (PI) (PI) (SG) (SG) (DLTA)
                 (DLTA) (PI) (PI) (SG) (PI) (PI) (SG) (DLTA) (DLTA)
                 (PI) (PI) (SG) (PI) (PI) (SG) (SG) (SG)
 The electronic state of the initial guess is 1-SG.
 Initial guess <Sx>= 0.0000 <Sy>= 0.0000 <Sz>= 0.0000 <S**2>= 0.0000 S= 0.0000
 Leave Link  401 at Mon Apr 21 19:32:03 2025, MaxMem=   536870912 cpu:               1.8 elap:               0.4
 (Enter /home/szhao/Apps/g16/l502.exe)
 Keep R1 and R2 ints in memory in symmetry-blocked form, NReq=7469717.
 FoFCou: FMM=F IPFlag=           0 FMFlag=           0 FMFlg1=           0
         NFxFlg=           0 DoJE=F BraDBF=F KetDBF=F FulRan=T
         wScrn=  0.000000 ICntrl=       600 IOpCl=  0 I1Cent=           0 NGrid=           0
         NMat0=    1 NMatS0=    990 NMatT0=    0 NMatD0=    1 NMtDS0=    0 NMtDT0=    0
 Petite list used in FoFCou.
 UHF open shell SCF:
 Using DIIS extrapolation, IDIIS=  1040.
 NGot=   536870912 LenX=   536591038 LenY=   536588481
 Requested convergence on RMS density matrix=1.00D-08 within 128 cycles.
 Requested convergence on MAX density matrix=1.00D-06.
 Requested convergence on             energy=1.00D-06.
 No special actions if energy rises.

 Cycle   1  Pass 1  IDiag  1:
 E= -111.266054426667    
 DIIS: error= 9.84D-02 at cycle   1 NSaved=   1.
 NSaved= 1 IEnMin= 1 EnMin= -111.266054426667     IErMin= 1 ErrMin= 9.84D-02
 ErrMax= 9.84D-02  0.00D+00 EMaxC= 1.00D-01 BMatC= 2.34D+00 BMatP= 2.34D+00
 IDIUse=3 WtCom= 1.64D-02 WtEn= 9.84D-01
 Coeff-Com:  0.100D+01
 Coeff-En:   0.100D+01
 Coeff:      0.100D+01
 Gap=    -0.641 Goal=   None    Shift=    0.000
 Gap=    -0.641 Goal=   None    Shift=    0.000
 GapD=   -0.641 DampG=0.250 DampE=0.500 DampFc=0.2500 IDamp=-1.
 Damping current iteration by 2.50D-01
 RMSDP=4.90D-02 MaxDP=8.99D-01              OVMax= 9.82D-01

 Cycle   2  Pass 1  IDiag  1:
 E= -111.888871806706     Delta-E=       -0.622817380039 Rises=F Damp=T
 DIIS: error= 1.93D-02 at cycle   2 NSaved=   2.
 NSaved= 2 IEnMin= 2 EnMin= -111.888871806706     IErMin= 2 ErrMin= 1.93D-02
 ErrMax= 1.93D-02  0.00D+00 EMaxC= 1.00D-01 BMatC= 1.10D-01 BMatP= 2.34D+00
 IDIUse=3 WtCom= 8.07D-01 WtEn= 1.93D-01
 Coeff-Com:  0.502D-01 0.950D+00
 Coeff-En:   0.326D+00 0.674D+00
 Coeff:      0.104D+00 0.896D+00
 Gap=     0.014 Goal=   None    Shift=    0.000
 Gap=     0.014 Goal=   None    Shift=    0.000
 RMSDP=1.16D-02 MaxDP=2.25D-01 DE=-6.23D-01 OVMax= 1.00D+00

 Cycle   3  Pass 1  IDiag  1:
 E= -111.419461605383     Delta-E=        0.469410201323 Rises=F Damp=F
 DIIS: error= 8.18D-02 at cycle   3 NSaved=   3.
 NSaved= 3 IEnMin= 2 EnMin= -111.888871806706     IErMin= 2 ErrMin= 1.93D-02
 ErrMax= 8.18D-02  0.00D+00 EMaxC= 1.00D-01 BMatC= 1.55D+00 BMatP= 1.10D-01
 IDIUse=2 WtCom= 0.00D+00 WtEn= 1.00D+00
 Coeff-En:   0.000D+00 0.644D+00 0.356D+00
 Coeff:      0.000D+00 0.644D+00 0.356D+00
 Gap=    -0.270 Goal=   None    Shift=    0.000
 Gap=    -0.270 Goal=   None    Shift=    0.000
 RMSDP=2.71D-02 MaxDP=2.51D-01 DE= 4.69D-01 OVMax= 1.00D+00

 Cycle   4  Pass 1  IDiag  1:
 E= -103.825456294087     Delta-E=        7.594005311296 Rises=F Damp=F
 DIIS: error= 1.81D-01 at cycle   4 NSaved=   4.
 NSaved= 4 IEnMin= 2 EnMin= -111.888871806706     IErMin= 2 ErrMin= 1.93D-02
 ErrMax= 1.81D-01  0.00D+00 EMaxC= 1.00D-01 BMatC= 8.91D+00 BMatP= 1.10D-01
 IDIUse=2 WtCom= 0.00D+00 WtEn= 1.00D+00
 Coeff-En:   0.000D+00 0.000D+00 0.740D+00 0.260D+00
 Coeff:      0.000D+00 0.000D+00 0.740D+00 0.260D+00
 Gap=     0.007 Goal=   None    Shift=    0.000
 Gap=     0.007 Goal=   None    Shift=    0.000
 RMSDP=1.11D-02 MaxDP=1.28D-01 DE= 7.59D+00 OVMax= 6.16D-01

 Cycle   5  Pass 1  IDiag  1:
 E= -107.680168268998     Delta-E=       -3.854711974911 Rises=F Damp=F
 DIIS: error= 5.79D-01 at cycle   5 NSaved=   5.
 NSaved= 5 IEnMin= 2 EnMin= -111.888871806706     IErMin= 2 ErrMin= 1.93D-02
 ErrMax= 5.79D-01  0.00D+00 EMaxC= 1.00D-01 BMatC= 1.50D+01 BMatP= 1.10D-01
 IDIUse=2 WtCom= 0.00D+00 WtEn= 1.00D+00
 Coeff-En:   0.000D+00 0.000D+00 0.677D+00 0.000D+00 0.323D+00
 Coeff:      0.000D+00 0.000D+00 0.677D+00 0.000D+00 0.323D+00
 Gap=     0.006 Goal=   None    Shift=    0.000
 Gap=     0.006 Goal=   None    Shift=    0.000
 RMSDP=1.29D-02 MaxDP=1.04D-01 DE=-3.85D+00 OVMax= 5.42D-01

 Cycle   6  Pass 1  IDiag  1:
 E= -112.253270248523     Delta-E=       -4.573101979525 Rises=F Damp=F
 DIIS: error= 1.75D-01 at cycle   6 NSaved=   6.
 NSaved= 6 IEnMin= 6 EnMin= -112.253270248523     IErMin= 2 ErrMin= 1.93D-02
 ErrMax= 1.75D-01  0.00D+00 EMaxC= 1.00D-01 BMatC= 1.88D+00 BMatP= 1.10D-01
 IDIUse=2 WtCom= 0.00D+00 WtEn= 1.00D+00
 Coeff-En:   0.000D+00 0.000D+00 0.345D+00 0.000D+00 0.000D+00 0.655D+00
 Coeff:      0.000D+00 0.000D+00 0.345D+00 0.000D+00 0.000D+00 0.655D+00
 Gap=     0.038 Goal=   None    Shift=    0.000
 Gap=     0.038 Goal=   None    Shift=    0.000
 RMSDP=9.38D-03 MaxDP=8.62D-02 DE=-4.57D+00 OVMax= 4.10D-01

 Cycle   7  Pass 1  IDiag  1:
 E= -112.291643583491     Delta-E=       -0.038373334968 Rises=F Damp=F
 DIIS: error= 1.38D-01 at cycle   7 NSaved=   7.
 NSaved= 7 IEnMin= 7 EnMin= -112.291643583491     IErMin= 2 ErrMin= 1.93D-02
 ErrMax= 1.38D-01  0.00D+00 EMaxC= 1.00D-01 BMatC= 1.17D+00 BMatP= 1.10D-01
 IDIUse=2 WtCom= 0.00D+00 WtEn= 1.00D+00
 Coeff-En:   0.000D+00 0.000D+00 0.000D+00 0.000D+00 0.000D+00 0.486D+00
 Coeff-En:   0.514D+00
 Coeff:      0.000D+00 0.000D+00 0.000D+00 0.000D+00 0.000D+00 0.486D+00
 Coeff:      0.514D+00
 Gap=     0.053 Goal=   None    Shift=    0.000
 Gap=     0.053 Goal=   None    Shift=    0.000
 RMSDP=5.74D-03 MaxDP=5.18D-02 DE=-3.84D-02 OVMax= 2.66D-01

 Cycle   8  Pass 1  IDiag  1:
 E= -112.620591114450     Delta-E=       -0.328947530959 Rises=F Damp=F
 DIIS: error= 2.13D-02 at cycle   8 NSaved=   8.
 NSaved= 8 IEnMin= 8 EnMin= -112.620591114450     IErMin= 2 ErrMin= 1.93D-02
 ErrMax= 2.13D-02  0.00D+00 EMaxC= 1.00D-01 BMatC= 2.85D-02 BMatP= 1.10D-01
 IDIUse=3 WtCom= 7.87D-01 WtEn= 2.13D-01
 Coeff-Com: -0.625D-02 0.171D-01 0.221D-01-0.178D-02 0.946D-02-0.130D+00
 Coeff-Com:  0.192D-01 0.107D+01
 Coeff-En:   0.000D+00 0.000D+00 0.000D+00 0.000D+00 0.000D+00 0.000D+00
 Coeff-En:   0.919D-01 0.908D+00
 Coeff:     -0.492D-02 0.135D-01 0.174D-01-0.140D-02 0.745D-02-0.102D+00
 Coeff:      0.347D-01 0.104D+01
 Gap=     0.067 Goal=   None    Shift=    0.000
 Gap=     0.067 Goal=   None    Shift=    0.000
 RMSDP=9.71D-04 MaxDP=1.13D-02 DE=-3.29D-01 OVMax= 6.08D-02

 Cycle   9  Pass 1  IDiag  1:
 E= -112.621039727872     Delta-E=       -0.000448613422 Rises=F Damp=F
 DIIS: error= 2.43D-02 at cycle   9 NSaved=   9.
 NSaved= 9 IEnMin= 9 EnMin= -112.621039727872     IErMin= 2 ErrMin= 1.93D-02
 ErrMax= 2.43D-02  0.00D+00 EMaxC= 1.00D-01 BMatC= 3.09D-02 BMatP= 2.85D-02
 IDIUse=3 WtCom= 7.87D-01 WtEn= 2.13D-01
 Coeff-Com: -0.703D-02 0.210D-01 0.139D-01-0.956D-02 0.272D-01-0.195D+00
 Coeff-Com:  0.531D-03 0.154D+00 0.995D+00
 Coeff-En:   0.000D+00 0.000D+00 0.000D+00 0.000D+00 0.000D+00 0.000D+00
 Coeff-En:   0.102D+00 0.000D+00 0.898D+00
 Coeff:     -0.554D-02 0.165D-01 0.109D-01-0.752D-02 0.214D-01-0.154D+00
 Coeff:      0.221D-01 0.122D+00 0.974D+00
 Gap=     0.069 Goal=   None    Shift=    0.000
 Gap=     0.069 Goal=   None    Shift=    0.000
 RMSDP=2.07D-03 MaxDP=1.96D-02 DE=-4.49D-04 OVMax= 9.33D-02

 Cycle  10  Pass 1  IDiag  1:
 E= -112.601363118342     Delta-E=        0.019676609530 Rises=F Damp=F
 DIIS: error= 4.68D-02 at cycle  10 NSaved=  10.
 NSaved=10 IEnMin= 9 EnMin= -112.621039727872     IErMin= 2 ErrMin= 1.93D-02
 ErrMax= 4.68D-02  0.00D+00 EMaxC= 1.00D-01 BMatC= 1.16D-01 BMatP= 2.85D-02
 IDIUse=2 WtCom= 0.00D+00 WtEn= 1.00D+00
 Coeff-En:   0.000D+00 0.000D+00 0.000D+00 0.000D+00 0.000D+00 0.000D+00
 Coeff-En:   0.000D+00 0.000D+00 0.671D+00 0.329D+00
 Coeff:      0.000D+00 0.000D+00 0.000D+00 0.000D+00 0.000D+00 0.000D+00
 Coeff:      0.000D+00 0.000D+00 0.671D+00 0.329D+00
 Gap=     0.069 Goal=   None    Shift=    0.000
 Gap=     0.069 Goal=   None    Shift=    0.000
 RMSDP=1.11D-03 MaxDP=1.04D-02 DE= 1.97D-02 OVMax= 5.14D-02

 Cycle  11  Pass 1  IDiag  1:
 E= -112.627074641360     Delta-E=       -0.025711523018 Rises=F Damp=F
 DIIS: error= 9.13D-03 at cycle  11 NSaved=  11.
 NSaved=11 IEnMin=11 EnMin= -112.627074641360     IErMin=11 ErrMin= 9.13D-03
 ErrMax= 9.13D-03  0.00D+00 EMaxC= 1.00D-01 BMatC= 4.20D-03 BMatP= 2.85D-02
 IDIUse=3 WtCom= 9.09D-01 WtEn= 9.13D-02
 Coeff-Com:  0.279D-03 0.395D-03 0.647D-04 0.568D-03-0.138D-02 0.124D-01
 Coeff-Com:  0.127D-02-0.158D+00 0.164D+00-0.177D+00 0.116D+01
 Coeff-En:   0.000D+00 0.000D+00 0.000D+00 0.000D+00 0.000D+00 0.000D+00
 Coeff-En:   0.000D+00 0.000D+00 0.253D+00 0.000D+00 0.747D+00
 Coeff:      0.253D-03 0.359D-03 0.588D-04 0.516D-03-0.126D-02 0.113D-01
 Coeff:      0.116D-02-0.143D+00 0.172D+00-0.161D+00 0.112D+01
 Gap=     0.069 Goal=   None    Shift=    0.000
 Gap=     0.069 Goal=   None    Shift=    0.000
 RMSDP=3.27D-04 MaxDP=2.96D-03 DE=-2.57D-02 OVMax= 1.43D-02

 Cycle  12  Pass 1  IDiag  1:
 E= -112.628045005377     Delta-E=       -0.000970364017 Rises=F Damp=F
 DIIS: error= 1.29D-03 at cycle  12 NSaved=  12.
 NSaved=12 IEnMin=12 EnMin= -112.628045005377     IErMin=12 ErrMin= 1.29D-03
 ErrMax= 1.29D-03  0.00D+00 EMaxC= 1.00D-01 BMatC= 8.89D-05 BMatP= 4.20D-03
 IDIUse=3 WtCom= 9.87D-01 WtEn= 1.29D-02
 Coeff-Com:  0.288D-03-0.844D-04-0.693D-03 0.112D-03-0.461D-03 0.436D-02
 Coeff-Com:  0.118D-02-0.321D-01-0.284D-02-0.708D-02 0.135D+00 0.902D+00
 Coeff-En:   0.000D+00 0.000D+00 0.000D+00 0.000D+00 0.000D+00 0.000D+00
 Coeff-En:   0.000D+00 0.000D+00 0.000D+00 0.000D+00 0.951D-01 0.905D+00
 Coeff:      0.285D-03-0.833D-04-0.684D-03 0.111D-03-0.455D-03 0.430D-02
 Coeff:      0.116D-02-0.316D-01-0.280D-02-0.699D-02 0.135D+00 0.902D+00
 Gap=     0.069 Goal=   None    Shift=    0.000
 Gap=     0.069 Goal=   None    Shift=    0.000
 RMSDP=4.40D-05 MaxDP=3.77D-04 DE=-9.70D-04 OVMax= 1.79D-03

 Cycle  13  Pass 1  IDiag  1:
 E= -112.628064752836     Delta-E=       -0.000019747459 Rises=F Damp=F
 DIIS: error= 1.33D-04 at cycle  13 NSaved=  13.
 NSaved=13 IEnMin=13 EnMin= -112.628064752836     IErMin=13 ErrMin= 1.33D-04
 ErrMax= 1.33D-04  0.00D+00 EMaxC= 1.00D-01 BMatC= 9.26D-07 BMatP= 8.89D-05
 IDIUse=3 WtCom= 9.99D-01 WtEn= 1.33D-03
 Coeff-Com: -0.226D-04-0.484D-04 0.556D-04 0.428D-05 0.144D-04-0.438D-03
 Coeff-Com: -0.135D-03 0.576D-02-0.356D-02 0.432D-02-0.391D-01 0.975D-03
 Coeff-Com:  0.103D+01
 Coeff-En:   0.000D+00 0.000D+00 0.000D+00 0.000D+00 0.000D+00 0.000D+00
 Coeff-En:   0.000D+00 0.000D+00 0.000D+00 0.000D+00 0.000D+00 0.573D-01
 Coeff-En:   0.943D+00
 Coeff:     -0.226D-04-0.483D-04 0.556D-04 0.427D-05 0.144D-04-0.437D-03
 Coeff:     -0.135D-03 0.575D-02-0.355D-02 0.432D-02-0.391D-01 0.105D-02
 Coeff:      0.103D+01
 Gap=     0.069 Goal=   None    Shift=    0.000
 Gap=     0.069 Goal=   None    Shift=    0.000
 RMSDP=6.61D-06 MaxDP=6.15D-05 DE=-1.97D-05 OVMax= 2.90D-04

 Cycle  14  Pass 1  IDiag  1:
 E= -112.628064885528     Delta-E=       -0.000000132692 Rises=F Damp=F
 DIIS: error= 8.41D-05 at cycle  14 NSaved=  14.
 NSaved=14 IEnMin=14 EnMin= -112.628064885528     IErMin=14 ErrMin= 8.41D-05
 ErrMax= 8.41D-05  0.00D+00 EMaxC= 1.00D-01 BMatC= 3.67D-07 BMatP= 9.26D-07
 IDIUse=1 WtCom= 1.00D+00 WtEn= 0.00D+00
 Coeff-Com: -0.648D-05-0.914D-06 0.296D-06-0.241D-07-0.214D-05 0.188D-04
 Coeff-Com: -0.129D-04 0.941D-04-0.101D-02 0.105D-02 0.179D-03-0.210D-01
 Coeff-Com: -0.470D-01 0.107D+01
 Coeff:     -0.648D-05-0.914D-06 0.296D-06-0.241D-07-0.214D-05 0.188D-04
 Coeff:     -0.129D-04 0.941D-04-0.101D-02 0.105D-02 0.179D-03-0.210D-01
 Coeff:     -0.470D-01 0.107D+01
 Gap=     0.069 Goal=   None    Shift=    0.000
 Gap=     0.069 Goal=   None    Shift=    0.000
 RMSDP=2.76D-06 MaxDP=2.50D-05 DE=-1.33D-07 OVMax= 1.20D-04

 Cycle  15  Pass 1  IDiag  1:
 E= -112.628064967454     Delta-E=       -0.000000081926 Rises=F Damp=F
 DIIS: error= 9.31D-06 at cycle  15 NSaved=  15.
 NSaved=15 IEnMin=15 EnMin= -112.628064967454     IErMin=15 ErrMin= 9.31D-06
 ErrMax= 9.31D-06  0.00D+00 EMaxC= 1.00D-01 BMatC= 4.59D-09 BMatP= 3.67D-07
 IDIUse=1 WtCom= 1.00D+00 WtEn= 0.00D+00
 Coeff-Com: -0.115D-05-0.968D-06-0.115D-05-0.615D-07 0.350D-06 0.140D-04
 Coeff-Com:  0.504D-04-0.150D-03 0.822D-04-0.758D-03 0.146D-02 0.332D-02
 Coeff-Com: -0.726D-02-0.133D+00 0.114D+01
 Coeff:     -0.115D-05-0.968D-06-0.115D-05-0.615D-07 0.350D-06 0.140D-04
 Coeff:      0.504D-04-0.150D-03 0.822D-04-0.758D-03 0.146D-02 0.332D-02
 Coeff:     -0.726D-02-0.133D+00 0.114D+01
 Gap=     0.069 Goal=   None    Shift=    0.000
 Gap=     0.069 Goal=   None    Shift=    0.000
 RMSDP=2.30D-07 MaxDP=2.13D-06 DE=-8.19D-08 OVMax= 1.05D-05

 Cycle  16  Pass 1  IDiag  1:
 E= -112.628064968442     Delta-E=       -0.000000000988 Rises=F Damp=F
 DIIS: error= 1.32D-06 at cycle  16 NSaved=  16.
 NSaved=16 IEnMin=16 EnMin= -112.628064968442     IErMin=16 ErrMin= 1.32D-06
 ErrMax= 1.32D-06  0.00D+00 EMaxC= 1.00D-01 BMatC= 9.19D-11 BMatP= 4.59D-09
 IDIUse=1 WtCom= 1.00D+00 WtEn= 0.00D+00
 Coeff-Com:  0.796D-07-0.333D-06-0.584D-07 0.897D-07-0.155D-06 0.272D-06
 Coeff-Com: -0.513D-06 0.235D-04-0.785D-04 0.329D-04-0.191D-03-0.393D-04
 Coeff-Com:  0.400D-03 0.126D-01-0.183D+00 0.117D+01
 Coeff:      0.796D-07-0.333D-06-0.584D-07 0.897D-07-0.155D-06 0.272D-06
 Coeff:     -0.513D-06 0.235D-04-0.785D-04 0.329D-04-0.191D-03-0.393D-04
 Coeff:      0.400D-03 0.126D-01-0.183D+00 0.117D+01
 Gap=     0.069 Goal=   None    Shift=    0.000
 Gap=     0.069 Goal=   None    Shift=    0.000
 RMSDP=6.23D-08 MaxDP=5.74D-07 DE=-9.88D-10 OVMax= 2.75D-06

 Cycle  17  Pass 1  IDiag  1:
 E= -112.628064968462     Delta-E=       -0.000000000020 Rises=F Damp=F
 DIIS: error= 4.75D-07 at cycle  17 NSaved=  17.
 NSaved=17 IEnMin=17 EnMin= -112.628064968462     IErMin=17 ErrMin= 4.75D-07
 ErrMax= 4.75D-07  0.00D+00 EMaxC= 1.00D-01 BMatC= 9.20D-12 BMatP= 9.19D-11
 IDIUse=1 WtCom= 1.00D+00 WtEn= 0.00D+00
 Coeff-Com:  0.606D-07-0.276D-06-0.545D-07 0.748D-07-0.131D-06 0.294D-06
 Coeff-Com: -0.311D-06 0.181D-04-0.621D-04 0.252D-04-0.147D-03-0.234D-04
 Coeff-Com:  0.321D-03 0.912D-02-0.140D+00 0.908D+00 0.224D+00
 Coeff:      0.606D-07-0.276D-06-0.545D-07 0.748D-07-0.131D-06 0.294D-06
 Coeff:     -0.311D-06 0.181D-04-0.621D-04 0.252D-04-0.147D-03-0.234D-04
 Coeff:      0.321D-03 0.912D-02-0.140D+00 0.908D+00 0.224D+00
 Gap=     0.069 Goal=   None    Shift=    0.000
 Gap=     0.069 Goal=   None    Shift=    0.000
 RMSDP=7.76D-09 MaxDP=1.03D-07 DE=-1.99D-11 OVMax= 5.00D-07

 SCF Done:  E(UM062X) =  -112.628064968     A.U. after   17 cycles
            NFock= 17  Conv=0.78D-08     -V/T= 2.0032
 <Sx>= 0.0000 <Sy>= 0.0000 <Sz>= 0.0000 <S**2>= 0.0000 S= 0.0000
 <L.S>=  0.00000000000    
 KE= 1.122743678067D+02 PE=-2.780875156736D+02 EE= 4.702314802050D+01
 Annihilation of the first spin contaminant:
 S**2 before annihilation     0.0000,   after     0.0000
 Leave Link  502 at Mon Apr 21 19:32:05 2025, MaxMem=   536870912 cpu:              12.8 elap:               2.1
 (Enter /home/szhao/Apps/g16/l601.exe)
 Copying SCF densities to generalized density rwf, IOpCl= 1 IROHF=0.

 **********************************************************************

            Population analysis using the SCF density.

 **********************************************************************

 Orbital symmetries:
 Alpha Orbitals:
       Occupied  (SG) (SG) (SG) (SG) (SG) (PI) (PI)
       Virtual   (PI) (PI) (SG) (SG) (PI) (PI) (SG) (SG) (PI) (PI)
                 (SG) (PI) (PI) (SG) (SG) (PI) (PI) (SG) (PI) (PI)
                 (SG) (DLTA) (DLTA) (SG) (PI) (PI) (SG) (DLTA)
                 (DLTA) (PI) (PI) (SG) (PI) (PI) (SG) (SG) (SG)
 Beta  Orbitals:
       Occupied  (SG) (SG) (SG) (SG) (SG) (PI) (PI)
       Virtual   (PI) (PI) (SG) (SG) (PI) (PI) (SG) (SG) (PI) (PI)
                 (SG) (PI) (PI) (SG) (SG) (PI) (PI) (SG) (PI) (PI)
                 (SG) (DLTA) (DLTA) (SG) (PI) (PI) (SG) (DLTA)
                 (DLTA) (PI) (PI) (SG) (PI) (PI) (SG) (SG) (SG)
 The electronic state is 1-SG.
 Alpha  occ. eigenvalues --  -19.69160 -10.82789  -0.99096  -0.72353  -0.37898
 Alpha  occ. eigenvalues --   -0.29747  -0.29747
 Alpha virt. eigenvalues --   -0.22808  -0.22808  -0.18233   0.02246   0.05841
 Alpha virt. eigenvalues --    0.05841   0.07048   0.18300   0.21141   0.21141
 Alpha virt. eigenvalues --    0.24698   0.50945   0.50945   0.51691   0.61021
 Alpha virt. eigenvalues --    1.08965   1.08965   1.11468   1.24257   1.24257
 Alpha virt. eigenvalues --    1.24258   1.25046   1.25047   1.35574   2.57387
 Alpha virt. eigenvalues --    2.57387   2.58691   2.87162   2.87162   2.90154
 Alpha virt. eigenvalues --    2.90154   2.90274   5.00275   5.00275   5.05886
 Alpha virt. eigenvalues --   23.08803  49.78048
  Beta  occ. eigenvalues --  -19.69160 -10.82789  -0.99096  -0.72353  -0.37898
  Beta  occ. eigenvalues --   -0.29747  -0.29747
  Beta virt. eigenvalues --   -0.22808  -0.22808  -0.18233   0.02246   0.05841
  Beta virt. eigenvalues --    0.05841   0.07048   0.18300   0.21141   0.21141
  Beta virt. eigenvalues --    0.24698   0.50945   0.50945   0.51691   0.61021
  Beta virt. eigenvalues --    1.08965   1.08965   1.11468   1.24257   1.24257
  Beta virt. eigenvalues --    1.24258   1.25046   1.25047   1.35574   2.57387
  Beta virt. eigenvalues --    2.57387   2.58691   2.87162   2.87162   2.90154
  Beta virt. eigenvalues --    2.90154   2.90274   5.00275   5.00275   5.05886
  Beta virt. eigenvalues --   23.08803  49.78048
          Condensed to atoms (all electrons):
               1          2
     1  C    5.697350   0.015780
     2  O    0.015780   8.271090
          Atomic-Atomic Spin Densities.
               1          2
     1  C   -0.000003  -0.000000
     2  O   -0.000000   0.000003
 Mulliken charges and spin densities:
               1          2
     1  C    0.286870  -0.000003
     2  O   -0.286870   0.000003
 Sum of Mulliken charges =  -0.00000   0.00000
 Mulliken charges and spin densities with hydrogens summed into heavy atoms:
               1          2
     1  C    0.286870  -0.000003
     2  O   -0.286870   0.000003
 Electronic spatial extent (au):  <R**2>=            232.1927
 Charge=             -0.0000 electrons
 Dipole moment (field-independent basis, Debye):
    X=              0.0000    Y=              0.0000    Z=             -5.6508  Tot=              5.6508
 Quadrupole moment (field-independent basis, Debye-Ang):
   XX=            -12.3642   YY=            -12.3642   ZZ=             -7.7483
   XY=              0.0000   XZ=              0.0000   YZ=              0.0000
 Traceless Quadrupole moment (field-independent basis, Debye-Ang):
   XX=             -1.5386   YY=             -1.5386   ZZ=              3.0773
   XY=              0.0000   XZ=              0.0000   YZ=              0.0000
 Octapole moment (field-independent basis, Debye-Ang**2):
  XXX=              0.0000  YYY=              0.0000  ZZZ=            -27.3334  XYY=              0.0000
  XXY=              0.0000  XXZ=              4.9205  XZZ=              0.0000  YZZ=              0.0000
  YYZ=              4.9205  XYZ=              0.0000
 Hexadecapole moment (field-independent basis, Debye-Ang**3):
 XXXX=            -15.3784 YYYY=            -15.3784 ZZZZ=           -260.7634 XXXY=              0.0000
 XXXZ=              0.0000 YYYX=              0.0000 YYYZ=              0.0000 ZZZX=              0.0000
 ZZZY=              0.0000 XXYY=             -5.1261 XXZZ=            -58.2935 YYZZ=            -58.2935
 XXYZ=              0.0000 YYXZ=              0.0000 ZZXY=              0.0000
 N-N= 6.161934877933D+00 E-N=-2.780875168588D+02  KE= 1.122743678067D+02
 Symmetry A1   KE= 1.050021780868D+02
 Symmetry A2   KE= 1.038464489260D-49
 Symmetry B1   KE= 3.636094888268D+00
 Symmetry B2   KE= 3.636094831567D+00
 Symmetry A1   SP=-3.408279125890D-15
 Symmetry A2   SP= 1.607840220694D-50
 Symmetry B1   SP=-2.115825434807D-15
 Symmetry B2   SP= 4.617053703057D-15
                          Isotropic Fermi Contact Couplings
        Atom                 a.u.       MegaHertz       Gauss      10(-4) cm-1
     1  C(13)             -0.00000      -0.00001      -0.00000      -0.00000
     2  O(17)              0.00000      -0.00001      -0.00000      -0.00000
 --------------------------------------------------------
       Center         ----  Spin Dipole Couplings  ----
                      3XX-RR        3YY-RR        3ZZ-RR
 --------------------------------------------------------
     1   Atom       -0.000000     -0.000001      0.000002
     2   Atom        0.000001      0.000004     -0.000005
 --------------------------------------------------------
                        XY            XZ            YZ
 --------------------------------------------------------
     1   Atom        0.000000      0.000000      0.000000
     2   Atom        0.000000      0.000000      0.000000
 --------------------------------------------------------


 ---------------------------------------------------------------------------------
              Anisotropic Spin Dipole Couplings in Principal Axis System
 ---------------------------------------------------------------------------------

       Atom             a.u.   MegaHertz   Gauss  10(-4) cm-1        Axes

              Baa    -0.0000    -0.000    -0.000    -0.000 -0.0000  1.0000  0.0000
     1 C(13)  Bbb    -0.0000    -0.000    -0.000    -0.000  1.0000  0.0000  0.0000
              Bcc     0.0000     0.000     0.000     0.000  0.0000  0.0000  1.0000
 
              Baa    -0.0000     0.000     0.000     0.000  0.0000  0.0000  1.0000
     2 O(17)  Bbb     0.0000    -0.000    -0.000    -0.000  1.0000  0.0000  0.0000
              Bcc     0.0000    -0.000    -0.000    -0.000 -0.0000  1.0000  0.0000
 

 ---------------------------------------------------------------------------------

 No NMR shielding tensors so no spin-rotation constants.
 Leave Link  601 at Mon Apr 21 19:32:06 2025, MaxMem=   536870912 cpu:               2.1 elap:               0.3
 (Enter /home/szhao/Apps/g16/l607.exe)
 ******************************Gaussian NBO Version 3.1******************************
             N A T U R A L   A T O M I C   O R B I T A L   A N D
          N A T U R A L   B O N D   O R B I T A L   A N A L Y S I S
 ******************************Gaussian NBO Version 3.1******************************
       /RESON  / : Allow strongly delocalized NBO set

 Analyzing the SCF density

 Job title: Title Card Required                                             

 Storage needed:      6104 in NPA,      7902 in NBO ( 536870884 available)
 GSVD:  LWork=        -648 too small for GESVD, short by        5510 words or        5510 for optimal perf.


 NATURAL POPULATIONS:  Natural atomic orbital occupancies 
                                                          
   NAO  Atom  No  lang   Type(AO)    Occupancy
 --------------------------------------------
     1    C    1  S      Cor( 1S)     2.00000
     2    C    1  S      Val( 2S)     1.99966
     3    C    1  S      Ryd( 3S)     0.00001
     4    C    1  S      Ryd( 4S)     0.00000
     5    C    1  S      Ryd( 5S)     0.00000
     6    C    1  px     Val( 2p)     0.85282
     7    C    1  px     Ryd( 3p)     0.00000
     8    C    1  px     Ryd( 5p)     0.00000
     9    C    1  px     Ryd( 4p)     0.00000
    10    C    1  py     Val( 2p)     0.85282
    11    C    1  py     Ryd( 3p)     0.00000
    12    C    1  py     Ryd( 5p)     0.00000
    13    C    1  py     Ryd( 4p)     0.00000
    14    C    1  pz     Val( 2p)     0.00192
    15    C    1  pz     Ryd( 3p)     0.00002
    16    C    1  pz     Ryd( 4p)     0.00001
    17    C    1  pz     Ryd( 5p)     0.00000
    18    C    1  dxy    Ryd( 3d)     0.00000
    19    C    1  dxz    Ryd( 3d)     0.00000
    20    C    1  dyz    Ryd( 3d)     0.00000
    21    C    1  dx2y2  Ryd( 3d)     0.00000
    22    C    1  dz2    Ryd( 3d)     0.00013
 
    23    O    2  S      Cor( 1S)     2.00000
    24    O    2  S      Val( 2S)     1.99982
    25    O    2  S      Ryd( 3S)     0.00012
    26    O    2  S      Ryd( 4S)     0.00000
    27    O    2  S      Ryd( 5S)     0.00000
    28    O    2  px     Val( 2p)     1.14686
    29    O    2  px     Ryd( 3p)     0.00032
    30    O    2  px     Ryd( 4p)     0.00000
    31    O    2  px     Ryd( 5p)     0.00000
    32    O    2  py     Val( 2p)     1.14686
    33    O    2  py     Ryd( 3p)     0.00032
    34    O    2  py     Ryd( 4p)     0.00000
    35    O    2  py     Ryd( 5p)     0.00000
    36    O    2  pz     Val( 2p)     1.99752
    37    O    2  pz     Ryd( 3p)     0.00073
    38    O    2  pz     Ryd( 4p)     0.00000
    39    O    2  pz     Ryd( 5p)     0.00000
    40    O    2  dxy    Ryd( 3d)     0.00000
    41    O    2  dxz    Ryd( 3d)     0.00000
    42    O    2  dyz    Ryd( 3d)     0.00000
    43    O    2  dx2y2  Ryd( 3d)     0.00000
    44    O    2  dz2    Ryd( 3d)     0.00006


 Summary of Natural Population Analysis:                  
                                                          
                                       Natural Population 
                Natural  -----------------------------------------------
    Atom  No    Charge         Core      Valence    Rydberg      Total
 -----------------------------------------------------------------------
      C    1    0.29261      2.00000     3.70721    0.00018     5.70739
      O    2   -0.29261      2.00000     6.29106    0.00155     8.29261
 =======================================================================
   * Total *   -0.00000      4.00000     9.99828    0.00172    14.00000

                                 Natural Population      
 --------------------------------------------------------
   Core                       4.00000 (100.0000% of   4)
   Valence                    9.99828 ( 99.9828% of  10)
   Natural Minimal Basis     13.99828 ( 99.9877% of  14)
   Natural Rydberg Basis      0.00172 (  0.0123% of  14)
 --------------------------------------------------------

    Atom  No          Natural Electron Configuration
 ----------------------------------------------------------------------------
      C    1      [core]2S( 2.00)2p( 1.71)
      O    2      [core]2S( 2.00)2p( 4.29)


 ***************************************************
 *******         Alpha spin orbitals         *******
 ***************************************************


 NATURAL POPULATIONS:  Natural atomic orbital occupancies 
                                                          
   NAO  Atom  No  lang   Type(AO)    Occupancy      Energy
 ----------------------------------------------------------
     1    C    1  S      Cor( 1S)     1.00000     -10.82782
     2    C    1  S      Val( 2S)     0.99983      -0.72340
     3    C    1  S      Ryd( 3S)     0.00001       0.08208
     4    C    1  S      Ryd( 4S)     0.00000       0.73271
     5    C    1  S      Ryd( 5S)     0.00000      22.92809
     6    C    1  px     Val( 2p)     0.42641      -0.25762
     7    C    1  px     Ryd( 3p)     0.00000       0.17398
     8    C    1  px     Ryd( 4p)     0.00000       0.69755
     9    C    1  px     Ryd( 5p)     0.00000       2.27278
    10    C    1  py     Val( 2p)     0.42641      -0.25762
    11    C    1  py     Ryd( 3p)     0.00000       0.17398
    12    C    1  py     Ryd( 4p)     0.00000       0.69755
    13    C    1  py     Ryd( 5p)     0.00000       2.27278
    14    C    1  pz     Val( 2p)     0.00096      -0.18195
    15    C    1  pz     Ryd( 3p)     0.00001       0.20117
    16    C    1  pz     Ryd( 4p)     0.00000       0.70595
    17    C    1  pz     Ryd( 5p)     0.00000       2.28102
    18    C    1  dxy    Ryd( 3d)     0.00000       1.25047
    19    C    1  dxz    Ryd( 3d)     0.00000       1.24215
    20    C    1  dyz    Ryd( 3d)     0.00000       1.24215
    21    C    1  dx2y2  Ryd( 3d)     0.00000       1.25046
    22    C    1  dz2    Ryd( 3d)     0.00007       1.23931
 
    23    O    2  S      Cor( 1S)     1.00000     -19.68157
    24    O    2  S      Val( 2S)     0.99991      -1.00079
    25    O    2  S      Ryd( 3S)     0.00006       0.19839
    26    O    2  S      Ryd( 4S)     0.00000       1.53950
    27    O    2  S      Ryd( 5S)     0.00000      49.56390
    28    O    2  px     Val( 2p)     0.57343      -0.26754
    29    O    2  px     Ryd( 3p)     0.00016       0.56256
    30    O    2  px     Ryd( 4p)     0.00000       0.84738
    31    O    2  px     Ryd( 5p)     0.00000       4.89137
    32    O    2  py     Val( 2p)     0.57343      -0.26754
    33    O    2  py     Ryd( 3p)     0.00016       0.56256
    34    O    2  py     Ryd( 4p)     0.00000       0.84738
    35    O    2  py     Ryd( 5p)     0.00000       4.89137
    36    O    2  pz     Val( 2p)     0.99876      -0.37847
    37    O    2  pz     Ryd( 3p)     0.00036       0.55999
    38    O    2  pz     Ryd( 4p)     0.00000       0.91988
    39    O    2  pz     Ryd( 5p)     0.00000       4.92449
    40    O    2  dxy    Ryd( 3d)     0.00000       2.87162
    41    O    2  dxz    Ryd( 3d)     0.00000       2.90148
    42    O    2  dyz    Ryd( 3d)     0.00000       2.90148
    43    O    2  dx2y2  Ryd( 3d)     0.00000       2.87162
    44    O    2  dz2    Ryd( 3d)     0.00003       2.90228

 WARNING:  Population inversion found on atom  C    1


 Summary of Natural Population Analysis:                  
                                                          
                                       Natural Population 
                Natural  -----------------------------------------------
    Atom  No    Charge         Core      Valence    Rydberg      Total
 -----------------------------------------------------------------------
      C    1    0.14631      1.00000     1.85361    0.00009     2.85369
      O    2   -0.14631      1.00000     3.14553    0.00077     4.14631
 =======================================================================
   * Total *   -0.00000      2.00000     4.99914    0.00086     7.00000

                                 Natural Population      
 --------------------------------------------------------
   Core                       2.00000 (100.0000% of   2)
   Valence                    4.99914 ( 99.9828% of   5)
   Natural Minimal Basis      6.99914 ( 99.9877% of   7)
   Natural Rydberg Basis      0.00086 (  0.0123% of   7)
 --------------------------------------------------------

    Atom  No          Natural Electron Configuration
 ----------------------------------------------------------------------------
      C    1      [core]2S( 1.00)2p( 0.85)
      O    2      [core]2S( 1.00)2p( 2.15)


 NATURAL BOND ORBITAL ANALYSIS, alpha spin orbitals:

                       Occupancies       Lewis Structure    Low   High
           Occ.    -------------------  -----------------   occ   occ
  Cycle   Thresh.   Lewis   Non-Lewis     CR  BD  3C  LP    (L)   (NL)   Dev
 =============================================================================
   1(1)    0.90     6.99911   0.00089      2   2   0   3     0      0    0.00
 -----------------------------------------------------------------------------

 Structure accepted: No low occupancy Lewis orbitals

 --------------------------------------------------------
   Core                      2.00000 (100.000% of   2)
   Valence Lewis             4.99911 ( 99.982% of   5)
  ==================       ============================
   Total Lewis               6.99911 ( 99.987% of   7)
  -----------------------------------------------------
   Valence non-Lewis         0.00087 (  0.012% of   7)
   Rydberg non-Lewis         0.00002 (  0.000% of   7)
  ==================       ============================
   Total non-Lewis           0.00089 (  0.013% of   7)
 --------------------------------------------------------


       (Occupancy)   Bond orbital/ Coefficients/ Hybrids
 ---------------------------------------------------------------------------------
     1. (1.00000) BD ( 1) C   1 - O   2  
                ( 42.64%)   0.6530* C   1 s(  0.00%)p 1.00(100.00%)d 0.00(  0.00%)
                                            0.0000  0.0000  0.0000  0.0000  0.0000
                                            1.0000  0.0000 -0.0000  0.0000  0.0000
                                            0.0000  0.0000  0.0000  0.0000  0.0000
                                            0.0000  0.0000  0.0000  0.0013  0.0000
                                            0.0000  0.0000
                ( 57.36%)   0.7574* O   2 s(  0.00%)p 1.00(100.00%)d 0.00(  0.00%)
                                            0.0000  0.0000  0.0000  0.0000  0.0000
                                            0.9999  0.0166 -0.0000  0.0000  0.0000
                                            0.0000  0.0000  0.0000  0.0000  0.0000
                                            0.0000  0.0000  0.0000 -0.0011  0.0000
                                            0.0000  0.0000
     2. (1.00000) BD ( 2) C   1 - O   2  
                ( 42.64%)   0.6530* C   1 s(  0.00%)p 1.00(100.00%)d 0.00(  0.00%)
                                            0.0000  0.0000  0.0000  0.0000  0.0000
                                            0.0000  0.0000  0.0000  0.0000  1.0000
                                            0.0000 -0.0000  0.0000  0.0000  0.0000
                                            0.0000  0.0000  0.0000  0.0000  0.0013
                                            0.0000  0.0000
                ( 57.36%)   0.7574* O   2 s(  0.00%)p 1.00(100.00%)d 0.00(  0.00%)
                                            0.0000  0.0000  0.0000  0.0000  0.0000
                                            0.0000  0.0000  0.0000  0.0000  0.9999
                                            0.0166 -0.0000  0.0000  0.0000  0.0000
                                            0.0000  0.0000  0.0000  0.0000 -0.0011
                                            0.0000  0.0000
     3. (1.00000) CR ( 1) C   1           s(100.00%)
                                            1.0000 -0.0000  0.0000 -0.0000 -0.0000
                                            0.0000  0.0000  0.0000  0.0000  0.0000
                                            0.0000  0.0000  0.0000  0.0000  0.0000
                                            0.0000 -0.0000  0.0000  0.0000  0.0000
                                           -0.0000 -0.0000
     4. (1.00000) CR ( 1) O   2           s(100.00%)
                                            1.0000  0.0000  0.0000  0.0000 -0.0000
                                            0.0000  0.0000  0.0000  0.0000  0.0000
                                            0.0000  0.0000  0.0000 -0.0000  0.0000
                                           -0.0000  0.0000  0.0000  0.0000  0.0000
                                           -0.0000  0.0000
     5. (1.00000) LP ( 1) C   1           s( 99.98%)p 0.00(  0.01%)d 0.00(  0.01%)
                                            0.0000  0.9999 -0.0000  0.0000  0.0000
                                            0.0000  0.0000  0.0000  0.0000  0.0000
                                            0.0000  0.0000  0.0000 -0.0098 -0.0005
                                           -0.0015  0.0008  0.0000  0.0000  0.0000
                                            0.0000  0.0081
     6. (0.00087) LP*( 2) C   1           s(  0.11%)p99.99( 99.88%)d 0.03(  0.00%)
                                           -0.0000 -0.0098 -0.0040  0.0321  0.0010
                                           -0.0000 -0.0000 -0.0000 -0.0000 -0.0000
                                           -0.0000 -0.0000 -0.0000 -0.9987  0.0350
                                            0.0050  0.0162 -0.0000 -0.0000 -0.0000
                                           -0.0000  0.0060
     7. (0.99998) LP ( 1) O   2           s( 94.70%)p 0.06(  5.29%)d 0.00(  0.00%)
                                            0.0000  0.9732 -0.0017 -0.0000  0.0000
                                            0.0000  0.0000  0.0000  0.0000  0.0000
                                            0.0000  0.0000  0.0000  0.2300 -0.0047
                                           -0.0005  0.0002  0.0000  0.0000  0.0000
                                           -0.0000 -0.0055
     8. (0.99913) LP ( 2) O   2           s(  5.30%)p17.87( 94.70%)d 0.00(  0.00%)
                                           -0.0000  0.2301  0.0073  0.0001 -0.0000
                                           -0.0000 -0.0000 -0.0000 -0.0000 -0.0000
                                           -0.0000 -0.0000 -0.0000 -0.9730  0.0185
                                           -0.0001  0.0001 -0.0000 -0.0000 -0.0000
                                           -0.0000 -0.0004
     9. (0.00000) RY*( 1) C   1           s( 99.90%)p 0.00(  0.10%)
    10. (0.00000) RY*( 2) C   1           s(100.00%)p 0.00(  0.00%)
    11. (0.00000) RY*( 3) C   1           s(  0.00%)p 1.00(100.00%)
    12. (0.00000) RY*( 4) C   1           s(  0.00%)p 1.00(100.00%)
    13. (0.00000) RY*( 5) C   1           s(  0.00%)p 1.00(100.00%)
    14. (0.00000) RY*( 6) C   1           s(  0.00%)p 1.00(100.00%)
    15. (0.00000) RY*( 7) C   1           s(  0.00%)p 1.00(100.00%)
    16. (0.00000) RY*( 8) C   1           s(  0.00%)p 1.00(100.00%)
    17. (0.00001) RY*( 9) C   1           s(100.00%)p 0.00(  0.00%)
    18. (0.00001) RY*(10) C   1           s(  0.00%)p 1.00(100.00%)
    19. (0.00000) RY*(11) C   1           s(  0.00%)p 1.00(100.00%)
    20. (0.00000) RY*(12) C   1           s(  0.00%)p 1.00(100.00%)
    21. (0.00000) RY*(13) C   1           s(  0.00%)p 0.00(  0.00%)d 1.00(100.00%)
    22. (0.00000) RY*(14) C   1           s(  0.00%)p 0.00(  0.00%)d 1.00(100.00%)
    23. (0.00000) RY*(15) C   1           s(  0.00%)p 0.00(  0.00%)d 1.00(100.00%)
    24. (0.00000) RY*(16) C   1           s(  0.00%)p 0.00(  0.00%)d 1.00(100.00%)
    25. (0.00000) RY*(17) C   1           s(  0.01%)p 0.00(  0.00%)d 1.00( 99.99%)
    26. (0.00000) RY*( 1) O   2           s( 99.99%)p 0.00(  0.01%)
    27. (0.00000) RY*( 2) O   2           s(100.00%)
    28. (0.00000) RY*( 3) O   2           s(100.00%)
    29. (0.00000) RY*( 4) O   2           s(  0.00%)p 1.00(100.00%)
    30. (0.00000) RY*( 5) O   2           s(  0.00%)p 1.00(100.00%)
    31. (0.00000) RY*( 6) O   2           s(  0.00%)p 1.00(100.00%)
    32. (0.00000) RY*( 7) O   2           s(  0.00%)p 1.00(100.00%)
    33. (0.00000) RY*( 8) O   2           s(  0.00%)p 1.00(100.00%)
    34. (0.00000) RY*( 9) O   2           s(  0.00%)p 1.00(100.00%)
    35. (0.00000) RY*(10) O   2           s(  0.00%)p 1.00(100.00%)
    36. (0.00000) RY*(11) O   2           s(  0.00%)p 1.00(100.00%)
    37. (0.00000) RY*(12) O   2           s(  0.00%)p 1.00(100.00%)
    38. (0.00000) RY*(13) O   2           s(  0.00%)p 0.00(  0.00%)d 1.00(100.00%)
    39. (0.00000) RY*(14) O   2           s(  0.00%)p 0.00(  0.00%)d 1.00(100.00%)
    40. (0.00000) RY*(15) O   2           s(  0.00%)p 0.00(  0.00%)d 1.00(100.00%)
    41. (0.00000) RY*(16) O   2           s(  0.00%)p 0.00(  0.00%)d 1.00(100.00%)
    42. (0.00000) RY*(17) O   2           s(  0.00%)p 0.00(  0.00%)d 1.00(100.00%)
    43. (0.00000) BD*( 1) C   1 - O   2  
                ( 57.36%)   0.7574* C   1 s(  0.00%)p 1.00(100.00%)d 0.00(  0.00%)
                ( 42.64%)  -0.6530* O   2 s(  0.00%)p 1.00(100.00%)d 0.00(  0.00%)
    44. (0.00000) BD*( 2) C   1 - O   2  
                ( 57.36%)   0.7574* C   1 s(  0.00%)p 1.00(100.00%)d 0.00(  0.00%)
                ( 42.64%)  -0.6530* O   2 s(  0.00%)p 1.00(100.00%)d 0.00(  0.00%)


 NHO Directionality and "Bond Bending" (deviations from line of nuclear centers)

         [Thresholds for printing:  angular deviation  >  1.0 degree]
                                    hybrid p-character > 25.0%
                                    orbital occupancy  >  0.10e

                                Line of Centers        Hybrid 1              Hybrid 2
                                ---------------  -------------------   ------------------
                NBO               Theta   Phi    Theta   Phi    Dev    Theta   Phi    Dev
 ========================================================================================
     1. BD (   1) C   1 - O   2     0.0    0.0    90.0    0.0  90.0     90.0    0.0  90.0
     2. BD (   2) C   1 - O   2     0.0    0.0    90.0   90.0  90.0     90.0   90.0  90.0
     8. LP (   2) O   2             --     --    180.0    0.0   --       --     --    --


 Second Order Perturbation Theory Analysis of Fock Matrix in NBO Basis

     Threshold for printing:   0.25 kcal/mol
                                                                              E(2)  E(j)-E(i) F(i,j)
         Donor NBO (i)                     Acceptor NBO (j)                 kcal/mol   a.u.    a.u. 
 ===================================================================================================

 within unit  1
       None above threshold


 Natural Bond Orbitals (Summary):

                                                            Principal Delocalizations
           NBO                        Occupancy    Energy   (geminal,vicinal,remote)
 ====================================================================================
 Molecular unit  1  (CO)
     1. BD (   1) C   1 - O   2          1.00000    -0.29747   
     2. BD (   2) C   1 - O   2          1.00000    -0.29747   
     3. CR (   1) C   1                  1.00000   -10.82782   
     4. CR (   1) O   2                  1.00000   -19.68158   
     5. LP (   1) C   1                  1.00000    -0.72358   
     6. LP*(   2) C   1                  0.00087    -0.18000   
     7. LP (   1) O   2                  0.99998    -0.96668   
     8. LP (   2) O   2                  0.99913    -0.41307   
     9. RY*(   1) C   1                  0.00000     0.73157   
    10. RY*(   2) C   1                  0.00000    22.92820   
    11. RY*(   3) C   1                  0.00000     0.17398   
    12. RY*(   4) C   1                  0.00000     0.69755   
    13. RY*(   5) C   1                  0.00000     2.27278   
    14. RY*(   6) C   1                  0.00000     0.17398   
    15. RY*(   7) C   1                  0.00000     0.69755   
    16. RY*(   8) C   1                  0.00000     2.27278   
    17. RY*(   9) C   1                  0.00001     0.08207   
    18. RY*(  10) C   1                  0.00001     0.20019   
    19. RY*(  11) C   1                  0.00000     0.70600   
    20. RY*(  12) C   1                  0.00000     2.28113   
    21. RY*(  13) C   1                  0.00000     1.25047   
    22. RY*(  14) C   1                  0.00000     1.24215   
    23. RY*(  15) C   1                  0.00000     1.24215   
    24. RY*(  16) C   1                  0.00000     1.25046   
    25. RY*(  17) C   1                  0.00000     1.23940   
    26. RY*(   1) O   2                  0.00000     0.19843   
    27. RY*(   2) O   2                  0.00000     1.53950   
    28. RY*(   3) O   2                  0.00000    49.56390   
    29. RY*(   4) O   2                  0.00000     0.56286   
    30. RY*(   5) O   2                  0.00000     0.84738   
    31. RY*(   6) O   2                  0.00000     4.89137   
    32. RY*(   7) O   2                  0.00000     0.56286   
    33. RY*(   8) O   2                  0.00000     0.84738   
    34. RY*(   9) O   2                  0.00000     4.89137   
    35. RY*(  10) O   2                  0.00000     0.56032   
    36. RY*(  11) O   2                  0.00000     0.91988   
    37. RY*(  12) O   2                  0.00000     4.92449   
    38. RY*(  13) O   2                  0.00000     2.87162   
    39. RY*(  14) O   2                  0.00000     2.90148   
    40. RY*(  15) O   2                  0.00000     2.90148   
    41. RY*(  16) O   2                  0.00000     2.87162   
    42. RY*(  17) O   2                  0.00000     2.90240   
    43. BD*(   1) C   1 - O   2          0.00000    -0.22798   
    44. BD*(   2) C   1 - O   2          0.00000    -0.22798   
       -------------------------------
              Total Lewis    6.99911  ( 99.9874%)
        Valence non-Lewis    0.00087  (  0.0124%)
        Rydberg non-Lewis    0.00002  (  0.0003%)
       -------------------------------
            Total unit  1    7.00000  (100.0000%)
           Charge unit  1    0.00000
 Sorting of NBOs:                    4    3    7    5    8    2    1   44   43    6
 Sorting of NBOs:                   17   14   11   26   18   35   32   29   15   12
 Sorting of NBOs:                   19    9   30   33   36   25   22   23   24   21
 Sorting of NBOs:                   27   13   16   20   38   41   40   39   42   34
 Sorting of NBOs:                   31   37   10   28
 Reordering of NBOs for storage:     4    3    7    5    8    2    1   44   43    6
 Reordering of NBOs for storage:    17   14   11   26   18   35   32   29   15   12
 Reordering of NBOs for storage:    19    9   30   33   36   25   22   23   24   21
 Reordering of NBOs for storage:    27   13   16   20   38   41   40   39   42   34
 Reordering of NBOs for storage:    31   37   10   28
 Labels of output orbitals:  CR  CR  LP  LP  LP  BD  BD  BD* BD* LP* RY* RY* RY* RY* RY* RY* RY* RY* RY* RY* 
 Labels of output orbitals:  RY* RY* RY* RY* RY* RY* RY* RY* RY* RY* RY* RY* RY* RY* RY* RY* RY* RY* RY* RY* 
 Labels of output orbitals:  RY* RY* RY* RY* 
 GSVD:  LWork=       -1665 too small for GESVD, short by        7400 words or        7400 for optimal perf.


 ***************************************************
 *******         Beta  spin orbitals         *******
 ***************************************************


 NATURAL POPULATIONS:  Natural atomic orbital occupancies 
                                                          
   NAO  Atom  No  lang   Type(AO)    Occupancy      Energy
 ----------------------------------------------------------
     1    C    1  S      Cor( 1S)     1.00000     -10.82782
     2    C    1  S      Val( 2S)     0.99983      -0.72340
     3    C    1  S      Ryd( 3S)     0.00001       0.08208
     4    C    1  S      Ryd( 4S)     0.00000       0.73271
     5    C    1  S      Ryd( 5S)     0.00000      22.92809
     6    C    1  px     Val( 2p)     0.42641      -0.25762
     7    C    1  px     Ryd( 3p)     0.00000       0.17398
     8    C    1  px     Ryd( 4p)     0.00000       0.69755
     9    C    1  px     Ryd( 5p)     0.00000       2.27278
    10    C    1  py     Val( 2p)     0.42641      -0.25762
    11    C    1  py     Ryd( 3p)     0.00000       0.17398
    12    C    1  py     Ryd( 4p)     0.00000       0.69755
    13    C    1  py     Ryd( 5p)     0.00000       2.27278
    14    C    1  pz     Val( 2p)     0.00096      -0.18195
    15    C    1  pz     Ryd( 3p)     0.00001       0.20117
    16    C    1  pz     Ryd( 4p)     0.00000       0.70595
    17    C    1  pz     Ryd( 5p)     0.00000       2.28102
    18    C    1  dxy    Ryd( 3d)     0.00000       1.25047
    19    C    1  dxz    Ryd( 3d)     0.00000       1.24215
    20    C    1  dyz    Ryd( 3d)     0.00000       1.24215
    21    C    1  dx2y2  Ryd( 3d)     0.00000       1.25046
    22    C    1  dz2    Ryd( 3d)     0.00007       1.23931
 
    23    O    2  S      Cor( 1S)     1.00000     -19.68157
    24    O    2  S      Val( 2S)     0.99991      -1.00079
    25    O    2  S      Ryd( 3S)     0.00006       0.19839
    26    O    2  S      Ryd( 4S)     0.00000       1.53950
    27    O    2  S      Ryd( 5S)     0.00000      49.56390
    28    O    2  px     Val( 2p)     0.57343      -0.26754
    29    O    2  px     Ryd( 3p)     0.00016       0.56256
    30    O    2  px     Ryd( 4p)     0.00000       0.84738
    31    O    2  px     Ryd( 5p)     0.00000       4.89137
    32    O    2  py     Val( 2p)     0.57343      -0.26754
    33    O    2  py     Ryd( 3p)     0.00016       0.56256
    34    O    2  py     Ryd( 4p)     0.00000       0.84738
    35    O    2  py     Ryd( 5p)     0.00000       4.89137
    36    O    2  pz     Val( 2p)     0.99876      -0.37847
    37    O    2  pz     Ryd( 3p)     0.00036       0.55999
    38    O    2  pz     Ryd( 4p)     0.00000       0.91988
    39    O    2  pz     Ryd( 5p)     0.00000       4.92449
    40    O    2  dxy    Ryd( 3d)     0.00000       2.87162
    41    O    2  dxz    Ryd( 3d)     0.00000       2.90148
    42    O    2  dyz    Ryd( 3d)     0.00000       2.90148
    43    O    2  dx2y2  Ryd( 3d)     0.00000       2.87162
    44    O    2  dz2    Ryd( 3d)     0.00003       2.90228

 WARNING:  Population inversion found on atom  C    1


 Summary of Natural Population Analysis:                  
                                                          
                                       Natural Population 
                Natural  -----------------------------------------------
    Atom  No    Charge         Core      Valence    Rydberg      Total
 -----------------------------------------------------------------------
      C    1    0.14630      1.00000     1.85361    0.00009     2.85370
      O    2   -0.14630      1.00000     3.14553    0.00077     4.14630
 =======================================================================
   * Total *   -0.00000      2.00000     4.99914    0.00086     7.00000

                                 Natural Population      
 --------------------------------------------------------
   Core                       2.00000 (100.0000% of   2)
   Valence                    4.99914 ( 99.9828% of   5)
   Natural Minimal Basis      6.99914 ( 99.9877% of   7)
   Natural Rydberg Basis      0.00086 (  0.0123% of   7)
 --------------------------------------------------------

    Atom  No          Natural Electron Configuration
 ----------------------------------------------------------------------------
      C    1      [core]2S( 1.00)2p( 0.85)
      O    2      [core]2S( 1.00)2p( 2.15)


 NATURAL BOND ORBITAL ANALYSIS, beta spin orbitals:

                       Occupancies       Lewis Structure    Low   High
           Occ.    -------------------  -----------------   occ   occ
  Cycle   Thresh.   Lewis   Non-Lewis     CR  BD  3C  LP    (L)   (NL)   Dev
 =============================================================================
   1(1)    0.90     6.99911   0.00089      2   2   0   3     0      0    0.00
 -----------------------------------------------------------------------------

 Structure accepted: No low occupancy Lewis orbitals

 --------------------------------------------------------
   Core                      2.00000 (100.000% of   2)
   Valence Lewis             4.99911 ( 99.982% of   5)
  ==================       ============================
   Total Lewis               6.99911 ( 99.987% of   7)
  -----------------------------------------------------
   Valence non-Lewis         0.00087 (  0.012% of   7)
   Rydberg non-Lewis         0.00002 (  0.000% of   7)
  ==================       ============================
   Total non-Lewis           0.00089 (  0.013% of   7)
 --------------------------------------------------------


       (Occupancy)   Bond orbital/ Coefficients/ Hybrids
 ---------------------------------------------------------------------------------
     1. (1.00000) BD ( 1) C   1 - O   2  
                ( 42.64%)   0.6530* C   1 s(  0.00%)p 1.00(100.00%)d 0.00(  0.00%)
                                            0.0000  0.0000  0.0000  0.0000  0.0000
                                            1.0000  0.0000 -0.0000  0.0000  0.0000
                                            0.0000  0.0000  0.0000  0.0000  0.0000
                                            0.0000  0.0000  0.0000  0.0013  0.0000
                                            0.0000  0.0000
                ( 57.36%)   0.7574* O   2 s(  0.00%)p 1.00(100.00%)d 0.00(  0.00%)
                                            0.0000  0.0000  0.0000  0.0000  0.0000
                                            0.9999  0.0166 -0.0000  0.0000  0.0000
                                            0.0000  0.0000  0.0000  0.0000  0.0000
                                            0.0000  0.0000  0.0000 -0.0011  0.0000
                                            0.0000  0.0000
     2. (1.00000) BD ( 2) C   1 - O   2  
                ( 42.64%)   0.6530* C   1 s(  0.00%)p 1.00(100.00%)d 0.00(  0.00%)
                                            0.0000  0.0000  0.0000  0.0000  0.0000
                                            0.0000  0.0000  0.0000  0.0000  1.0000
                                            0.0000 -0.0000  0.0000  0.0000  0.0000
                                            0.0000  0.0000  0.0000  0.0000  0.0013
                                            0.0000  0.0000
                ( 57.36%)   0.7574* O   2 s(  0.00%)p 1.00(100.00%)d 0.00(  0.00%)
                                            0.0000  0.0000  0.0000  0.0000  0.0000
                                            0.0000  0.0000  0.0000  0.0000  0.9999
                                            0.0166 -0.0000  0.0000  0.0000  0.0000
                                            0.0000  0.0000  0.0000  0.0000 -0.0011
                                            0.0000  0.0000
     3. (1.00000) CR ( 1) C   1           s(100.00%)
                                            1.0000 -0.0000  0.0000 -0.0000 -0.0000
                                            0.0000  0.0000  0.0000  0.0000  0.0000
                                            0.0000  0.0000  0.0000  0.0000  0.0000
                                            0.0000 -0.0000  0.0000  0.0000  0.0000
                                            0.0000 -0.0000
     4. (1.00000) CR ( 1) O   2           s(100.00%)
                                            1.0000  0.0000  0.0000  0.0000 -0.0000
                                            0.0000  0.0000  0.0000  0.0000  0.0000
                                            0.0000  0.0000  0.0000 -0.0000  0.0000
                                           -0.0000  0.0000  0.0000  0.0000  0.0000
                                            0.0000  0.0000
     5. (1.00000) LP ( 1) C   1           s( 99.98%)p 0.00(  0.01%)d 0.00(  0.01%)
                                            0.0000  0.9999 -0.0000  0.0000  0.0000
                                            0.0000  0.0000  0.0000  0.0000  0.0000
                                            0.0000  0.0000  0.0000 -0.0098 -0.0005
                                           -0.0015  0.0008  0.0000  0.0000  0.0000
                                           -0.0000  0.0081
     6. (0.00087) LP*( 2) C   1           s(  0.11%)p99.99( 99.88%)d 0.03(  0.00%)
                                           -0.0000 -0.0098 -0.0040  0.0321  0.0010
                                           -0.0000 -0.0000 -0.0000 -0.0000 -0.0000
                                           -0.0000 -0.0000 -0.0000 -0.9987  0.0350
                                            0.0050  0.0162 -0.0000 -0.0000 -0.0000
                                            0.0000  0.0060
     7. (0.99998) LP ( 1) O   2           s( 94.70%)p 0.06(  5.29%)d 0.00(  0.00%)
                                            0.0000  0.9732 -0.0017 -0.0000  0.0000
                                            0.0000  0.0000  0.0000  0.0000  0.0000
                                            0.0000  0.0000  0.0000  0.2300 -0.0047
                                           -0.0005  0.0002  0.0000  0.0000  0.0000
                                            0.0000 -0.0055
     8. (0.99913) LP ( 2) O   2           s(  5.30%)p17.87( 94.70%)d 0.00(  0.00%)
                                           -0.0000  0.2301  0.0073  0.0001 -0.0000
                                           -0.0000 -0.0000 -0.0000 -0.0000 -0.0000
                                           -0.0000 -0.0000 -0.0000 -0.9730  0.0185
                                           -0.0001  0.0001 -0.0000 -0.0000 -0.0000
                                            0.0000 -0.0004
     9. (0.00000) RY*( 1) C   1           s( 99.90%)p 0.00(  0.10%)
    10. (0.00000) RY*( 2) C   1           s(100.00%)p 0.00(  0.00%)
    11. (0.00000) RY*( 3) C   1           s(  0.00%)p 1.00(100.00%)
    12. (0.00000) RY*( 4) C   1           s(  0.00%)p 1.00(100.00%)
    13. (0.00000) RY*( 5) C   1           s(  0.00%)p 1.00(100.00%)
    14. (0.00000) RY*( 6) C   1           s(  0.00%)p 1.00(100.00%)
    15. (0.00000) RY*( 7) C   1           s(  0.00%)p 1.00(100.00%)
    16. (0.00000) RY*( 8) C   1           s(  0.00%)p 1.00(100.00%)
    17. (0.00001) RY*( 9) C   1           s(100.00%)p 0.00(  0.00%)
    18. (0.00001) RY*(10) C   1           s(  0.00%)p 1.00(100.00%)
    19. (0.00000) RY*(11) C   1           s(  0.00%)p 1.00(100.00%)
    20. (0.00000) RY*(12) C   1           s(  0.00%)p 1.00(100.00%)
    21. (0.00000) RY*(13) C   1           s(  0.00%)p 0.00(  0.00%)d 1.00(100.00%)
    22. (0.00000) RY*(14) C   1           s(  0.00%)p 0.00(  0.00%)d 1.00(100.00%)
    23. (0.00000) RY*(15) C   1           s(  0.00%)p 0.00(  0.00%)d 1.00(100.00%)
    24. (0.00000) RY*(16) C   1           s(  0.00%)p 0.00(  0.00%)d 1.00(100.00%)
    25. (0.00000) RY*(17) C   1           s(  0.01%)p 0.00(  0.00%)d 1.00( 99.99%)
    26. (0.00000) RY*( 1) O   2           s( 99.99%)p 0.00(  0.01%)
    27. (0.00000) RY*( 2) O   2           s(100.00%)
    28. (0.00000) RY*( 3) O   2           s(100.00%)
    29. (0.00000) RY*( 4) O   2           s(  0.00%)p 1.00(100.00%)
    30. (0.00000) RY*( 5) O   2           s(  0.00%)p 1.00(100.00%)
    31. (0.00000) RY*( 6) O   2           s(  0.00%)p 1.00(100.00%)
    32. (0.00000) RY*( 7) O   2           s(  0.00%)p 1.00(100.00%)
    33. (0.00000) RY*( 8) O   2           s(  0.00%)p 1.00(100.00%)
    34. (0.00000) RY*( 9) O   2           s(  0.00%)p 1.00(100.00%)
    35. (0.00000) RY*(10) O   2           s(  0.00%)p 1.00(100.00%)
    36. (0.00000) RY*(11) O   2           s(  0.00%)p 1.00(100.00%)
    37. (0.00000) RY*(12) O   2           s(  0.00%)p 1.00(100.00%)
    38. (0.00000) RY*(13) O   2           s(  0.00%)p 0.00(  0.00%)d 1.00(100.00%)
    39. (0.00000) RY*(14) O   2           s(  0.00%)p 0.00(  0.00%)d 1.00(100.00%)
    40. (0.00000) RY*(15) O   2           s(  0.00%)p 0.00(  0.00%)d 1.00(100.00%)
    41. (0.00000) RY*(16) O   2           s(  0.00%)p 0.00(  0.00%)d 1.00(100.00%)
    42. (0.00000) RY*(17) O   2           s(  0.00%)p 0.00(  0.00%)d 1.00(100.00%)
    43. (0.00000) BD*( 1) C   1 - O   2  
                ( 57.36%)   0.7574* C   1 s(  0.00%)p 1.00(100.00%)d 0.00(  0.00%)
                ( 42.64%)  -0.6530* O   2 s(  0.00%)p 1.00(100.00%)d 0.00(  0.00%)
    44. (0.00000) BD*( 2) C   1 - O   2  
                ( 57.36%)   0.7574* C   1 s(  0.00%)p 1.00(100.00%)d 0.00(  0.00%)
                ( 42.64%)  -0.6530* O   2 s(  0.00%)p 1.00(100.00%)d 0.00(  0.00%)


 NHO Directionality and "Bond Bending" (deviations from line of nuclear centers)

         [Thresholds for printing:  angular deviation  >  1.0 degree]
                                    hybrid p-character > 25.0%
                                    orbital occupancy  >  0.10e

                                Line of Centers        Hybrid 1              Hybrid 2
                                ---------------  -------------------   ------------------
                NBO               Theta   Phi    Theta   Phi    Dev    Theta   Phi    Dev
 ========================================================================================
     1. BD (   1) C   1 - O   2     0.0    0.0    90.0    0.0  90.0     90.0    0.0  90.0
     2. BD (   2) C   1 - O   2     0.0    0.0    90.0   90.0  90.0     90.0   90.0  90.0
     8. LP (   2) O   2             --     --    180.0    0.0   --       --     --    --


 Second Order Perturbation Theory Analysis of Fock Matrix in NBO Basis

     Threshold for printing:   0.25 kcal/mol
                                                                              E(2)  E(j)-E(i) F(i,j)
         Donor NBO (i)                     Acceptor NBO (j)                 kcal/mol   a.u.    a.u. 
 ===================================================================================================

 within unit  1
       None above threshold


 Natural Bond Orbitals (Summary):

                                                            Principal Delocalizations
           NBO                        Occupancy    Energy   (geminal,vicinal,remote)
 ====================================================================================
 Molecular unit  1  (CO)
     1. BD (   1) C   1 - O   2          1.00000    -0.29747   
     2. BD (   2) C   1 - O   2          1.00000    -0.29747   
     3. CR (   1) C   1                  1.00000   -10.82782   
     4. CR (   1) O   2                  1.00000   -19.68158   
     5. LP (   1) C   1                  1.00000    -0.72358   
     6. LP*(   2) C   1                  0.00087    -0.18000   
     7. LP (   1) O   2                  0.99998    -0.96668   
     8. LP (   2) O   2                  0.99913    -0.41307   
     9. RY*(   1) C   1                  0.00000     0.73157   
    10. RY*(   2) C   1                  0.00000    22.92820   
    11. RY*(   3) C   1                  0.00000     0.17398   
    12. RY*(   4) C   1                  0.00000     0.69755   
    13. RY*(   5) C   1                  0.00000     2.27278   
    14. RY*(   6) C   1                  0.00000     0.17398   
    15. RY*(   7) C   1                  0.00000     0.69755   
    16. RY*(   8) C   1                  0.00000     2.27278   
    17. RY*(   9) C   1                  0.00001     0.08207   
    18. RY*(  10) C   1                  0.00001     0.20019   
    19. RY*(  11) C   1                  0.00000     0.70600   
    20. RY*(  12) C   1                  0.00000     2.28113   
    21. RY*(  13) C   1                  0.00000     1.25047   
    22. RY*(  14) C   1                  0.00000     1.24215   
    23. RY*(  15) C   1                  0.00000     1.24215   
    24. RY*(  16) C   1                  0.00000     1.25046   
    25. RY*(  17) C   1                  0.00000     1.23940   
    26. RY*(   1) O   2                  0.00000     0.19843   
    27. RY*(   2) O   2                  0.00000     1.53950   
    28. RY*(   3) O   2                  0.00000    49.56390   
    29. RY*(   4) O   2                  0.00000     0.56286   
    30. RY*(   5) O   2                  0.00000     0.84738   
    31. RY*(   6) O   2                  0.00000     4.89137   
    32. RY*(   7) O   2                  0.00000     0.56286   
    33. RY*(   8) O   2                  0.00000     0.84738   
    34. RY*(   9) O   2                  0.00000     4.89137   
    35. RY*(  10) O   2                  0.00000     0.56032   
    36. RY*(  11) O   2                  0.00000     0.91988   
    37. RY*(  12) O   2                  0.00000     4.92449   
    38. RY*(  13) O   2                  0.00000     2.87162   
    39. RY*(  14) O   2                  0.00000     2.90148   
    40. RY*(  15) O   2                  0.00000     2.90148   
    41. RY*(  16) O   2                  0.00000     2.87162   
    42. RY*(  17) O   2                  0.00000     2.90240   
    43. BD*(   1) C   1 - O   2          0.00000    -0.22798   
    44. BD*(   2) C   1 - O   2          0.00000    -0.22798   
       -------------------------------
              Total Lewis    6.99911  ( 99.9874%)
        Valence non-Lewis    0.00087  (  0.0124%)
        Rydberg non-Lewis    0.00002  (  0.0003%)
       -------------------------------
            Total unit  1    7.00000  (100.0000%)
           Charge unit  1    0.00000
 Sorting of NBOs:                    4    3    7    5    8    1    2   43   44    6
 Sorting of NBOs:                   17   11   14   26   18   35   29   32   12   15
 Sorting of NBOs:                   19    9   33   30   36   25   23   22   24   21
 Sorting of NBOs:                   27   16   13   20   38   41   39   40   42   31
 Sorting of NBOs:                   34   37   10   28
 Reordering of NBOs for storage:     4    3    7    5    8    1    2   43   44    6
 Reordering of NBOs for storage:    17   11   14   26   18   35   29   32   12   15
 Reordering of NBOs for storage:    19    9   33   30   36   25   23   22   24   21
 Reordering of NBOs for storage:    27   16   13   20   38   41   39   40   42   31
 Reordering of NBOs for storage:    34   37   10   28
 Labels of output orbitals:  CR  CR  LP  LP  LP  BD  BD  BD* BD* LP* RY* RY* RY* RY* RY* RY* RY* RY* RY* RY* 
 Labels of output orbitals:  RY* RY* RY* RY* RY* RY* RY* RY* RY* RY* RY* RY* RY* RY* RY* RY* RY* RY* RY* RY* 
 Labels of output orbitals:  RY* RY* RY* RY* 
 GSVD:  LWork=       -1665 too small for GESVD, short by        7400 words or        7400 for optimal perf.
 Leave Link  607 at Mon Apr 21 19:32:07 2025, MaxMem=   536870912 cpu:               5.3 elap:               0.7
 (Enter /home/szhao/Apps/g16/l701.exe)
 ... and contract with generalized density number  0.
 Compute integral first derivatives.
 Leave Link  701 at Mon Apr 21 19:32:08 2025, MaxMem=   536870912 cpu:               0.8 elap:               0.1
 (Enter /home/szhao/Apps/g16/l702.exe)
 L702 exits ... SP integral derivatives will be done elsewhere.
 Leave Link  702 at Mon Apr 21 19:32:08 2025, MaxMem=   536870912 cpu:               0.4 elap:               0.1
 (Enter /home/szhao/Apps/g16/l703.exe)
 Integral derivatives from FoFJK, PRISM(SPDF).
 Compute integral first derivatives, UseDBF=F ICtDFT=           0.
 Calling FoFJK, ICntrl=      2127 FMM=F ISym2X=1 I1Cent= 0 IOpClX= 1 NMat=1 NMatS=1 NMatT=0.
 FoFJK:  IHMeth= 1 ICntrl=    2127 DoSepK=F KAlg= 0 I1Cent=           0 FoldK=F
 IRaf=         0 NMat=       1 IRICut=       1 DoRegI=T DoRafI=F ISym2E= 1 IDoP0=0 IntGTp=1.
 FoFCou: FMM=F IPFlag=           0 FMFlag=      100000 FMFlg1=         800
         NFxFlg=           0 DoJE=F BraDBF=F KetDBF=F FulRan=T
         wScrn=  0.000000 ICntrl=      2127 IOpCl=  1 I1Cent=           0 NGrid=           0
         NMat0=    1 NMatS0=      1 NMatT0=    0 NMatD0=    1 NMtDS0=    0 NMtDT0=    0
 Petite list used in FoFCou.
 Leave Link  703 at Mon Apr 21 19:32:08 2025, MaxMem=   536870912 cpu:               1.8 elap:               0.2
 (Enter /home/szhao/Apps/g16/l716.exe)
 Dipole        = 0.00000000D+00 0.00000000D+00-2.22319969D+00
 ***** Axes restored to original set *****
 -------------------------------------------------------------------
 Center     Atomic                   Forces (Hartrees/Bohr)
 Number     Number              X              Y              Z
 -------------------------------------------------------------------
      1        6           0.013221645   -0.000000000   -0.000000000
      2        8          -0.013221645   -0.000000000   -0.000000000
 -------------------------------------------------------------------
 Cartesian Forces:  Max     0.013221645 RMS     0.007633520
 Z-matrix is all fixed cartesians, so copy forces.
 Force constants in Cartesian coordinates: 
                1             2             3             4             5 
      1  0.100000D+01
      2  0.000000D+00  0.100000D+01
      3  0.000000D+00  0.000000D+00  0.100000D+01
      4  0.000000D+00  0.000000D+00  0.000000D+00  0.100000D+01
      5  0.000000D+00  0.000000D+00  0.000000D+00  0.000000D+00  0.100000D+01
      6  0.000000D+00  0.000000D+00  0.000000D+00  0.000000D+00  0.000000D+00
                6 
      6  0.100000D+01
 Leave Link  716 at Mon Apr 21 19:32:08 2025, MaxMem=   536870912 cpu:               0.5 elap:               0.1
 (Enter /home/szhao/Apps/g16/l103.exe)

 GradGradGradGradGradGradGradGradGradGradGradGradGradGradGradGradGradGrad
 Berny optimization.
 Search for a local minimum.
 Step number   1 out of a maximum of    2
 All quantities printed in internal units (Hartrees-Bohrs-Radians)
 Second derivative matrix not updated -- first step.
 The second derivative matrix:
                          X1        Y1        Z1        X2        Y2
           X1           1.00000
           Y1           0.00000   1.00000
           Z1           0.00000   0.00000   1.00000
           X2           0.00000   0.00000   0.00000   1.00000
           Y2           0.00000   0.00000   0.00000   0.00000   1.00000
           Z2           0.00000   0.00000   0.00000   0.00000   0.00000
                          Z2
           Z2           1.00000
 ITU=  0
     Eigenvalues ---    1.00000   1.00000   1.00000   1.00000   1.00000
     Eigenvalues ---    1.00000
 Angle between quadratic step and forces=   0.00 degrees.
 ClnCor:  largest displacement from symmetrization is 0.00D+00 for atom     0.
 Linear search not attempted -- first point.
 ClnCor:  largest displacement from symmetrization is 0.00D+00 for atom     0.
 B after Tr=    -0.000000    0.000000    0.000000
         Rot=    1.000000    0.000000    0.000000    0.000000 Ang=   0.00 deg.
 Variable       Old X    -DE/DX   Delta X   Delta X   Delta X     New X
                                 (Linear)    (Quad)   (Total)
    X1       -3.89488   0.01322   0.00000   0.01322   0.01322  -3.88166
    Y1        0.00000  -0.00000   0.00000   0.00000   0.00000   0.00000
    Z1        0.00000  -0.00000   0.00000   0.00000   0.00000   0.00000
    X2        3.89488  -0.01322   0.00000  -0.01322  -0.01322   3.88166
    Y2        0.00000  -0.00000   0.00000   0.00000   0.00000   0.00000
    Z2        0.00000  -0.00000   0.00000   0.00000   0.00000   0.00000
         Item               Value     Threshold  Converged?
 Maximum Force            0.013222     0.000450     NO 
 RMS     Force            0.007634     0.000300     NO 
 Maximum Displacement     0.013222     0.001800     NO 
 RMS     Displacement     0.007634     0.001200     NO 
 Predicted change in Energy=-1.748119D-04
 GradGradGradGradGradGradGradGradGradGradGradGradGradGradGradGradGradGrad

 Leave Link  103 at Mon Apr 21 19:32:08 2025, MaxMem=   536870912 cpu:               0.4 elap:               0.1
 (Enter /home/szhao/Apps/g16/l9999.exe)
 1\1\GINC-NODE05\Force\UM062X\6-311+G(d,p)\C1O1\SZHAO\21-Apr-2025\0\\#p
  UM062X/6-311+G** force int=superfine pop=saveNBO\\Title Card Required
 \\0,1\C,-2.061082,0.,0.\O,2.061082,0.,0.\\Version=ES64L-G16RevA.03\Sta
 te=1-SG\HF=-112.628065\S2=0.\S2-1=0.\S2A=0.\RMSD=7.762e-09\RMSF=7.634e
 -03\Dipole=-2.2231997,0.,0.\Quadrupole=2.2878966,-1.1439483,-1.1439483
 ,0.,0.,0.\PG=C*V [C*(C1O1)]\\@


 THE SECRET OF SUCCESS IN LIFE IS TO EAT WHAT YOU LIKE, AND LET THE FOOD
 FIGHT IT OUT INSIDE YOU. -- FROM A FORTUNE COOKIE
 Job cpu time:       0 days  0 hours  0 minutes 36.2 seconds.
 Elapsed time:       0 days  0 hours  0 minutes  6.4 seconds.
 File lengths (MBytes):  RWF=     17 Int=      0 D2E=      0 Chk=      2 Scr=      2
 Normal termination of Gaussian 16 at Mon Apr 21 19:32:09 2025.
