Title Card Required                                                     
FOpt      UM062X                                                      6-311+G(d,p)        
Number of atoms                            I                6
Info1-9                                    I   N=           9
          15          15           0           0           0         110
           2          18        -502
Full Title                                 C   N=           2
Title Card Required     
Route                                      C   N=           6
#p opt UM062X/6-311+G** nosymm int=superfine SCF=NoVarAcc SC
F=tight     
Charge                                     I                1
Multiplicity                               I                2
Number of electrons                        I               15
Number of alpha electrons                  I                8
Number of beta electrons                   I                7
Number of basis functions                  I               68
Number of independent functions            I               68
Number of point charges in /Mol/           I                0
Number of translation vectors              I                0
Atomic numbers                             I   N=           6
           6           6           1           1           1           1
Nuclear charges                            R   N=           6
  6.00000000E+00  6.00000000E+00  1.00000000E+00  1.00000000E+00  1.00000000E+00
  1.00000000E+00
Current cartesian coordinates              R   N=          18
 -9.64899261E+00  0.00000000E+00  0.00000000E+00  9.64899261E+00  0.00000000E+00
  0.00000000E+00 -1.07133499E+01 -1.77878579E+00 -3.37395572E-09 -1.07132267E+01
  1.77885818E+00 -3.53889975E-09  1.07133499E+01  1.77878579E+00 -1.03524660E-09
  1.07132267E+01 -1.77885818E+00 -1.20013381E-09
Number of symbols in /Mol/                 I                0
Force Field                                I                0
Atom Types                                 C   N=           6
                                                            
            
Int Atom Types                             I   N=           6
           0           0           0           0           0           0
MM charges                                 R   N=           6
  0.00000000E+00  0.00000000E+00  0.00000000E+00  0.00000000E+00  0.00000000E+00
  0.00000000E+00
Integer atomic weights                     I   N=           6
          12          12           1           1           1           1
Real atomic weights                        R   N=           6
  1.20000000E+01  1.20000000E+01  1.00782504E+00  1.00782504E+00  1.00782504E+00
  1.00782504E+00
Atom fragment info                         I   N=           6
           0           0           0           0           0           0
Atom residue num                           I   N=           6
           0           0           0           0           0           0
Nuclear spins                              I   N=           6
           0           0           1           1           1           1
Nuclear ZEff                               R   N=           6
 -3.60000000E+00 -3.60000000E+00 -1.00000000E+00 -1.00000000E+00 -1.00000000E+00
 -1.00000000E+00
Nuclear ZNuc                               R   N=           6
  6.00000000E+00  6.00000000E+00  1.00000000E+00  1.00000000E+00  1.00000000E+00
  1.00000000E+00
Nuclear QMom                               R   N=           6
  0.00000000E+00  0.00000000E+00  0.00000000E+00  0.00000000E+00  0.00000000E+00
  0.00000000E+00
Nuclear GFac                               R   N=           6
  0.00000000E+00  0.00000000E+00  2.79284600E+00  2.79284600E+00  2.79284600E+00
  2.79284600E+00
MicOpt                                     I   N=           6
          -2          -2          -1          -1          -1          -1
Number of residues                         I                0
Number of secondary structures             I                0
Redundant internal dimensions              I   N=           4
          20          10           6           4
Redundant internal coordinate indices      I   N=          80
           1          -1           0           0           1          -2
           0           0           1          -3           0           0
           2          -1           0           0           2          -2
           0           0           2          -3           0           0
           1           3           0           0           1           4
           0           0           2           5           0           0
           2           6           0           0           2           1
           3           0           2           1           4           0
           3           1           4           0           1           2
           5           0           1           2           6           0
           5           2           6           0           3           1
           2           5           3           1           2           6
           4           1           2           5           4           1
           2           6
Redundant internal coordinates             R   N=          20
 -9.64899261E+00  0.00000000E+00  0.00000000E+00  9.64899261E+00  0.00000000E+00
  0.00000000E+00  2.07290502E+00  2.07290389E+00  2.07290502E+00  2.07290389E+00
  2.11001031E+00  2.10994137E+00  2.06323363E+00  2.11001031E+00  2.10994137E+00
  2.06323363E+00  3.14159265E+00 -0.00000000E+00  0.00000000E+00  3.14159265E+00
ZRed-IntVec                                I   N=          20
          -1          -1          -1          -1          -1          -1
           0           0           0           0           0           0
           0           0           0           0           0           0
           0           0
ZRed-FPVec                                 R   N=          20
  0.00000000E+00  0.00000000E+00  0.00000000E+00  0.00000000E+00  0.00000000E+00
  0.00000000E+00  0.00000000E+00  0.00000000E+00  0.00000000E+00  0.00000000E+00
  0.00000000E+00  0.00000000E+00  0.00000000E+00  0.00000000E+00  0.00000000E+00
  0.00000000E+00  0.00000000E+00  0.00000000E+00  0.00000000E+00  0.00000000E+00
ZRed-Constraint1                           R   N=          20
 -9.64899261E+00  0.00000000E+00  0.00000000E+00  9.64899261E+00  0.00000000E+00
  0.00000000E+00  2.05067934E+00  2.05048469E+00  2.05067934E+00  2.05048469E+00
  1.98162443E+00  1.98155420E+00  2.32000667E+00  1.98162443E+00  1.98155420E+00
  2.32000667E+00  3.14159265E+00  0.00000000E+00  0.00000000E+00  3.14159265E+00
ZRed-Constraint2                           R   N=          20
 -9.64899261E+00  0.00000000E+00  0.00000000E+00  9.64899261E+00  0.00000000E+00
  0.00000000E+00  0.00000000E+00  0.00000000E+00  0.00000000E+00  0.00000000E+00
  0.00000000E+00  0.00000000E+00  0.00000000E+00  0.00000000E+00  0.00000000E+00
  0.00000000E+00  0.00000000E+00  0.00000000E+00  0.00000000E+00  0.00000000E+00
Number of contracted shells                I               28
Number of primitive shells                 I               50
Pure/Cartesian d shells                    I                0
Pure/Cartesian f shells                    I                0
Highest angular momentum                   I                2
Largest degree of contraction              I                6
Shell types                                I   N=          28
           0          -1          -1          -1          -1          -2
           0          -1          -1          -1          -1          -2
           0           0           0           1           0           0
           0           1           0           0           0           1
           0           0           0           1
Number of primitives per shell             I   N=          28
           6           3           1           1           1           1
           6           3           1           1           1           1
           3           1           1           1           3           1
           1           1           3           1           1           1
           3           1           1           1
Shell to atom map                          I   N=          28
           1           1           1           1           1           1
           2           2           2           2           2           2
           3           3           3           3           4           4
           4           4           5           5           5           5
           6           6           6           6
Primitive exponents                        R   N=          50
  4.56324000E+03  6.82024000E+02  1.54973000E+02  4.44553000E+01  1.30290000E+01
  1.82773000E+00  2.09642000E+01  4.80331000E+00  1.45933000E+00  4.83456000E-01
  1.45585000E-01  4.38000000E-02  6.26000000E-01  4.56324000E+03  6.82024000E+02
  1.54973000E+02  4.44553000E+01  1.30290000E+01  1.82773000E+00  2.09642000E+01
  4.80331000E+00  1.45933000E+00  4.83456000E-01  1.45585000E-01  4.38000000E-02
  6.26000000E-01  3.38650000E+01  5.09479000E+00  1.15879000E+00  3.25840000E-01
  1.02741000E-01  7.50000000E-01  3.38650000E+01  5.09479000E+00  1.15879000E+00
  3.25840000E-01  1.02741000E-01  7.50000000E-01  3.38650000E+01  5.09479000E+00
  1.15879000E+00  3.25840000E-01  1.02741000E-01  7.50000000E-01  3.38650000E+01
  5.09479000E+00  1.15879000E+00  3.25840000E-01  1.02741000E-01  7.50000000E-01
Contraction coefficients                   R   N=          50
  1.96665025E-03  1.52306019E-02  7.61269097E-02  2.60801033E-01  6.16462078E-01
  2.21006028E-01  1.14660081E-01  9.19999648E-01 -3.03068213E-03  1.00000000E+00
  1.00000000E+00  1.00000000E+00  1.00000000E+00  1.96665025E-03  1.52306019E-02
  7.61269097E-02  2.60801033E-01  6.16462078E-01  2.21006028E-01  1.14660081E-01
  9.19999648E-01 -3.03068213E-03  1.00000000E+00  1.00000000E+00  1.00000000E+00
  1.00000000E+00  2.54938145E-02  1.90373109E-01  8.52161486E-01  1.00000000E+00
  1.00000000E+00  1.00000000E+00  2.54938145E-02  1.90373109E-01  8.52161486E-01
  1.00000000E+00  1.00000000E+00  1.00000000E+00  2.54938145E-02  1.90373109E-01
  8.52161486E-01  1.00000000E+00  1.00000000E+00  1.00000000E+00  2.54938145E-02
  1.90373109E-01  8.52161486E-01  1.00000000E+00  1.00000000E+00  1.00000000E+00
P(S=P) Contraction coefficients            R   N=          50
  0.00000000E+00  0.00000000E+00  0.00000000E+00  0.00000000E+00  0.00000000E+00
  0.00000000E+00  4.02486927E-02  2.37593957E-01  8.15853851E-01  1.00000000E+00
  1.00000000E+00  1.00000000E+00  0.00000000E+00  0.00000000E+00  0.00000000E+00
  0.00000000E+00  0.00000000E+00  0.00000000E+00  0.00000000E+00  4.02486927E-02
  2.37593957E-01  8.15853851E-01  1.00000000E+00  1.00000000E+00  1.00000000E+00
  0.00000000E+00  0.00000000E+00  0.00000000E+00  0.00000000E+00  0.00000000E+00
  0.00000000E+00  0.00000000E+00  0.00000000E+00  0.00000000E+00  0.00000000E+00
  0.00000000E+00  0.00000000E+00  0.00000000E+00  0.00000000E+00  0.00000000E+00
  0.00000000E+00  0.00000000E+00  0.00000000E+00  0.00000000E+00  0.00000000E+00
  0.00000000E+00  0.00000000E+00  0.00000000E+00  0.00000000E+00  0.00000000E+00
Coordinates of each shell                  R   N=          84
 -9.64899261E+00  0.00000000E+00  0.00000000E+00 -9.64899261E+00  0.00000000E+00
  0.00000000E+00 -9.64899261E+00  0.00000000E+00  0.00000000E+00 -9.64899261E+00
  0.00000000E+00  0.00000000E+00 -9.64899261E+00  0.00000000E+00  0.00000000E+00
 -9.64899261E+00  0.00000000E+00  0.00000000E+00  9.64899261E+00  0.00000000E+00
  0.00000000E+00  9.64899261E+00  0.00000000E+00  0.00000000E+00  9.64899261E+00
  0.00000000E+00  0.00000000E+00  9.64899261E+00  0.00000000E+00  0.00000000E+00
  9.64899261E+00  0.00000000E+00  0.00000000E+00  9.64899261E+00  0.00000000E+00
  0.00000000E+00 -1.07133499E+01 -1.77878579E+00 -3.37395572E-09 -1.07133499E+01
 -1.77878579E+00 -3.37395572E-09 -1.07133499E+01 -1.77878579E+00 -3.37395572E-09
 -1.07133499E+01 -1.77878579E+00 -3.37395572E-09 -1.07132267E+01  1.77885818E+00
 -3.53889975E-09 -1.07132267E+01  1.77885818E+00 -3.53889975E-09 -1.07132267E+01
  1.77885818E+00 -3.53889975E-09 -1.07132267E+01  1.77885818E+00 -3.53889975E-09
  1.07133499E+01  1.77878579E+00 -1.03524660E-09  1.07133499E+01  1.77878579E+00
 -1.03524660E-09  1.07133499E+01  1.77878579E+00 -1.03524660E-09  1.07133499E+01
  1.77878579E+00 -1.03524660E-09  1.07132267E+01 -1.77885818E+00 -1.20013381E-09
  1.07132267E+01 -1.77885818E+00 -1.20013381E-09  1.07132267E+01 -1.77885818E+00
 -1.20013381E-09  1.07132267E+01 -1.77885818E+00 -1.20013381E-09
Num ILSW                                   I              100
ILSW                                       I   N=         100
           1           0           0           1           2           0
           0           0           0           0        4336          -1
           7           0           0           0           2           0
           0           0           0           0           1           0
           1           1           0           0           0           0
           0           0      100000           0          -1           0
           0           0           0           0           0           0
           0           0           0           1           0           0
           0 -2000000000           1           0           0           0
           0           0           4          52           0           0
           0           0          55           0           0           0
           0           0           0           6           0           1
           0           0           0           0           0           0
           0           0           0           0           0           0
           0           0           0           0           0           0
           0           0           0           0           0           0
           0           0           0           0
Num RLSW                                   I               52
RLSW                                       R   N=          52
  1.00000000E+00  1.00000000E+00  1.00000000E+00  1.00000000E+00  5.40000000E-01
  0.00000000E+00  0.00000000E+00  1.00000000E+00  0.00000000E+00  0.00000000E+00
  0.00000000E+00  0.00000000E+00  1.00000000E+00  0.00000000E+00  0.00000000E+00
  0.00000000E+00  0.00000000E+00  1.00000000E+00  0.00000000E+00  0.00000000E+00
  0.00000000E+00  0.00000000E+00  1.00000000E+00  0.00000000E+00  0.00000000E+00
  0.00000000E+00  0.00000000E+00  1.00000000E+00  0.00000000E+00  0.00000000E+00
  0.00000000E+00  0.00000000E+00  1.00000000E+00  0.00000000E+00  0.00000000E+00
  0.00000000E+00  0.00000000E+00  0.00000000E+00  1.00000000E+00  1.00000000E+00
  0.00000000E+00  1.00000000E+00  0.00000000E+00  0.00000000E+00  0.00000000E+00
  0.00000000E+00  0.00000000E+00  0.00000000E+00  0.00000000E+00  0.00000000E+00
  0.00000000E+00  0.00000000E+00
MxBond                                     I                3
NBond                                      I   N=           6
           3           3           1           1           1           1
IBond                                      I   N=          18
           2           3           4           1           5           6
           1           0           0           1           0           0
           2           0           0           2           0           0
RBond                                      R   N=          18
  1.00000000E-01  1.00000000E+00  1.00000000E+00  1.00000000E-01  1.00000000E+00
  1.00000000E+00  1.00000000E+00  0.00000000E+00  0.00000000E+00  1.00000000E+00
  0.00000000E+00  0.00000000E+00  1.00000000E+00  0.00000000E+00  0.00000000E+00
  1.00000000E+00  0.00000000E+00  0.00000000E+00
Virial Ratio                               R      2.003459722593969E+00
SCF Energy                                 R     -7.789534108358795E+01
Total Energy                               R     -7.789534108358795E+01
S**2                                       R      7.586881593847110E-01
S**2 after annihilation                    R      7.500094446232823E-01
RMS Force                                  R      1.152204205732855E-05
RMS Density                                R      1.144750130960428E-09
Job Status                                 I                1
Nuclear derivative order                   I                1
External E-field                           R   N=          35
  0.00000000E+00  0.00000000E+00  0.00000000E+00  0.00000000E+00  0.00000000E+00
  0.00000000E+00  0.00000000E+00  0.00000000E+00  0.00000000E+00  0.00000000E+00
  0.00000000E+00  0.00000000E+00  0.00000000E+00  0.00000000E+00  0.00000000E+00
  0.00000000E+00  0.00000000E+00  0.00000000E+00  0.00000000E+00  0.00000000E+00
  0.00000000E+00  0.00000000E+00  0.00000000E+00  0.00000000E+00  0.00000000E+00
  0.00000000E+00  0.00000000E+00  0.00000000E+00  0.00000000E+00  0.00000000E+00
  0.00000000E+00  0.00000000E+00  0.00000000E+00  0.00000000E+00  0.00000000E+00
IOpCl                                      I                1
IROHF                                      I                0
Alpha Orbital Energies                     R   N=          68
 -1.08528497E+01 -1.08528497E+01 -9.68848515E-01 -9.68848439E-01 -7.15150733E-01
 -7.15150729E-01 -5.43013201E-01 -5.43013037E-01 -2.85690825E-01 -2.85690317E-01
 -9.36148268E-02 -9.35912976E-02 -5.09013843E-02 -5.06702940E-02 -3.40801150E-02
 -3.29800205E-02 -3.27445143E-02 -3.05739523E-02  3.02433176E-02  3.02765125E-02
  3.66047931E-02  3.68313078E-02  3.00050721E-01  3.00539836E-01  3.03411802E-01
  3.03919636E-01  4.14709271E-01  4.14924540E-01  4.26100949E-01  4.28488903E-01
  4.55590413E-01  4.55667123E-01  5.38525020E-01  5.39235991E-01  8.77820976E-01
  8.77820976E-01  9.72465269E-01  9.72505429E-01  1.01887538E+00  1.01887732E+00
  1.25942703E+00  1.25948057E+00  1.33410407E+00  1.33421366E+00  1.50666262E+00
  1.50682531E+00  1.60657684E+00  1.60659098E+00  1.74546046E+00  1.74546046E+00
  1.86084961E+00  1.86091704E+00  2.20768312E+00  2.20799567E+00  2.28605206E+00
  2.28605223E+00  2.30383447E+00  2.30384435E+00  2.43953639E+00  2.43979005E+00
  2.52735530E+00  2.52746748E+00  2.72759382E+00  2.72914650E+00  3.48774842E+00
  3.48775073E+00  2.35382150E+01  2.35383172E+01
Beta Orbital Energies                      R   N=          68
 -1.08455773E+01 -1.08455767E+01 -9.47572969E-01 -9.47484715E-01 -7.05141845E-01
 -7.05141444E-01 -4.01518401E-01 -3.71839025E-01 -2.69757832E-01 -2.69737297E-01
 -9.66127295E-02 -9.65852679E-02 -5.61106404E-02 -5.58336277E-02 -3.79236270E-02
 -3.76718828E-02 -3.71431715E-02 -3.34128453E-02  3.08011979E-02  3.08128107E-02
  4.13917451E-02  4.16749956E-02  2.97512888E-01  2.98000548E-01  3.00403730E-01
  3.00858256E-01  4.15250453E-01  4.15464035E-01  4.45209089E-01  4.47401481E-01
  4.67467420E-01  4.67552082E-01  5.49886520E-01  5.50742402E-01  8.90201617E-01
  8.90201622E-01  9.95856932E-01  9.95982199E-01  1.03762521E+00  1.03766070E+00
  1.26918787E+00  1.26923786E+00  1.34567284E+00  1.34577894E+00  1.51936612E+00
  1.51953364E+00  1.61161435E+00  1.61162884E+00  1.75316560E+00  1.75316574E+00
  1.87104205E+00  1.87110536E+00  2.21917483E+00  2.21948322E+00  2.30092910E+00
  2.30093366E+00  2.33231168E+00  2.33232020E+00  2.45223342E+00  2.45244760E+00
  2.54146928E+00  2.54158078E+00  2.76192091E+00  2.76344564E+00  3.51438798E+00
  3.51438990E+00  2.35433478E+01  2.35434507E+01
Alpha MO coefficients                      R   N=        4624
 -3.98673767E-01 -3.27974316E-01  6.04869561E-04 -2.11772411E-08  1.96171624E-12
 -7.93256743E-03  1.36095365E-03 -5.21734624E-08  4.25952200E-12  2.55903533E-03
 -1.13427405E-04  3.75501698E-09 -1.97232241E-13  5.61664620E-04 -4.32354362E-04
  1.56156935E-08 -1.43073901E-12  7.90937982E-04 -2.00822503E-12  1.08931273E-13
  6.39881974E-04 -4.14524862E-08  3.99153158E-01  3.28368693E-01  6.05596212E-04
 -2.12026676E-08 -6.06049471E-13  7.94210488E-03  1.36259263E-03 -5.22364093E-08
 -1.44507082E-12 -2.56210905E-03 -1.13569013E-04  3.75967228E-09  8.76330529E-14
 -5.62341344E-04 -4.32868041E-04  1.56347497E-08  4.41563287E-13 -7.91889101E-04
 -6.28166134E-13  1.08270353E-13 -6.40651588E-04  4.15022699E-08 -2.21973803E-04
  2.10423428E-03 -1.67708081E-03  7.29722788E-04  1.15213712E-03  2.24118118E-12
 -2.21972458E-04  2.10424329E-03 -1.67708560E-03  7.29645929E-04 -1.15219166E-03
  2.33711781E-12  2.22240433E-04 -2.10676375E-03  1.67909600E-03  7.30600585E-04
  1.15352268E-03 -6.83564965E-13  2.22239086E-04 -2.10677276E-03  1.67910079E-03
  7.30523634E-04 -1.15357727E-03 -7.80320820E-13  3.99153153E-01  3.28368814E-01
 -6.05029452E-04  2.11700346E-08 -1.96335198E-12  7.94113917E-03 -1.36465040E-03
  5.24139270E-08 -4.26485422E-12 -2.55925746E-03  1.17904089E-04 -3.87465982E-09
  1.97005911E-13 -5.63458101E-04  4.27706244E-04 -1.58672273E-08  1.43109535E-12
 -7.91926515E-04  2.01045080E-12 -1.08707006E-13 -6.40801138E-04  4.14494541E-08
  3.98673763E-01  3.27974437E-01  6.04302120E-04 -2.11445668E-08 -6.05957755E-13
  7.93160055E-03  1.36301390E-03 -5.23511920E-08 -1.44314465E-12 -2.55618032E-03
 -1.17767694E-04  3.87014460E-09  8.91673374E-14 -5.62782720E-04 -4.27186358E-04
  1.58484488E-08  4.38783757E-13 -7.90975441E-04 -6.27224559E-13  1.08720244E-13
 -6.40031704E-04  4.13996102E-08  2.22003299E-04 -2.10610118E-03  1.67789546E-03
 -7.30877095E-04 -1.15364920E-03 -2.24418587E-12  2.22002030E-04 -2.10611075E-03
  1.67790130E-03 -7.30800179E-04  1.15370388E-03 -2.34008807E-12  2.21736384E-04
 -2.10357092E-03  1.67587884E-03  7.29999631E-04  1.15226380E-03 -6.83038664E-13
  2.21735116E-04 -2.10358048E-03  1.67588467E-03  7.29922807E-04 -1.15231841E-03
 -7.80072809E-13  7.91182182E-02  1.28286278E-01  3.51691568E-02 -1.29455928E-06
  1.62972910E-10 -3.62130808E-01  5.07556864E-02 -1.84875366E-06  2.51494914E-10
 -2.31327862E-01  2.15818082E-02 -7.88605682E-07  9.72592855E-11 -1.98338296E-03
  2.83136615E-03 -9.77708405E-08  6.92382497E-12  5.33765779E-03  8.52696417E-14
  3.26926641E-13  3.29122511E-03 -2.12707185E-07 -7.91286611E-02 -1.28303211E-01
  3.51737989E-02 -1.29473016E-06 -5.40249200E-11  3.62178607E-01  5.07623848E-02
 -1.84899758E-06 -8.37640992E-11  2.31358393E-01  2.15846596E-02 -7.88709869E-07
 -3.20558029E-11  1.98364516E-03  2.83173565E-03 -9.77839285E-08 -2.20016508E-12
 -5.33836233E-03  5.35901276E-13  3.37050363E-13 -3.29165948E-03  2.12735289E-07
 -7.77435530E-02 -9.30550315E-02  4.74028273E-03 -5.54119123E-03 -1.32889734E-02
 -2.06251063E-11 -7.77436986E-02 -9.30551694E-02  4.74027685E-03 -5.54028504E-03
  1.32893655E-02 -2.17253724E-11  7.77538145E-02  9.30673133E-02 -4.74090716E-03
 -5.54192273E-03 -1.32907274E-02  6.30110590E-12  7.77539601E-02  9.30674512E-02
 -4.74090128E-03 -5.54101642E-03  1.32911196E-02  7.44482384E-12 -7.91287034E-02
 -1.28303522E-01 -3.51751550E-02  1.29480886E-06 -1.62993539E-10  3.62182811E-01
 -5.07557429E-02  1.84844864E-06 -2.51528102E-10  2.31343298E-01 -2.16054164E-02
  7.89361221E-07 -9.72700074E-11  1.98674256E-03 -2.79981397E-03  9.89865577E-08
 -6.91599535E-12 -5.33845160E-03 -8.50749136E-14 -3.26278255E-13 -3.29139444E-03
  2.12907798E-07 -7.91182606E-02 -1.28286590E-01  3.51705130E-02 -1.29463799E-06
 -5.40182959E-11  3.62135013E-01  5.07490436E-02 -1.84820459E-06 -8.37497929E-11
  2.31312764E-01  2.16025678E-02 -7.89257157E-07 -3.20583770E-11  1.98648078E-03
  2.79944026E-03 -9.89736695E-08 -2.18934588E-12 -5.33774708E-03  5.35782246E-13
  3.36970585E-13 -3.29096003E-03  2.12879728E-07  7.77545344E-02  9.30632049E-02
 -4.73149234E-03  5.54275883E-03  1.32909878E-02  2.06280604E-11  7.77546798E-02
  9.30633448E-02 -4.73149172E-03  5.54185263E-03 -1.32913802E-02  2.17282236E-11
  7.77442730E-02  9.30509225E-02 -4.73086667E-03 -5.54202745E-03 -1.32892338E-02
  6.30106751E-12  7.77444184E-02  9.30510624E-02 -4.73086605E-03 -5.54112136E-03
  1.32896261E-02  7.44470068E-12 -3.91228887E-08 -6.59640762E-08 -5.41163801E-06
 -1.57839419E-01  7.19913402E-12  2.00251849E-07 -8.05911211E-06 -2.34533892E-01
  1.01509219E-11  2.86428913E-07 -3.99825864E-06 -1.15342121E-01  5.21501652E-12
  2.33392939E-08  8.96612304E-08  2.92235758E-03 -3.49120734E-13  3.06386451E-09
 -1.01904545E-12  9.50173539E-11  1.73486489E-06  2.51005102E-02 -3.91902214E-08
 -6.60776206E-08  5.42095148E-06  1.58111060E-01  7.21497598E-12  2.00596767E-07
  8.07298134E-06  2.34937523E-01  1.01620199E-11  2.86920751E-07  4.00514100E-06
  1.15540624E-01  5.20511997E-12  2.33793838E-08 -8.98177037E-08 -2.92737961E-03
 -3.41955142E-13  3.06912290E-09  1.01280727E-12 -3.12246369E-11  1.73785055E-06
  2.51437075E-02  1.05319386E-01  1.51260997E-01  3.91733108E-02  8.23619703E-03
  7.54596337E-03  2.84863557E-11 -1.05319358E-01 -1.51260942E-01 -3.91733933E-02
 -8.23567577E-03  7.54651559E-03 -2.90747289E-11  1.05500640E-01  1.51521319E-01
  3.92407197E-02 -8.25037165E-03 -7.55895020E-03  9.14316723E-12 -1.05500612E-01
 -1.51521264E-01 -3.92408024E-02  8.24984949E-03 -7.55950337E-03 -9.65157152E-12
  3.91919849E-08  6.60898902E-08  5.42100228E-06  1.58111112E-01 -7.21198629E-12
 -2.00764005E-07  8.07272915E-06  2.34937009E-01 -1.01690949E-11 -2.86273671E-07
  4.00594438E-06  1.15540550E-01 -5.22149338E-12 -2.33336321E-08 -9.10747271E-08
 -2.92312358E-03  3.47982199E-13 -3.06179483E-09  1.02082350E-12 -9.51800509E-11
 -1.73783527E-06 -2.51433977E-02 -3.91246543E-08 -6.59763661E-08  5.41168886E-06
  1.57839471E-01  7.20287364E-12  2.00419372E-07  8.05885943E-06  2.34533378E-01
  1.01434600E-11  2.85780743E-07  3.99906339E-06  1.15342047E-01  5.19547593E-12
  2.32934583E-08 -9.09204229E-08 -2.91809423E-03 -3.39058308E-13  3.05652068E-09
  1.01099323E-12 -3.11713064E-11  1.73484957E-06  2.51001998E-02 -1.05500469E-01
 -1.51523021E-01 -3.92360101E-02 -8.25046832E-03 -7.55910323E-03 -2.85360854E-11
  1.05500441E-01  1.51522966E-01  3.92360917E-02  8.24994608E-03 -7.55965639E-03
  2.91252051E-11  1.05319215E-01  1.51262702E-01  3.91685930E-02 -8.23629386E-03
 -7.54611667E-03  9.12853644E-12 -1.05319187E-01 -1.51262647E-01 -3.91686745E-02
  8.23577252E-03 -7.54666887E-03 -9.63555207E-12  3.19324137E-02  5.38438730E-02
 -1.89124542E-01  6.50951363E-06 -2.39080749E-10 -1.71843592E-01 -2.84638279E-01
  9.77999120E-06 -3.29398755E-10 -2.03710220E-01 -2.30867150E-01  7.86577613E-06
 -2.69255787E-10 -7.41979136E-03 -1.04533035E-02  3.35881487E-07 -3.12251649E-11
 -1.30740525E-02  1.07361953E-10 -7.15848141E-13  6.02319059E-03 -4.18775638E-07
  3.19348282E-02  5.38479442E-02  1.89138842E-01 -6.51000580E-06 -6.79720699E-11
 -1.71856585E-01  2.84659802E-01 -9.78073068E-06 -9.13277007E-11 -2.03725622E-01
  2.30884605E-01 -7.86637079E-06 -7.58184068E-11 -7.42035267E-03  1.04540964E-02
 -3.35906750E-07 -9.11892489E-12 -1.30750411E-02 -3.52268422E-11  7.21447517E-13
  6.02364600E-03 -4.18807313E-07  4.72729871E-02  7.63601868E-02  2.80214654E-02
 -8.32266882E-03  8.99103125E-03 -5.01894545E-12  4.72729635E-02  7.63601649E-02
  2.80215351E-02 -8.32329397E-03 -8.99045957E-03 -4.22300898E-12  4.72765614E-02
  7.63659608E-02  2.80235835E-02  8.32329817E-03 -8.99171106E-03 -1.36489516E-12
  4.72765378E-02  7.63659389E-02  2.80236532E-02  8.32392336E-03  8.99113933E-03
 -5.23982492E-13 -3.19348766E-02 -5.38482092E-02  1.89137745E-01 -6.50993738E-06
  2.39099069E-10  1.71860179E-01  2.84665651E-01 -9.78117680E-06  3.29424385E-10
  2.03711997E-01  2.30864269E-01 -7.86571641E-06  2.69276969E-10  7.42416516E-03
  1.04881554E-02 -3.34722954E-07  3.12392637E-11  1.30749565E-02 -1.07369151E-10
  7.15929055E-13 -6.02345331E-03  4.18950482E-07  3.19324621E-02  5.38441380E-02
  1.89123445E-01 -6.50944517E-06 -6.79661856E-11 -1.71847186E-01  2.84644130E-01
 -9.78043730E-06 -9.13222949E-11 -2.03696594E-01  2.30846813E-01 -7.86512163E-06
 -7.58084353E-11 -7.42360414E-03  1.04873650E-02 -3.34697516E-07 -9.13106317E-12
 -1.30739680E-02 -3.52241567E-11  7.21767483E-13  6.02299789E-03 -4.18918818E-07
 -4.72760150E-02 -7.63697131E-02 -2.80149942E-02  8.32403953E-03 -8.99152642E-03
  5.02013278E-12 -4.72759916E-02 -7.63696894E-02 -2.80150689E-02  8.32466481E-03
  8.99095450E-03  4.22414332E-12  4.72724407E-02  7.63639394E-02  2.80128755E-02
  8.32341024E-03 -8.99084660E-03 -1.36562778E-12  4.72724172E-02  7.63639157E-02
  2.80129502E-02  8.32403547E-03  8.99027471E-03 -5.23412563E-13 -5.78426298E-11
 -8.97315230E-11 -3.18623792E-10  8.10054679E-12  1.84494838E-01  2.27348548E-10
 -5.42802822E-10  1.61895851E-11  2.96210615E-01  4.40966026E-10 -5.84452839E-10
  1.74250016E-11  3.17319050E-01  1.19159339E-10 -9.89529812E-11  6.24563960E-12
  7.26665769E-02 -1.07251269E-10 -9.86548908E-03  3.51529845E-07  1.78617407E-11
 -1.72543175E-12 -2.02646616E-11 -3.12314555E-11  9.60212508E-11 -8.09195564E-12
  1.84498268E-01  7.81699179E-11  1.65546339E-10 -1.62178923E-11  2.96216122E-01
  1.62626315E-10  1.79384609E-10 -1.74582655E-11  3.17324950E-01  4.26884149E-11
  3.10536453E-11 -6.20786355E-12  7.26679278E-02 -3.66635758E-11  9.86567252E-03
 -3.51536380E-07  5.10411657E-12 -1.74566929E-12 -5.82908874E-11 -1.01410648E-10
 -5.65942883E-11 -3.75866943E-11 -1.81750716E-11  1.64863507E-02 -5.89140489E-11
 -1.06597889E-10 -6.49834384E-11 -3.88517309E-11  2.16964602E-11  1.64863636E-02
 -2.01743278E-11 -3.46496727E-11 -2.19805706E-11  1.15739380E-11  5.59763434E-12
  1.64866572E-02 -2.07800819E-11 -4.00039482E-11 -3.02649852E-11  1.28557263E-11
 -9.14469345E-12  1.64866701E-02 -5.78436039E-11 -8.97325875E-11 -3.18635070E-10
  8.10093148E-12  1.84500071E-01  2.27347860E-10 -5.42810730E-10  1.61906904E-11
  2.96216513E-01  4.41001597E-10 -5.84499092E-10  1.74321474E-11  3.17335371E-01
  1.19286172E-10 -9.89555816E-11  6.25025879E-12  7.26520312E-02 -1.07252673E-10
 -9.86581040E-03  3.51540928E-07  1.78637848E-11 -1.72500931E-12  2.02620660E-11
  3.12272552E-11 -9.60294992E-11  8.09151889E-12 -1.84496640E-01 -7.81596813E-11
 -1.65540407E-10  1.62182549E-11 -2.96211005E-01 -1.62600792E-10 -1.79443188E-10