Title Card Required                                                     
FOpt      UM062X                                                      6-311+G(d,p)        
Number of atoms                            I                6
Info1-9                                    I   N=           9
          15          15           0           0           0         110
           2          18        -502
Full Title                                 C   N=           2
Title Card Required     
Route                                      C   N=           5
#p opt UM062X/6-311+G** nosymm int=superfine SCF=NoVarAcc   
Charge                                     I                0
Multiplicity                               I                1
Number of electrons                        I               16
Number of alpha electrons                  I                8
Number of beta electrons                   I                8
Number of basis functions                  I               68
Number of independent functions            I               68
Number of point charges in /Mol/           I                0
Number of translation vectors              I                0
Atomic numbers                             I   N=           6
           6           6           1           1           1           1
Nuclear charges                            R   N=           6
  6.00000000E+00  6.00000000E+00  1.00000000E+00  1.00000000E+00  1.00000000E+00
  1.00000000E+00
Current cartesian coordinates              R   N=          18
 -1.32953477E+01  0.00000000E+00  0.00000000E+00  1.32953477E+01  0.00000000E+00
  0.00000000E+00 -1.46153211E+01 -1.62716197E+00 -1.32256010E-10 -1.46152667E+01
  1.62719329E+00 -1.30505881E-10  1.46153211E+01  1.62716197E+00 -6.01195846E-10
  1.46152667E+01 -1.62719329E+00 -5.99504536E-10
Number of symbols in /Mol/                 I                0
Force Field                                I                0
Atom Types                                 C   N=           6
                                                            
            
Int Atom Types                             I   N=           6
           0           0           0           0           0           0
MM charges                                 R   N=           6
  0.00000000E+00  0.00000000E+00  0.00000000E+00  0.00000000E+00  0.00000000E+00
  0.00000000E+00
Integer atomic weights                     I   N=           6
          12          12           1           1           1           1
Real atomic weights                        R   N=           6
  1.20000000E+01  1.20000000E+01  1.00782504E+00  1.00782504E+00  1.00782504E+00
  1.00782504E+00
Atom fragment info                         I   N=           6
           0           0           0           0           0           0
Atom residue num                           I   N=           6
           0           0           0           0           0           0
Nuclear spins                              I   N=           6
           0           0           1           1           1           1
Nuclear ZEff                               R   N=           6
 -3.60000000E+00 -3.60000000E+00 -1.00000000E+00 -1.00000000E+00 -1.00000000E+00
 -1.00000000E+00
Nuclear ZNuc                               R   N=           6
  6.00000000E+00  6.00000000E+00  1.00000000E+00  1.00000000E+00  1.00000000E+00
  1.00000000E+00
Nuclear QMom                               R   N=           6
  0.00000000E+00  0.00000000E+00  0.00000000E+00  0.00000000E+00  0.00000000E+00
  0.00000000E+00
Nuclear GFac                               R   N=           6
  0.00000000E+00  0.00000000E+00  2.79284600E+00  2.79284600E+00  2.79284600E+00
  2.79284600E+00
MicOpt                                     I   N=           6
          -2          -2          -1          -1          -1          -1
Number of residues                         I                0
Number of secondary structures             I                0
Redundant internal dimensions              I   N=           4
          20          10           6           4
Redundant internal coordinate indices      I   N=          80
           1          -1           0           0           1          -2
           0           0           1          -3           0           0
           2          -1           0           0           2          -2
           0           0           2          -3           0           0
           1           3           0           0           1           4
           0           0           2           5           0           0
           2           6           0           0           2           1
           3           0           2           1           4           0
           3           1           4           0           1           2
           5           0           1           2           6           0
           5           2           6           0           3           1
           2           5           3           1           2           6
           4           1           2           5           4           1
           2           6
Redundant internal coordinates             R   N=          20
 -1.32953477E+01  0.00000000E+00  0.00000000E+00  1.32953477E+01  0.00000000E+00
  0.00000000E+00  2.09522933E+00  2.09521939E+00  2.09522933E+00  2.09521939E+00
  2.25233661E+00  2.25230703E+00  1.77854167E+00  2.25233661E+00  2.25230703E+00
  1.77854167E+00  3.14159265E+00  0.00000000E+00 -0.00000000E+00  3.14159265E+00
ZRed-IntVec                                I   N=          20
          -1          -1          -1          -1          -1          -1
           0           0           0           0           0           0
           0           0           0           0           0           0
           0           0
ZRed-FPVec                                 R   N=          20
  0.00000000E+00  0.00000000E+00  0.00000000E+00  0.00000000E+00  0.00000000E+00
  0.00000000E+00  0.00000000E+00  0.00000000E+00  0.00000000E+00  0.00000000E+00
  0.00000000E+00  0.00000000E+00  0.00000000E+00  0.00000000E+00  0.00000000E+00
  0.00000000E+00  0.00000000E+00  0.00000000E+00  0.00000000E+00  0.00000000E+00
ZRed-Constraint1                           R   N=          20
 -1.32953477E+01  0.00000000E+00  0.00000000E+00  1.32953477E+01  0.00000000E+00
  0.00000000E+00  2.03694512E+00  2.03669844E+00  2.03694512E+00  2.03669844E+00
  2.00316847E+00  2.00313852E+00  2.27687832E+00  2.00316847E+00  2.00313852E+00
  2.27687832E+00  3.14159265E+00  0.00000000E+00  0.00000000E+00  3.14159265E+00
ZRed-Constraint2                           R   N=          20
 -1.32953477E+01  0.00000000E+00  0.00000000E+00  1.32953477E+01  0.00000000E+00
  0.00000000E+00  0.00000000E+00  0.00000000E+00  0.00000000E+00  0.00000000E+00
  0.00000000E+00  0.00000000E+00  0.00000000E+00  0.00000000E+00  0.00000000E+00
  0.00000000E+00  0.00000000E+00  0.00000000E+00  0.00000000E+00  0.00000000E+00
Number of contracted shells                I               28
Number of primitive shells                 I               50
Pure/Cartesian d shells                    I                0
Pure/Cartesian f shells                    I                0
Highest angular momentum                   I                2
Largest degree of contraction              I                6
Shell types                                I   N=          28
           0          -1          -1          -1          -1          -2
           0          -1          -1          -1          -1          -2
           0           0           0           1           0           0
           0           1           0           0           0           1
           0           0           0           1
Number of primitives per shell             I   N=          28
           6           3           1           1           1           1
           6           3           1           1           1           1
           3           1           1           1           3           1
           1           1           3           1           1           1
           3           1           1           1
Shell to atom map                          I   N=          28
           1           1           1           1           1           1
           2           2           2           2           2           2
           3           3           3           3           4           4
           4           4           5           5           5           5
           6           6           6           6
Primitive exponents                        R   N=          50
  4.56324000E+03  6.82024000E+02  1.54973000E+02  4.44553000E+01  1.30290000E+01
  1.82773000E+00  2.09642000E+01  4.80331000E+00  1.45933000E+00  4.83456000E-01
  1.45585000E-01  4.38000000E-02  6.26000000E-01  4.56324000E+03  6.82024000E+02
  1.54973000E+02  4.44553000E+01  1.30290000E+01  1.82773000E+00  2.09642000E+01
  4.80331000E+00  1.45933000E+00  4.83456000E-01  1.45585000E-01  4.38000000E-02
  6.26000000E-01  3.38650000E+01  5.09479000E+00  1.15879000E+00  3.25840000E-01
  1.02741000E-01  7.50000000E-01  3.38650000E+01  5.09479000E+00  1.15879000E+00
  3.25840000E-01  1.02741000E-01  7.50000000E-01  3.38650000E+01  5.09479000E+00
  1.15879000E+00  3.25840000E-01  1.02741000E-01  7.50000000E-01  3.38650000E+01
  5.09479000E+00  1.15879000E+00  3.25840000E-01  1.02741000E-01  7.50000000E-01
Contraction coefficients                   R   N=          50
  1.96665025E-03  1.52306019E-02  7.61269097E-02  2.60801033E-01  6.16462078E-01
  2.21006028E-01  1.14660081E-01  9.19999648E-01 -3.03068213E-03  1.00000000E+00
  1.00000000E+00  1.00000000E+00  1.00000000E+00  1.96665025E-03  1.52306019E-02
  7.61269097E-02  2.60801033E-01  6.16462078E-01  2.21006028E-01  1.14660081E-01
  9.19999648E-01 -3.03068213E-03  1.00000000E+00  1.00000000E+00  1.00000000E+00
  1.00000000E+00  2.54938145E-02  1.90373109E-01  8.52161486E-01  1.00000000E+00
  1.00000000E+00  1.00000000E+00  2.54938145E-02  1.90373109E-01  8.52161486E-01
  1.00000000E+00  1.00000000E+00  1.00000000E+00  2.54938145E-02  1.90373109E-01
  8.52161486E-01  1.00000000E+00  1.00000000E+00  1.00000000E+00  2.54938145E-02
  1.90373109E-01  8.52161486E-01  1.00000000E+00  1.00000000E+00  1.00000000E+00
P(S=P) Contraction coefficients            R   N=          50
  0.00000000E+00  0.00000000E+00  0.00000000E+00  0.00000000E+00  0.00000000E+00
  0.00000000E+00  4.02486927E-02  2.37593957E-01  8.15853851E-01  1.00000000E+00
  1.00000000E+00  1.00000000E+00  0.00000000E+00  0.00000000E+00  0.00000000E+00
  0.00000000E+00  0.00000000E+00  0.00000000E+00  0.00000000E+00  4.02486927E-02
  2.37593957E-01  8.15853851E-01  1.00000000E+00  1.00000000E+00  1.00000000E+00
  0.00000000E+00  0.00000000E+00  0.00000000E+00  0.00000000E+00  0.00000000E+00
  0.00000000E+00  0.00000000E+00  0.00000000E+00  0.00000000E+00  0.00000000E+00
  0.00000000E+00  0.00000000E+00  0.00000000E+00  0.00000000E+00  0.00000000E+00
  0.00000000E+00  0.00000000E+00  0.00000000E+00  0.00000000E+00  0.00000000E+00
  0.00000000E+00  0.00000000E+00  0.00000000E+00  0.00000000E+00  0.00000000E+00
Coordinates of each shell                  R   N=          84
 -1.32953477E+01  0.00000000E+00  0.00000000E+00 -1.32953477E+01  0.00000000E+00
  0.00000000E+00 -1.32953477E+01  0.00000000E+00  0.00000000E+00 -1.32953477E+01
  0.00000000E+00  0.00000000E+00 -1.32953477E+01  0.00000000E+00  0.00000000E+00
 -1.32953477E+01  0.00000000E+00  0.00000000E+00  1.32953477E+01  0.00000000E+00
  0.00000000E+00  1.32953477E+01  0.00000000E+00  0.00000000E+00  1.32953477E+01
  0.00000000E+00  0.00000000E+00  1.32953477E+01  0.00000000E+00  0.00000000E+00
  1.32953477E+01  0.00000000E+00  0.00000000E+00  1.32953477E+01  0.00000000E+00
  0.00000000E+00 -1.46153211E+01 -1.62716197E+00 -1.32256010E-10 -1.46153211E+01
 -1.62716197E+00 -1.32256010E-10 -1.46153211E+01 -1.62716197E+00 -1.32256010E-10
 -1.46153211E+01 -1.62716197E+00 -1.32256010E-10 -1.46152667E+01  1.62719329E+00
 -1.30505881E-10 -1.46152667E+01  1.62719329E+00 -1.30505881E-10 -1.46152667E+01
  1.62719329E+00 -1.30505881E-10 -1.46152667E+01  1.62719329E+00 -1.30505881E-10
  1.46153211E+01  1.62716197E+00 -6.01195846E-10  1.46153211E+01  1.62716197E+00
 -6.01195846E-10  1.46153211E+01  1.62716197E+00 -6.01195846E-10  1.46153211E+01
  1.62716197E+00 -6.01195846E-10  1.46152667E+01 -1.62719329E+00 -5.99504536E-10
  1.46152667E+01 -1.62719329E+00 -5.99504536E-10  1.46152667E+01 -1.62719329E+00
 -5.99504536E-10  1.46152667E+01 -1.62719329E+00 -5.99504536E-10
Num ILSW                                   I              100
ILSW                                       I   N=         100
           1           0           0           0           2           0
           0           0           0           0        4336          -1
           7           0           0           0           2           0
           0           0           0           0           1           0
           1           1           0           0           0           0
           0           0      100000           0          -1           0
           0           0           0           0           0           0
           0           0           0           1           0           0
           0 -2000000000           1           0           0           0
           0           0           4          52           0           0
           0           0          55           0           0           0
           0           0           0           6           0           1
           0           0           0           0           0           0
           0           0           0           0           0           0
           0           0           0           0           0           0
           0           0           0           0           0           0
           0           0           0           0
Num RLSW                                   I               52
RLSW                                       R   N=          52
  1.00000000E+00  1.00000000E+00  1.00000000E+00  1.00000000E+00  5.40000000E-01
  0.00000000E+00  0.00000000E+00  1.00000000E+00  0.00000000E+00  0.00000000E+00
  0.00000000E+00  0.00000000E+00  1.00000000E+00  0.00000000E+00  0.00000000E+00
  0.00000000E+00  0.00000000E+00  1.00000000E+00  0.00000000E+00  0.00000000E+00
  0.00000000E+00  0.00000000E+00  1.00000000E+00  0.00000000E+00  0.00000000E+00
  0.00000000E+00  0.00000000E+00  1.00000000E+00  0.00000000E+00  0.00000000E+00
  0.00000000E+00  0.00000000E+00  1.00000000E+00  0.00000000E+00  0.00000000E+00
  0.00000000E+00  0.00000000E+00  0.00000000E+00  1.00000000E+00  1.00000000E+00
  0.00000000E+00  1.00000000E+00  0.00000000E+00  0.00000000E+00  0.00000000E+00
  0.00000000E+00  0.00000000E+00  0.00000000E+00  0.00000000E+00  0.00000000E+00
  0.00000000E+00  0.00000000E+00
MxBond                                     I                3
NBond                                      I   N=           6
           3           3           1           1           1           1
IBond                                      I   N=          18
           2           3           4           1           5           6
           1           0           0           1           0           0
           2           0           0           2           0           0
RBond                                      R   N=          18
  1.00000000E-01  1.00000000E+00  1.00000000E+00  1.00000000E-01  1.00000000E+00
  1.00000000E+00  1.00000000E+00  0.00000000E+00  0.00000000E+00  1.00000000E+00
  0.00000000E+00  0.00000000E+00  1.00000000E+00  0.00000000E+00  0.00000000E+00
  1.00000000E+00  0.00000000E+00  0.00000000E+00
Virial Ratio                               R      2.003520706900419E+00
SCF Energy                                 R     -7.823767162302981E+01
Total Energy                               R     -7.823767162302981E+01
S**2                                       R     -4.263256414560601E-14
S**2 after annihilation                    R     -3.019806626980337E-14
RMS Force                                  R      1.522132706682887E-04
RMS Density                                R      1.728654813966969E-09
Job Status                                 I                1
Nuclear derivative order                   I                1
External E-field                           R   N=          35
  0.00000000E+00  0.00000000E+00  0.00000000E+00  0.00000000E+00  0.00000000E+00
  0.00000000E+00  0.00000000E+00  0.00000000E+00  0.00000000E+00  0.00000000E+00
  0.00000000E+00  0.00000000E+00  0.00000000E+00  0.00000000E+00  0.00000000E+00
  0.00000000E+00  0.00000000E+00  0.00000000E+00  0.00000000E+00  0.00000000E+00
  0.00000000E+00  0.00000000E+00  0.00000000E+00  0.00000000E+00  0.00000000E+00
  0.00000000E+00  0.00000000E+00  0.00000000E+00  0.00000000E+00  0.00000000E+00
  0.00000000E+00  0.00000000E+00  0.00000000E+00  0.00000000E+00  0.00000000E+00
IOpCl                                      I                1
IROHF                                      I                0
Alpha Orbital Energies                     R   N=          68
 -1.06081501E+01 -1.06081501E+01 -7.57393526E-01 -7.57393526E-01 -4.76214576E-01
 -4.76214576E-01 -3.14398711E-01 -3.14398697E-01 -8.25774978E-02 -8.25774859E-02
  2.36547099E-02  2.36555761E-02  6.60276870E-02  6.60281480E-02  8.54627030E-02
  8.54630603E-02  9.19714773E-02  9.19824319E-02  1.76203724E-01  1.76203882E-01
  1.94951959E-01  1.94952608E-01  4.41218089E-01  4.41218533E-01  4.84961917E-01
  4.84964985E-01  5.87618806E-01  5.87618994E-01  6.23238729E-01  6.23238736E-01
  6.35070512E-01  6.35072011E-01  7.29956456E-01  7.29959275E-01  1.09159145E+00
  1.09159153E+00  1.10385231E+00  1.10385231E+00  1.19236739E+00  1.19236739E+00
  1.55327732E+00  1.55327771E+00  1.56718005E+00  1.56718011E+00  1.62911446E+00
  1.62911456E+00  1.86596743E+00  1.86596743E+00  1.87868729E+00  1.87868730E+00
  2.13503602E+00  2.13503613E+00  2.36598654E+00  2.36598704E+00  2.45269915E+00
  2.45269932E+00  2.50140556E+00  2.50140559E+00  2.55702974E+00  2.55703069E+00
  2.75055235E+00  2.75055243E+00  3.06718082E+00  3.06718237E+00  3.59160240E+00
  3.59160240E+00  2.37696239E+01  2.37696244E+01
Beta Orbital Energies                      R   N=          68
 -1.06081501E+01 -1.06081501E+01 -7.57393526E-01 -7.57393526E-01 -4.76214576E-01
 -4.76214576E-01 -3.14398711E-01 -3.14398697E-01 -8.25774978E-02 -8.25774859E-02
  2.36547099E-02  2.36555761E-02  6.60276870E-02  6.60281480E-02  8.54627030E-02
  8.54630603E-02  9.19714773E-02  9.19824319E-02  1.76203724E-01  1.76203882E-01
  1.94951959E-01  1.94952608E-01  4.41218089E-01  4.41218533E-01  4.84961917E-01
  4.84964985E-01  5.87618806E-01  5.87618994E-01  6.23238729E-01  6.23238736E-01
  6.35070512E-01  6.35072011E-01  7.29956456E-01  7.29959275E-01  1.09159145E+00
  1.09159153E+00  1.10385231E+00  1.10385231E+00  1.19236739E+00  1.19236739E+00
  1.55327732E+00  1.55327771E+00  1.56718005E+00  1.56718011E+00  1.62911446E+00
  1.62911456E+00  1.86596743E+00  1.86596743E+00  1.87868729E+00  1.87868730E+00
  2.13503602E+00  2.13503613E+00  2.36598654E+00  2.36598704E+00  2.45269915E+00
  2.45269932E+00  2.50140556E+00  2.50140559E+00  2.55702974E+00  2.55703069E+00
  2.75055235E+00  2.75055243E+00  3.06718082E+00  3.06718237E+00  3.59160240E+00
  3.59160240E+00  2.37696239E+01  2.37696244E+01
Alpha MO coefficients                      R   N=        4624
  3.98868827E-01  3.28257701E-01 -1.50550801E-03  1.93654926E-08 -1.23031716E-13
  7.74639541E-03 -1.18591890E-03  6.32532843E-08 -1.29098456E-13 -2.70977494E-03
 -3.61117895E-05 -1.36360992E-09 -2.76969427E-15 -4.98129849E-04  5.89834569E-04
 -1.52408152E-08  5.80844054E-14 -7.01623389E-04  1.26370214E-13  8.50710344E-16
 -2.53526600E-04 -1.66130254E-08 -3.98868315E-01 -3.28257279E-01 -1.50550608E-03
  1.93654683E-08  6.94941762E-13 -7.74638547E-03 -1.18591738E-03  6.32532004E-08
  5.17085793E-13  2.70977147E-03 -3.61117431E-05 -1.36360547E-09  1.99849278E-14
  4.98129209E-04  5.89833811E-04 -1.52407949E-08 -2.69484130E-13  7.01622488E-04
  4.35473447E-13  4.48931681E-16  2.53526275E-04  1.66130032E-08  2.43977579E-04
 -1.93619878E-03  1.63773813E-03 -7.84329620E-04 -1.01276356E-03 -6.89711535E-14
  2.43967505E-04 -1.93627586E-03  1.63778417E-03 -7.84329031E-04  1.01281986E-03
 -6.78832521E-14 -2.43977266E-04  1.93619630E-03 -1.63773603E-03 -7.84328613E-04
 -1.01276226E-03  3.61240309E-13 -2.43967192E-04  1.93627337E-03 -1.63778207E-03
 -7.84328024E-04  1.01281856E-03  3.60329108E-13  3.98868315E-01  3.28257280E-01
 -1.50550514E-03  1.93654510E-08 -1.21843823E-13  7.74638203E-03 -1.18592035E-03
  6.32532988E-08 -1.30569644E-13 -2.70976178E-03 -3.61040946E-05 -1.36364021E-09
 -1.88166688E-15 -4.98122535E-04  5.89819298E-04 -1.52409254E-08  5.71770498E-14
 -7.01622195E-04  1.26047755E-13  8.19421409E-16 -2.53526454E-04 -1.66130559E-08
  3.98868827E-01  3.28257701E-01  1.50550707E-03 -1.93654751E-08 -6.94602650E-13
  7.74639197E-03  1.18592188E-03 -6.32533837E-08 -5.17241813E-13 -2.70976526E-03
  3.61041410E-05  1.36364220E-09 -2.01479960E-14 -4.98123175E-04 -5.89820055E-04
  1.52409459E-08  2.69389195E-13 -7.01623095E-04 -4.35523844E-13 -7.46584720E-16
 -2.53526780E-04 -1.66130807E-08  2.43976023E-04 -1.93619089E-03  1.63772423E-03
 -7.84329084E-04 -1.01276224E-03 -6.94817776E-14  2.43965949E-04 -1.93626796E-03
  1.63777027E-03 -7.84328495E-04  1.01281854E-03 -6.82958533E-14  2.43976336E-04
 -1.93619337E-03  1.63772633E-03  7.84330091E-04  1.01276354E-03 -3.61235794E-13
  2.43966262E-04 -1.93627045E-03  1.63777237E-03  7.84329502E-04 -1.01281984E-03
 -3.59944020E-13  7.40988338E-02  1.19255779E-01  4.81092512E-02 -1.27403877E-06
  4.62962920E-12 -3.25436948E-01  7.17652916E-02 -1.71129616E-06  6.59531386E-12
 -2.22391532E-01  3.19162877E-02 -6.89134907E-07  2.55958696E-12 -4.29500479E-03
  2.15177318E-03 -2.72295271E-08  2.07479752E-13  5.16056448E-03 -8.18472414E-13
 -4.60489018E-15  8.46349437E-05  1.19209836E-07 -7.41026347E-02 -1.19261896E-01
  4.81117190E-02 -1.27410412E-06 -2.21169524E-11  3.25453642E-01  7.17689728E-02
 -1.71138393E-06 -3.25454166E-11  2.22402940E-01  3.19179249E-02 -6.89170262E-07
 -1.49951121E-11  4.29522510E-03  2.15188356E-03 -2.72309238E-08 -4.76482663E-13
 -5.16082919E-03 -4.02664630E-12 -4.53541465E-15 -8.46392851E-05 -1.19215952E-07
 -8.08131787E-02 -9.78371432E-02 -5.88308498E-03 -6.70065849E-03 -1.18049405E-02
 -5.58863485E-13 -8.08142630E-02 -9.78381912E-02 -5.88316903E-03 -6.70038850E-03
  1.18052121E-02 -5.51732874E-13  8.08173240E-02  9.78421617E-02  5.88338675E-03
 -6.70100220E-03 -1.18055461E-02  3.05337468E-12  8.08184083E-02  9.78432098E-02
  5.88347080E-03 -6.70073220E-03  1.18058177E-02  3.04484609E-12 -7.41026347E-02
 -1.19261897E-01 -4.81117194E-02  1.27410413E-06 -4.62919256E-12  3.25453644E-01
 -7.17689714E-02  1.71138390E-06 -6.59725971E-12  2.22402931E-01 -3.19179303E-02
  6.89170287E-07 -2.55861746E-12  4.29521716E-03 -2.15186839E-03  2.72310333E-08
 -2.07548579E-13 -5.16082940E-03  8.18503141E-13  4.28957276E-15 -8.46392333E-05
 -1.19215927E-07 -7.40988338E-02 -1.19255779E-01  4.81092516E-02 -1.27403878E-06
 -2.21170008E-11  3.25436950E-01  7.17652902E-02 -1.71129611E-06 -3.25410288E-11
  2.22391523E-01  3.19162932E-02 -6.89134941E-07 -1.49963710E-11  4.29499684E-03
  2.15175802E-03 -2.72296383E-08 -4.75437137E-13 -5.16056469E-03 -4.02639140E-12
 -3.56166298E-15 -8.46348920E-05 -1.19209811E-07  8.08173246E-02  9.78421578E-02
  5.88339860E-03  6.70100244E-03  1.18055460E-02  5.58885660E-13  8.08184089E-02
  9.78432059E-02  5.88348266E-03  6.70073244E-03 -1.18058177E-02  5.51834888E-13
  8.08131793E-02  9.78371393E-02  5.88309683E-03 -6.70065873E-03 -1.18049405E-02
  3.05238257E-12  8.08142635E-02  9.78381873E-02  5.88318088E-03 -6.70038874E-03
  1.18052121E-02  3.04437161E-12  2.16674394E-07  3.62352269E-07  2.01671644E-06
  1.50494554E-01  5.04947205E-14 -1.02259078E-06  3.18740812E-06  2.24394495E-01
  7.21570063E-14 -1.94359977E-06  1.96727087E-06  1.22128330E-01  2.09497696E-14
 -2.54297528E-07  1.38043794E-08 -1.19060331E-03 -2.50590423E-15 -2.79263949E-08
 -1.29837126E-14 -3.00910797E-12 -1.00296898E-06 -3.33044366E-02 -2.04498435E-07
 -3.41989984E-07  1.90338759E-06  1.42037553E-01 -4.47739405E-14  9.65126570E-07
  3.00829256E-06  2.11784708E-01 -6.41388142E-14  1.83437972E-06  1.85672060E-06
  1.15265362E-01 -1.67244980E-14  2.40007360E-07  1.30286625E-08 -1.12369769E-03
  2.82544245E-15  2.63570793E-08 -1.11498813E-14 -1.42957600E-11  9.46607403E-07
  3.14329029E-02 -1.06808971E-01 -1.64317291E-01 -8.29772187E-02 -8.44699464E-03
 -3.30038433E-03 -8.23603869E-13  1.06808718E-01  1.64316702E-01  8.29772223E-02
  8.44688258E-03 -3.30055032E-03  8.17145374E-13  1.00806870E-01  1.55083526E-01
  7.83143365E-02 -7.97231808E-03 -3.11492013E-03  3.64117191E-12 -1.00806631E-01
 -1.55082970E-01 -7.83143399E-02  7.97221231E-03 -3.11507679E-03 -3.63982540E-12
 -2.04498435E-07 -3.41989984E-07 -1.90338761E-06 -1.42037553E-01 -4.75508745E-14
  9.65126595E-07 -3.00829256E-06 -2.11784708E-01 -6.90675262E-14  1.83437960E-06
 -1.85672072E-06 -1.15265362E-01 -1.93862431E-14  2.40007302E-07 -1.30284328E-08
  1.12369745E-03  2.50214656E-15  2.63570762E-08  1.23486141E-14  2.84023176E-12
  9.46607411E-07  3.14329029E-02 -2.16674394E-07 -3.62352272E-07  2.01671642E-06
  1.50494554E-01 -4.69573126E-14  1.02259081E-06  3.18740806E-06  2.24394495E-01
 -6.78943670E-14  1.94359966E-06  1.96727095E-06  1.22128330E-01 -1.74822501E-14
  2.54297489E-07  1.38041691E-08 -1.19060308E-03  2.30858541E-15  2.79263936E-08
 -1.17805676E-14 -1.51469615E-11  1.00296897E-06  3.33044366E-02  1.00806870E-01
  1.55083526E-01  7.83143362E-02  7.97231809E-03  3.11492014E-03  7.77374424E-13
 -1.00806631E-01 -1.55082970E-01 -7.83143396E-02 -7.97221232E-03  3.11507679E-03
 -7.71197438E-13  1.06808971E-01  1.64317291E-01  8.29772185E-02 -8.44699465E-03
 -3.30038434E-03  3.85785261E-12 -1.06808718E-01 -1.64316703E-01 -8.29772220E-02
  8.44688259E-03 -3.30055032E-03 -3.85675190E-12 -3.90174644E-02 -6.48058497E-02
  1.62029227E-01 -2.41780448E-06  1.45939890E-11  1.88605452E-01  2.33602386E-01
 -3.33864031E-06  2.07725378E-11  2.95241343E-01  2.12953467E-01 -2.97835249E-06
  1.94354272E-11  4.23332803E-02  3.72718548E-02 -5.07686547E-07  2.23865800E-12
  1.76288551E-02 -4.09130163E-12 -4.07335736E-15 -1.65996011E-02  4.93493070E-07
 -3.90174852E-02 -6.48058844E-02 -1.62029314E-01  2.41780575E-06  7.40604302E-11
  1.88605553E-01 -2.33602511E-01  3.33864208E-06  1.06386018E-10  2.95241501E-01
 -2.12953581E-01  2.97835405E-06  9.73123365E-11  4.23333030E-02 -3.72718747E-02
  5.07686800E-07  1.74592869E-11  1.76288646E-02  2.14717103E-11  4.45317617E-15
 -1.65996100E-02  4.93493336E-07 -4.88317550E-02 -9.03103390E-02 -6.06683527E-02
  7.27186036E-03 -9.88588183E-03  6.76041931E-13 -4.88315943E-02 -9.03099848E-02
 -6.06679732E-02  7.27217486E-03  9.88569495E-03  6.78593919E-13 -4.88317812E-02
 -9.03103873E-02 -6.06683852E-02 -7.27186425E-03  9.88588713E-03  3.31433548E-12
 -4.88316204E-02 -9.03100332E-02 -6.06680057E-02 -7.27217875E-03 -9.88570024E-03
  3.32100863E-12 -3.90174891E-02 -6.48058861E-02  1.62029346E-01 -2.41780628E-06
  1.45940968E-11  1.88605493E-01  2.33602468E-01 -3.33864055E-06  2.07727651E-11
  2.95241910E-01  2.12953881E-01 -2.97835657E-06  1.94359161E-11  4.23335453E-02
  3.72711204E-02 -5.07692987E-07  2.23712839E-12  1.76288734E-02 -4.09141369E-12
 -4.01669841E-15 -1.65996142E-02  4.93492391E-07  3.90174682E-02  6.48058514E-02
  1.62029259E-01 -2.41780496E-06 -7.40603863E-11 -1.88605392E-01  2.33602342E-01
 -3.33863874E-06 -1.06386842E-10 -2.95241752E-01  2.12953767E-01 -2.97835494E-06
 -9.73117624E-11 -4.23335226E-02  3.72711005E-02 -5.07692695E-07 -1.74588304E-11
 -1.76288640E-02 -2.14719485E-11 -3.84953357E-15  1.65996053E-02 -4.93492129E-07
 -4.88318036E-02 -9.03102627E-02 -6.06688358E-02  7.27185423E-03 -9.88588775E-03
  6.75952042E-13 -4.88316428E-02 -9.03099086E-02 -6.06684563E-02  7.27216873E-03
  9.88570087E-03  6.78405312E-13  4.88317775E-02  9.03102144E-02  6.06688033E-02
  7.27185034E-03 -9.88588246E-03 -3.31441697E-12  4.88316167E-02  9.03098603E-02
  6.06684238E-02  7.27216484E-03  9.88569558E-03 -3.32041958E-12 -1.84903724E-13
 -2.13928373E-13 -1.51447439E-11 -7.34541195E-14  1.62098477E-01 -2.87430502E-12
 -2.42380660E-11 -1.20151311E-13  2.56298428E-01  3.26581103E-11 -4.25816723E-11
 -1.97584092E-13  3.02449928E-01  3.73249672E-11 -3.27970828E-11 -1.04449944E-13
  1.80540277E-01 -3.95856513E-12 -1.72519287E-02  2.98785865E-07  1.47832461E-12
  1.35818144E-14  8.63398482E-14  2.00210339E-13  7.35656303E-11  6.94493898E-14
  1.62098442E-01 -8.94813541E-13  1.17432976E-10  1.18068465E-13  2.56298373E-01
  8.42665849E-13  1.37671467E-10  1.90002460E-13  3.02449863E-01  1.28002109E-12
  8.31911993E-11  1.01439813E-13  1.80540238E-01 -1.41535135E-11  1.72519250E-02
 -2.98785798E-07  7.62513199E-12  1.54589937E-14 -1.07434815E-12 -2.88726361E-12
 -3.56534472E-11 -2.14337959E-12 -1.25330073E-12  1.63135470E-02 -1.04562885E-12
 -2.81748672E-12 -3.54829310E-11 -2.13509208E-12  1.23041383E-12  1.63136134E-02
  7.58378187E-14 -1.16327142E-14 -8.76478630E-13  7.63983560E-12  1.88512791E-13
  1.63135435E-02  1.03806688E-13  6.46983168E-14 -7.05162707E-13  7.62812475E-12
 -1.62435581E-13  1.63136099E-02 -1.85120065E-13 -2.13624991E-13 -1.51448191E-11
 -7.32205637E-14  1.62098475E-01 -2.87447464E-12 -2.42380826E-11 -1.20231947E-13
  2.56298376E-01  3.26551373E-11 -4.25839463E-11 -1.98116016E-13  3.02450066E-01
  3.73221952E-11 -3.27908000E-11 -1.01436878E-13  1.80539933E-01 -3.95857910E-12
 -1.72519288E-02  2.98785876E-07  1.47788689E-12  1.35470216E-14 -8.64826551E-14
 -1.99944451E-13 -7.35655907E-11 -6.95599100E-14 -1.62098510E-01  8.93490982E-13
 -1.17433343E-10 -1.17013698E-13 -2.56298431E-01 -8.36444963E-13 -1.37668916E-10