Title Card Required                                                     
FOpt      UM062X                                                      6-311+G(d,p)        
Number of atoms                            I                6
Info1-9                                    I   N=           9
          15          15           0           0           0         110
           2          18        -502
Full Title                                 C   N=           2
Title Card Required     
Route                                      C   N=           6
#p opt UM062X/6-311+G** nosymm int=superfine SCF=NoVarAcc SC
F=tight     
Charge                                     I                1
Multiplicity                               I                2
Number of electrons                        I               15
Number of alpha electrons                  I                8
Number of beta electrons                   I                7
Number of basis functions                  I               68
Number of independent functions            I               68
Number of point charges in /Mol/           I                0
Number of translation vectors              I                0
Atomic numbers                             I   N=           6
           6           6           1           1           1           1
Nuclear charges                            R   N=           6
  6.00000000E+00  6.00000000E+00  1.00000000E+00  1.00000000E+00  1.00000000E+00
  1.00000000E+00
Current cartesian coordinates              R   N=          18
 -3.02550255E+00  0.00000000E+00  0.00000000E+00  3.02550255E+00  0.00000000E+00
  0.00000000E+00 -4.08401686E+00 -1.77796655E+00 -2.64425499E-09 -4.08392156E+00
  1.77802268E+00 -2.85668610E-09  4.08401686E+00  1.77796655E+00  2.90310941E-09
  4.08392156E+00 -1.77802268E+00  2.69064363E-09
Number of symbols in /Mol/                 I                0
Force Field                                I                0
Atom Types                                 C   N=           6
                                                            
            
Int Atom Types                             I   N=           6
           0           0           0           0           0           0
MM charges                                 R   N=           6
  0.00000000E+00  0.00000000E+00  0.00000000E+00  0.00000000E+00  0.00000000E+00
  0.00000000E+00
Integer atomic weights                     I   N=           6
          12          12           1           1           1           1
Real atomic weights                        R   N=           6
  1.20000000E+01  1.20000000E+01  1.00782504E+00  1.00782504E+00  1.00782504E+00
  1.00782504E+00
Atom fragment info                         I   N=           6
           0           0           0           0           0           0
Atom residue num                           I   N=           6
           0           0           0           0           0           0
Nuclear spins                              I   N=           6
           0           0           1           1           1           1
Nuclear ZEff                               R   N=           6
 -3.60000000E+00 -3.60000000E+00 -1.00000000E+00 -1.00000000E+00 -1.00000000E+00
 -1.00000000E+00
Nuclear ZNuc                               R   N=           6
  6.00000000E+00  6.00000000E+00  1.00000000E+00  1.00000000E+00  1.00000000E+00
  1.00000000E+00
Nuclear QMom                               R   N=           6
  0.00000000E+00  0.00000000E+00  0.00000000E+00  0.00000000E+00  0.00000000E+00
  0.00000000E+00
Nuclear GFac                               R   N=           6
  0.00000000E+00  0.00000000E+00  2.79284600E+00  2.79284600E+00  2.79284600E+00
  2.79284600E+00
MicOpt                                     I   N=           6
          -2          -2          -1          -1          -1          -1
Number of residues                         I                0
Number of secondary structures             I                0
Redundant internal dimensions              I   N=           4
          20          10           6           4
Redundant internal coordinate indices      I   N=          80
           1          -1           0           0           1          -2
           0           0           1          -3           0           0
           2          -1           0           0           2          -2
           0           0           2          -3           0           0
           1           3           0           0           1           4
           0           0           2           5           0           0
           2           6           0           0           2           1
           3           0           2           1           4           0
           3           1           4           0           1           2
           5           0           1           2           6           0
           5           2           6           0           3           1
           2           5           3           1           2           6
           4           1           2           5           4           1
           2           6
Redundant internal coordinates             R   N=          20
 -3.02550255E+00  0.00000000E+00  0.00000000E+00  3.02550255E+00  0.00000000E+00
  0.00000000E+00  2.06920700E+00  2.06920648E+00  2.06920700E+00  2.06920648E+00
  2.10779050E+00  2.10773705E+00  2.06765777E+00  2.10779050E+00  2.10773705E+00
  2.06765777E+00  3.14159265E+00 -0.00000000E+00  0.00000000E+00  3.14159265E+00
ZRed-IntVec                                I   N=          20
          -1          -1          -1          -1          -1          -1
           0           0           0           0           0           0
           0           0           0           0           0           0
           0           0
ZRed-FPVec                                 R   N=          20
  0.00000000E+00  0.00000000E+00  0.00000000E+00  0.00000000E+00  0.00000000E+00
  0.00000000E+00  0.00000000E+00  0.00000000E+00  0.00000000E+00  0.00000000E+00
  0.00000000E+00  0.00000000E+00  0.00000000E+00  0.00000000E+00  0.00000000E+00
  0.00000000E+00  0.00000000E+00  0.00000000E+00  0.00000000E+00  0.00000000E+00
ZRed-Constraint1                           R   N=          20
 -3.02550255E+00  0.00000000E+00  0.00000000E+00  3.02550255E+00  0.00000000E+00
  0.00000000E+00  2.05067934E+00  2.05048469E+00  2.05067934E+00  2.05048469E+00
  1.98162443E+00  1.98155420E+00  2.32000667E+00  1.98162443E+00  1.98155420E+00
  2.32000667E+00  3.14159265E+00  0.00000000E+00  0.00000000E+00  3.14159265E+00
ZRed-Constraint2                           R   N=          20
 -3.02550255E+00  0.00000000E+00  0.00000000E+00  3.02550255E+00  0.00000000E+00
  0.00000000E+00  0.00000000E+00  0.00000000E+00  0.00000000E+00  0.00000000E+00
  0.00000000E+00  0.00000000E+00  0.00000000E+00  0.00000000E+00  0.00000000E+00
  0.00000000E+00  0.00000000E+00  0.00000000E+00  0.00000000E+00  0.00000000E+00
Number of contracted shells                I               28
Number of primitive shells                 I               50
Pure/Cartesian d shells                    I                0
Pure/Cartesian f shells                    I                0
Highest angular momentum                   I                2
Largest degree of contraction              I                6
Shell types                                I   N=          28
           0          -1          -1          -1          -1          -2
           0          -1          -1          -1          -1          -2
           0           0           0           1           0           0
           0           1           0           0           0           1
           0           0           0           1
Number of primitives per shell             I   N=          28
           6           3           1           1           1           1
           6           3           1           1           1           1
           3           1           1           1           3           1
           1           1           3           1           1           1
           3           1           1           1
Shell to atom map                          I   N=          28
           1           1           1           1           1           1
           2           2           2           2           2           2
           3           3           3           3           4           4
           4           4           5           5           5           5
           6           6           6           6
Primitive exponents                        R   N=          50
  4.56324000E+03  6.82024000E+02  1.54973000E+02  4.44553000E+01  1.30290000E+01
  1.82773000E+00  2.09642000E+01  4.80331000E+00  1.45933000E+00  4.83456000E-01
  1.45585000E-01  4.38000000E-02  6.26000000E-01  4.56324000E+03  6.82024000E+02
  1.54973000E+02  4.44553000E+01  1.30290000E+01  1.82773000E+00  2.09642000E+01
  4.80331000E+00  1.45933000E+00  4.83456000E-01  1.45585000E-01  4.38000000E-02
  6.26000000E-01  3.38650000E+01  5.09479000E+00  1.15879000E+00  3.25840000E-01
  1.02741000E-01  7.50000000E-01  3.38650000E+01  5.09479000E+00  1.15879000E+00
  3.25840000E-01  1.02741000E-01  7.50000000E-01  3.38650000E+01  5.09479000E+00
  1.15879000E+00  3.25840000E-01  1.02741000E-01  7.50000000E-01  3.38650000E+01
  5.09479000E+00  1.15879000E+00  3.25840000E-01  1.02741000E-01  7.50000000E-01
Contraction coefficients                   R   N=          50
  1.96665025E-03  1.52306019E-02  7.61269097E-02  2.60801033E-01  6.16462078E-01
  2.21006028E-01  1.14660081E-01  9.19999648E-01 -3.03068213E-03  1.00000000E+00
  1.00000000E+00  1.00000000E+00  1.00000000E+00  1.96665025E-03  1.52306019E-02
  7.61269097E-02  2.60801033E-01  6.16462078E-01  2.21006028E-01  1.14660081E-01
  9.19999648E-01 -3.03068213E-03  1.00000000E+00  1.00000000E+00  1.00000000E+00
  1.00000000E+00  2.54938145E-02  1.90373109E-01  8.52161486E-01  1.00000000E+00
  1.00000000E+00  1.00000000E+00  2.54938145E-02  1.90373109E-01  8.52161486E-01
  1.00000000E+00  1.00000000E+00  1.00000000E+00  2.54938145E-02  1.90373109E-01
  8.52161486E-01  1.00000000E+00  1.00000000E+00  1.00000000E+00  2.54938145E-02
  1.90373109E-01  8.52161486E-01  1.00000000E+00  1.00000000E+00  1.00000000E+00
P(S=P) Contraction coefficients            R   N=          50
  0.00000000E+00  0.00000000E+00  0.00000000E+00  0.00000000E+00  0.00000000E+00
  0.00000000E+00  4.02486927E-02  2.37593957E-01  8.15853851E-01  1.00000000E+00
  1.00000000E+00  1.00000000E+00  0.00000000E+00  0.00000000E+00  0.00000000E+00
  0.00000000E+00  0.00000000E+00  0.00000000E+00  0.00000000E+00  4.02486927E-02
  2.37593957E-01  8.15853851E-01  1.00000000E+00  1.00000000E+00  1.00000000E+00
  0.00000000E+00  0.00000000E+00  0.00000000E+00  0.00000000E+00  0.00000000E+00
  0.00000000E+00  0.00000000E+00  0.00000000E+00  0.00000000E+00  0.00000000E+00
  0.00000000E+00  0.00000000E+00  0.00000000E+00  0.00000000E+00  0.00000000E+00
  0.00000000E+00  0.00000000E+00  0.00000000E+00  0.00000000E+00  0.00000000E+00
  0.00000000E+00  0.00000000E+00  0.00000000E+00  0.00000000E+00  0.00000000E+00
Coordinates of each shell                  R   N=          84
 -3.02550255E+00  0.00000000E+00  0.00000000E+00 -3.02550255E+00  0.00000000E+00
  0.00000000E+00 -3.02550255E+00  0.00000000E+00  0.00000000E+00 -3.02550255E+00
  0.00000000E+00  0.00000000E+00 -3.02550255E+00  0.00000000E+00  0.00000000E+00
 -3.02550255E+00  0.00000000E+00  0.00000000E+00  3.02550255E+00  0.00000000E+00
  0.00000000E+00  3.02550255E+00  0.00000000E+00  0.00000000E+00  3.02550255E+00
  0.00000000E+00  0.00000000E+00  3.02550255E+00  0.00000000E+00  0.00000000E+00
  3.02550255E+00  0.00000000E+00  0.00000000E+00  3.02550255E+00  0.00000000E+00
  0.00000000E+00 -4.08401686E+00 -1.77796655E+00 -2.64425499E-09 -4.08401686E+00
 -1.77796655E+00 -2.64425499E-09 -4.08401686E+00 -1.77796655E+00 -2.64425499E-09
 -4.08401686E+00 -1.77796655E+00 -2.64425499E-09 -4.08392156E+00  1.77802268E+00
 -2.85668610E-09 -4.08392156E+00  1.77802268E+00 -2.85668610E-09 -4.08392156E+00
  1.77802268E+00 -2.85668610E-09 -4.08392156E+00  1.77802268E+00 -2.85668610E-09
  4.08401686E+00  1.77796655E+00  2.90310941E-09  4.08401686E+00  1.77796655E+00
  2.90310941E-09  4.08401686E+00  1.77796655E+00  2.90310941E-09  4.08401686E+00
  1.77796655E+00  2.90310941E-09  4.08392156E+00 -1.77802268E+00  2.69064363E-09
  4.08392156E+00 -1.77802268E+00  2.69064363E-09  4.08392156E+00 -1.77802268E+00
  2.69064363E-09  4.08392156E+00 -1.77802268E+00  2.69064363E-09
Num ILSW                                   I              100
ILSW                                       I   N=         100
           1           0           0           1           2           0
           0           0           0           0        4336          -1
           7           0           0           0           2           0
           0           0           0           0           1           0
           1           1           0           0           0           0
           0           0      100000           0          -1           0
           0           0           0           0           0           0
           0           0           0           1           0           0
           0 -2000000000           1           0           0           0
           0           0           4          52           0           0
           0           0          55           0           0           0
           0           0           0           6           0           1
           0           0           0           0           0           0
           0           0           0           0           0           0
           0           0           0           0           0           0
           0           0           0           0           0           0
           0           0           0           0
Num RLSW                                   I               52
RLSW                                       R   N=          52
  1.00000000E+00  1.00000000E+00  1.00000000E+00  1.00000000E+00  5.40000000E-01
  0.00000000E+00  0.00000000E+00  1.00000000E+00  0.00000000E+00  0.00000000E+00
  0.00000000E+00  0.00000000E+00  1.00000000E+00  0.00000000E+00  0.00000000E+00
  0.00000000E+00  0.00000000E+00  1.00000000E+00  0.00000000E+00  0.00000000E+00
  0.00000000E+00  0.00000000E+00  1.00000000E+00  0.00000000E+00  0.00000000E+00
  0.00000000E+00  0.00000000E+00  1.00000000E+00  0.00000000E+00  0.00000000E+00
  0.00000000E+00  0.00000000E+00  1.00000000E+00  0.00000000E+00  0.00000000E+00
  0.00000000E+00  0.00000000E+00  0.00000000E+00  1.00000000E+00  1.00000000E+00
  0.00000000E+00  1.00000000E+00  0.00000000E+00  0.00000000E+00  0.00000000E+00
  0.00000000E+00  0.00000000E+00  0.00000000E+00  0.00000000E+00  0.00000000E+00
  0.00000000E+00  0.00000000E+00
MxBond                                     I                3
NBond                                      I   N=           6
           3           3           1           1           1           1
IBond                                      I   N=          18
           2           3           4           1           5           6
           1           0           0           1           0           0
           2           0           0           2           0           0
RBond                                      R   N=          18
  1.00000000E-01  1.00000000E+00  1.00000000E+00  1.00000000E-01  1.00000000E+00
  1.00000000E+00  1.00000000E+00  0.00000000E+00  0.00000000E+00  1.00000000E+00
  0.00000000E+00  0.00000000E+00  1.00000000E+00  0.00000000E+00  0.00000000E+00
  1.00000000E+00  0.00000000E+00  0.00000000E+00
Virial Ratio                               R      2.004764878375501E+00
SCF Energy                                 R     -7.792517883280607E+01
Total Energy                               R     -7.792517883280607E+01
S**2                                       R      7.614979548592080E-01
S**2 after annihilation                    R      7.500144499702942E-01
RMS Force                                  R      6.616648029881107E-06
RMS Density                                R      2.847031346781858E-09
Job Status                                 I                1
Nuclear derivative order                   I                1
External E-field                           R   N=          35
  0.00000000E+00  0.00000000E+00  0.00000000E+00  0.00000000E+00  0.00000000E+00
  0.00000000E+00  0.00000000E+00  0.00000000E+00  0.00000000E+00  0.00000000E+00
  0.00000000E+00  0.00000000E+00  0.00000000E+00  0.00000000E+00  0.00000000E+00
  0.00000000E+00  0.00000000E+00  0.00000000E+00  0.00000000E+00  0.00000000E+00
  0.00000000E+00  0.00000000E+00  0.00000000E+00  0.00000000E+00  0.00000000E+00
  0.00000000E+00  0.00000000E+00  0.00000000E+00  0.00000000E+00  0.00000000E+00
  0.00000000E+00  0.00000000E+00  0.00000000E+00  0.00000000E+00  0.00000000E+00
IOpCl                                      I                1
IROHF                                      I                0
Alpha Orbital Energies                     R   N=          68
 -1.08922245E+01 -1.08922194E+01 -1.00624345E+00 -1.00269894E+00 -7.51805049E-01
 -7.49943382E-01 -6.03891592E-01 -5.58294074E-01 -3.28205454E-01 -3.17654838E-01
 -1.31745552E-01 -1.09628768E-01 -9.66487784E-02 -7.59270557E-02 -6.83598158E-02
 -5.37211527E-02 -4.54840701E-02 -1.82716595E-02 -1.04146635E-02 -2.28159353E-03
  1.96086576E-02  6.99103640E-02  2.44205476E-01  2.65942887E-01  2.79946276E-01
  2.92455795E-01  3.23118144E-01  3.62625298E-01  4.00967196E-01  4.16387046E-01
  4.54573247E-01  4.89476865E-01  4.97259260E-01  5.87865582E-01  8.43511141E-01
  8.43554280E-01  9.31211806E-01  9.78906736E-01  9.92891567E-01  1.03033387E+00
  1.20100165E+00  1.25625640E+00  1.29591015E+00  1.30592163E+00  1.48273659E+00
  1.48521095E+00  1.57221689E+00  1.57432332E+00  1.71381554E+00  1.71395967E+00
  1.82618295E+00  1.83883609E+00  2.15400335E+00  2.22205076E+00  2.24866934E+00
  2.27588705E+00  2.28607276E+00  2.28948845E+00  2.40766834E+00  2.41560757E+00
  2.47947275E+00  2.50641830E+00  2.71177502E+00  2.75116330E+00  3.45404166E+00
  3.46694890E+00  2.34996941E+01  2.35117319E+01
Beta Orbital Energies                      R   N=          68
 -1.08836775E+01 -1.08836604E+01 -9.84248742E-01 -9.79299168E-01 -7.41595525E-01
 -7.39496304E-01 -5.03080007E-01 -3.39221468E-01 -3.09659674E-01 -2.96836521E-01
 -1.30305805E-01 -1.10505709E-01 -9.54562233E-02 -7.42146876E-02 -6.81144467E-02
 -4.70897570E-02 -4.15141766E-02 -1.55712948E-02 -4.94609357E-03  1.26034623E-03
  2.00043210E-02  7.73342559E-02  2.35958402E-01  2.65222587E-01  2.78987282E-01
  2.95658133E-01  3.50757001E-01  3.63870995E-01  4.07223328E-01  4.32144371E-01
  4.70187961E-01  5.01393030E-01  5.09400992E-01  6.07902833E-01  8.60634041E-01
  8.60692342E-01  9.57748821E-01  9.98675793E-01  1.01392106E+00  1.05435853E+00
  1.21578265E+00  1.27239625E+00  1.31005913E+00  1.32044590E+00  1.49549324E+00
  1.49721043E+00  1.57914832E+00  1.58071160E+00  1.72302930E+00  1.72322868E+00
  1.83869656E+00  1.85220160E+00  2.16944398E+00  2.24255417E+00  2.27259341E+00
  2.31000088E+00  2.31437667E+00  2.32233686E+00  2.42888456E+00  2.43254669E+00
  2.49569238E+00  2.52379686E+00  2.75429614E+00  2.79329330E+00  3.49412751E+00
  3.50704989E+00  2.35066577E+01  2.35187223E+01
Alpha MO coefficients                      R   N=        4624
 -3.98867610E-01 -3.28057647E-01  5.07828856E-04 -1.25205867E-08  1.50827386E-13
 -8.01450236E-03  1.24290830E-03 -3.47804784E-08  4.07818966E-12  2.72372115E-03
  1.92559128E-04  1.47873285E-08 -4.01518459E-13 -1.49878065E-04 -8.30062285E-04
  1.04565862E-08 -8.93799240E-13  7.79443170E-04 -1.97563321E-12  1.39741728E-13
  6.37079871E-04 -3.62138704E-08  3.99035258E-01  3.28195539E-01  5.08015954E-04
 -1.25262640E-08  1.50143708E-13  8.01782367E-03  1.24354256E-03 -3.47953756E-08
  4.14919397E-12 -2.72477043E-03  1.92456500E-04  1.47772346E-08 -4.06365743E-13
  1.49621107E-04 -8.30230480E-04  1.04491319E-08 -9.19033135E-13 -7.79782835E-04
  2.01058348E-12  1.40192308E-13 -6.37351060E-04  3.62273652E-08 -2.20006392E-04
  2.09550508E-03 -1.57282010E-03  6.93874946E-04  1.14584112E-03  1.72810314E-12
 -2.20002452E-04  2.09548427E-03 -1.57282687E-03  6.93809303E-04 -1.14587696E-03
  1.85100114E-12  2.20095543E-04 -2.09639454E-03  1.57352083E-03  6.94188719E-04
  1.14633162E-03  1.88182802E-12  2.20091602E-04 -2.09637373E-03  1.57352758E-03
  6.94123052E-04 -1.14636748E-03  1.75959250E-12  3.99036107E-01  3.28211822E-01
 -4.45351815E-04  1.35122301E-08 -1.67731708E-13  7.90542373E-03 -1.50961016E-03
  3.54665234E-08 -4.15254308E-12 -2.49755701E-03  2.44182081E-04  2.40610238E-08
  3.69438140E-13 -6.11450993E-04  4.00427711E-04  1.77743694E-08  1.51412454E-12
 -8.08467056E-04  2.00628711E-12 -1.43789393E-13 -6.45480894E-04  3.21096272E-08
  3.98868460E-01  3.28073936E-01  4.45138371E-04 -1.35069685E-08  1.67521816E-13
  7.90205516E-03  1.50908773E-03 -3.54518971E-08  4.22492483E-12 -2.49641222E-03
 -2.44262979E-04 -2.40672313E-08 -3.80715187E-13 -6.11513923E-04 -4.00078865E-04
 -1.77787612E-08 -1.52877589E-12 -8.08139446E-04  2.03840642E-12  1.43852721E-13
 -6.45213122E-04  3.20944104E-08  2.12198993E-04 -2.11708247E-03  1.66787554E-03
 -7.46833117E-04 -1.16748220E-03 -1.79165321E-12  2.12198394E-04 -2.11708785E-03
  1.66779219E-03 -7.46775754E-04  1.16752422E-03 -1.91629955E-12  2.12106523E-04
 -2.11620170E-03  1.66721446E-03  7.46541469E-04  1.16700059E-03  1.94695963E-12
  2.12105925E-04 -2.11620710E-03  1.66713111E-03  7.46484134E-04 -1.16704260E-03
  1.82260800E-12 -7.95481983E-02 -1.29047712E-01 -3.20376175E-02  8.66505678E-07
 -7.95209893E-11  3.65229209E-01 -4.62507822E-02  1.26363884E-06 -1.06211115E-10
  2.32277059E-01 -1.76462034E-02  3.07767566E-07 -4.46221818E-11  1.91093607E-03
 -3.46484104E-03 -1.93331699E-07 -1.75062033E-11 -5.03010415E-03  1.77204637E-11
 -6.76024979E-13 -3.58282489E-03  1.89274146E-07 -7.95482206E-02 -1.29047748E-01
  3.20376272E-02 -8.66505920E-07  8.08819186E-11  3.65229311E-01  4.62507967E-02
 -1.26363920E-06  1.08049125E-10  2.32277124E-01  1.76462085E-02 -3.07767687E-07
  4.55409947E-11  1.91093187E-03  3.46484425E-03  1.93331697E-07  1.76008834E-11
 -5.03010558E-03  1.79926304E-11  6.74901913E-13 -3.58282601E-03  1.89274200E-07
  7.68275627E-02  9.12855540E-02 -4.76547185E-03  5.61110121E-03  1.30881625E-02
  1.37678805E-11  7.68275570E-02  9.12854385E-02 -4.76468415E-03  5.61042686E-03
 -1.30884448E-02  1.52885982E-11  7.68275845E-02  9.12855797E-02 -4.76547256E-03
 -5.61110273E-03 -1.30881662E-02 -1.55286314E-11  7.68275788E-02  9.12854642E-02
 -4.76468486E-03 -5.61042838E-03  1.30884484E-02 -1.40075763E-11 -7.95284151E-02
 -1.28987282E-01 -3.48466820E-02  8.74032437E-07 -8.19821148E-11  3.64569691E-01
 -5.19820946E-02  1.29101046E-06 -1.12170561E-10  2.34498914E-01 -1.84899137E-02
  4.01488437E-07 -4.26760765E-11 -1.49340323E-02 -1.14770427E-02 -7.71052122E-09
 -4.15634712E-12 -5.11867176E-03  1.88538274E-11 -7.13783349E-13 -4.01491314E-03
  1.93533323E-07  7.95283929E-02  1.28987246E-01 -3.48466730E-02  8.74032194E-07
 -8.33886234E-11 -3.64569589E-01 -5.19820816E-02  1.29101011E-06 -1.14074230E-10
 -2.34498849E-01 -1.84899088E-02  4.01488354E-07 -4.35696627E-11  1.49340329E-02
 -1.14770417E-02 -7.71045336E-09 -4.38492460E-12  5.11867036E-03 -1.91488494E-11
 -7.12709136E-13  4.01491215E-03 -1.93533272E-07  7.79999493E-02  9.22164905E-02
 -2.46927425E-03  5.44587226E-03  1.30906490E-02  1.32825168E-11  7.79998751E-02
  9.22162651E-02 -2.46888035E-03  5.44515788E-03 -1.30909094E-02  1.48063144E-11
 -7.79999278E-02 -9.22164649E-02  2.46927294E-03  5.44587069E-03  1.30906454E-02
  1.50448405E-11 -7.79998536E-02 -9.22162395E-02  2.46887904E-03  5.44515631E-03
 -1.30909057E-02  1.35205912E-11 -9.40145996E-09 -9.92323991E-09  3.95484564E-06
  1.59018136E-01 -9.38425021E-12 -5.22099495E-09  5.74272445E-06  2.36014047E-01
 -1.37583918E-11 -1.86932306E-07  3.11481145E-06  1.17938037E-01 -6.73830461E-12
  3.47230311E-07  1.28527595E-07 -1.43010980E-03  3.72604932E-13  8.18388042E-10
  1.30359992E-12 -5.57893464E-11 -1.29347423E-06 -2.41951685E-02  9.40147918E-09
  9.92327650E-09  3.95484788E-06  1.59018213E-01  9.38488368E-12  5.22083669E-09
  5.74272780E-06  2.36014162E-01  1.37565741E-11  1.86932406E-07  3.11481312E-06
  1.17938097E-01  6.74290268E-12 -3.47230303E-07  1.28527735E-07 -1.43010849E-03
 -3.75996953E-13 -8.18406955E-10  1.30659914E-12  5.67551197E-11  1.29347488E-06
  2.41951807E-02 -1.04851351E-01 -1.49069869E-01 -3.46684756E-02 -8.51417886E-03
 -7.51990618E-03 -2.01028719E-11  1.04851541E-01  1.49070214E-01  3.46685877E-02
  8.51375383E-03 -7.52039066E-03  2.09176250E-11  1.04851402E-01  1.49069941E-01
  3.46684891E-02 -8.51418280E-03 -7.51990975E-03 -2.12507682E-11 -1.04851592E-01
 -1.49070286E-01 -3.46686012E-02  8.51375777E-03 -7.52039424E-03  2.04364173E-11
 -3.67103967E-08 -6.53328458E-08  4.58853905E-06  1.59712120E-01 -9.49981442E-12
  2.94006706E-07  6.87473777E-06  2.35822306E-01 -1.40118646E-11 -1.81052817E-07
  3.42103576E-06  1.24997564E-01 -7.06520219E-12  1.66797601E-08  2.77294365E-07
  2.70978949E-03  5.73696594E-14  3.89034278E-08  1.31984637E-12 -5.77112784E-11
 -1.33119152E-06 -2.52949093E-02 -3.67103961E-08 -6.53328499E-08 -4.58853717E-06
 -1.59712043E-01 -9.50314826E-12  2.94006734E-07 -6.87473503E-06 -2.35822192E-01
 -1.40166266E-11 -1.81052721E-07 -3.42103428E-06 -1.24997506E-01 -7.06896383E-12
  1.66795411E-08 -2.77294284E-07 -2.70979017E-03  5.85087142E-14  3.89034291E-08
 -1.32334950E-12 -5.87084798E-11 -1.33119089E-06 -2.52948976E-02 -1.05515256E-01
 -1.48597707E-01 -2.81409395E-02 -8.13535119E-03 -7.36100861E-03 -1.95104712E-11
  1.05515019E-01  1.48597231E-01  2.81411507E-02  8.13500463E-03 -7.36140971E-03
  2.02761123E-11 -1.05515205E-01 -1.48597635E-01 -2.81409226E-02  8.13534707E-03
  7.36100498E-03  2.05990239E-11  1.05514968E-01  1.48597159E-01  2.81411338E-02
 -8.13500052E-03  7.36140608E-03 -1.98334905E-11 -2.75189717E-02 -4.65151248E-02
  1.84656167E-01 -5.40619528E-06  4.07763972E-10  1.50555256E-01  2.79258459E-01
 -8.13898935E-06  6.12241063E-10  1.72549358E-01  2.13152468E-01 -6.48190455E-06
  4.69601698E-10  1.09931381E-02  1.13296310E-02 -5.17201132E-07  2.26004119E-11
  1.16850085E-02 -5.18115860E-11  7.71831860E-13 -3.83867927E-03  3.52348519E-07
 -2.75189725E-02 -4.65151261E-02 -1.84656172E-01  5.40619542E-06 -4.14565021E-10
  1.50555261E-01 -2.79258466E-01  8.13898956E-06 -6.22560952E-10  1.72549363E-01
 -2.13152474E-01  6.48190470E-06 -4.77068790E-10  1.09931386E-02 -1.13296313E-02
  5.17201148E-07 -2.26928336E-11  1.16850088E-02 -5.27241368E-11 -7.68711830E-13
 -3.83867943E-03  3.52348516E-07 -4.82855861E-02 -7.63311514E-02 -2.51781354E-02
  7.45233457E-03 -9.06644631E-03  1.42928424E-11 -4.82862847E-02 -7.63319031E-02
 -2.51778120E-02  7.45285373E-03  9.06606503E-03  1.32907442E-11 -4.82855872E-02
 -7.63311532E-02 -2.51781360E-02 -7.45233474E-03  9.06644654E-03 -1.35432519E-11
 -4.82862858E-02 -7.63319048E-02 -2.51778126E-02 -7.45285391E-03 -9.06606526E-03
 -1.45455441E-11 -3.53624476E-02 -5.96358842E-02  1.99649655E-01 -4.94219838E-06
  5.32525595E-10  1.91612650E-01  2.91451477E-01 -7.33643798E-06  8.07147135E-10
  2.19591301E-01  2.56700151E-01 -6.12110468E-06  6.77062311E-10  3.22650251E-02
  2.20524831E-02 -2.14797317E-07  3.09313990E-11  1.42381215E-02 -5.53357362E-11
  7.44644258E-13 -8.08650877E-03  9.27716737E-08  3.53624470E-02  5.96358831E-02
  1.99649651E-01 -4.94219829E-06  5.41096333E-10 -1.91612646E-01  2.91451471E-01
 -7.33643783E-06  8.20061895E-10 -2.19591296E-01  2.56700146E-01 -6.12110456E-06
  6.87526124E-10 -3.22650247E-02  2.20524827E-02 -2.14797354E-07  3.16809148E-11
 -1.42381212E-02  5.63977801E-11  7.42489789E-13  8.08650866E-03 -9.27716594E-08
 -4.76328184E-02 -7.69634245E-02 -2.99706578E-02  8.06853664E-03 -9.52377370E-03
  2.28277612E-11 -4.76320225E-02 -7.69624806E-02 -2.99709913E-02  8.06894781E-03
  9.52335140E-03  2.18072589E-11  4.76328173E-02  7.69634227E-02  2.99706572E-02
  8.06853646E-03 -9.52377350E-03  2.21746646E-11  4.76320214E-02  7.69624788E-02
  2.99709906E-02  8.06894763E-03  9.52335120E-03  2.31951653E-11  2.58658288E-11
  4.33683658E-11 -5.68210698E-10  1.08822540E-11  1.81706214E-01 -1.43585575E-10
 -8.65652424E-10  1.84382396E-11  2.91024993E-01 -1.48890085E-10 -9.40191945E-10
  2.38497840E-11  3.11203306E-01 -5.16488797E-10 -4.13454250E-10  1.45657696E-11
  6.71282142E-02 -3.77643601E-11 -7.15247456E-03  2.05605734E-07  3.93882862E-11
 -1.62741190E-12 -2.54129790E-11 -4.25900376E-11 -5.74556125E-10 -1.08552030E-11
  1.81706232E-01  1.40891558E-10 -8.76031760E-10 -1.83960179E-11  2.91025021E-01
  1.46361539E-10 -9.50459268E-10 -2.38081907E-11  3.11203335E-01  5.18511822E-10
 -4.16549885E-10 -1.45583357E-11  6.71282210E-02  3.80388705E-11  7.15247548E-03
 -2.05605752E-07 -3.96794196E-11 -1.62625915E-12  1.47613534E-11  2.33381019E-11
  1.18061554E-10 -4.44148662E-11  9.58343405E-12  1.55710677E-02  1.45998542E-11
  2.27175349E-11  9.58249038E-11 -4.53459180E-11 -6.44751296E-12  1.55710763E-02
 -1.42522855E-11 -2.23506741E-11 -9.63663970E-11 -4.59116811E-11  6.47779931E-12
  1.55710692E-02 -1.44089393E-11 -2.29670912E-11 -1.18612492E-10 -4.49799937E-11
 -9.60943102E-12  1.55710778E-02 -2.49853954E-11 -4.26451552E-11 -3.86354308E-10
  1.07387559E-11  1.89123206E-01  1.36223365E-10 -6.39406391E-10  1.92651407E-11
  3.02373396E-01  2.16730234E-10 -6.49702951E-10  2.34951936E-11  3.22368693E-01
 -2.98695602E-11 -1.86693514E-10  7.56250699E-12  8.20955064E-02 -1.63009076E-11
 -1.05774488E-02  2.14652071E-07  1.64985632E-11 -1.49588423E-12 -2.47474851E-11
 -4.22562811E-11  3.95379582E-10  1.07197250E-11 -1.89123189E-01  1.34987055E-10
  6.53318800E-10  1.92347075E-11 -3.02373370E-01  2.15553590E-10  6.64982106E-10