 Entering Gaussian System, Link 0=g16
 Initial command:
 /home/szhao/Apps/g16/l1.exe "/home/szhao/tmp/Gau-56338.inp" -scrdir="/home/szhao/tmp/"
 Default is to use a total of  16 processors:
                               16 via shared-memory
                                1 via Linda
 Entering Link 1 = /home/szhao/Apps/g16/l1.exe PID=     56340.
  
 Copyright (c) 1988,1990,1992,1993,1995,1998,2003,2009,2016,
            Gaussian, Inc.  All Rights Reserved.
  
 This is part of the Gaussian(R) 16 program.  It is based on
 the Gaussian(R) 09 system (copyright 2009, Gaussian, Inc.),
 the Gaussian(R) 03 system (copyright 2003, Gaussian, Inc.),
 the Gaussian(R) 98 system (copyright 1998, Gaussian, Inc.),
 the Gaussian(R) 94 system (copyright 1995, Gaussian, Inc.),
 the Gaussian 92(TM) system (copyright 1992, Gaussian, Inc.),
 the Gaussian 90(TM) system (copyright 1990, Gaussian, Inc.),
 the Gaussian 88(TM) system (copyright 1988, Gaussian, Inc.),
 the Gaussian 86(TM) system (copyright 1986, Carnegie Mellon
 University), and the Gaussian 82(TM) system (copyright 1983,
 Carnegie Mellon University). Gaussian is a federally registered
 trademark of Gaussian, Inc.
  
 This software contains proprietary and confidential information,
 including trade secrets, belonging to Gaussian, Inc.
  
 This software is provided under written license and may be
 used, copied, transmitted, or stored only in accord with that
 written license.
  
 The following legend is applicable only to US Government
 contracts under FAR:
  
                    RESTRICTED RIGHTS LEGEND
  
 Use, reproduction and disclosure by the US Government is
 subject to restrictions as set forth in subparagraphs (a)
 and (c) of the Commercial Computer Software - Restricted
 Rights clause in FAR 52.227-19.
  
 Gaussian, Inc.
 340 Quinnipiac St., Bldg. 40, Wallingford CT 06492
  
  
 ---------------------------------------------------------------
 Warning -- This program may not be used in any manner that
 competes with the business of Gaussian, Inc. or will provide
 assistance to any competitor of Gaussian, Inc.  The licensee
 of this program is prohibited from giving any competitor of
 Gaussian, Inc. access to this program.  By using this program,
 the user acknowledges that Gaussian, Inc. is engaged in the
 business of creating and licensing software in the field of
 computational chemistry and represents and warrants to the
 licensee that it is not a competitor of Gaussian, Inc. and that
 it will not use this program in any manner prohibited above.
 ---------------------------------------------------------------
  

 Cite this work as:
 Gaussian 16, Revision A.03,
 M. J. Frisch, G. W. Trucks, H. B. Schlegel, G. E. Scuseria, 
 M. A. Robb, J. R. Cheeseman, G. Scalmani, V. Barone, 
 G. A. Petersson, H. Nakatsuji, X. Li, M. Caricato, A. V. Marenich, 
 J. Bloino, B. G. Janesko, R. Gomperts, B. Mennucci, H. P. Hratchian, 
 J. V. Ortiz, A. F. Izmaylov, J. L. Sonnenberg, D. Williams-Young, 
 F. Ding, F. Lipparini, F. Egidi, J. Goings, B. Peng, A. Petrone, 
 T. Henderson, D. Ranasinghe, V. G. Zakrzewski, J. Gao, N. Rega, 
 G. Zheng, W. Liang, M. Hada, M. Ehara, K. Toyota, R. Fukuda, 
 J. Hasegawa, M. Ishida, T. Nakajima, Y. Honda, O. Kitao, H. Nakai, 
 T. Vreven, K. Throssell, J. A. Montgomery, Jr., J. E. Peralta, 
 F. Ogliaro, M. J. Bearpark, J. J. Heyd, E. N. Brothers, K. N. Kudin, 
 V. N. Staroverov, T. A. Keith, R. Kobayashi, J. Normand, 
 K. Raghavachari, A. P. Rendell, J. C. Burant, S. S. Iyengar, 
 J. Tomasi, M. Cossi, J. M. Millam, M. Klene, C. Adamo, R. Cammi, 
 J. W. Ochterski, R. L. Martin, K. Morokuma, O. Farkas, 
 J. B. Foresman, and D. J. Fox, Gaussian, Inc., Wallingford CT, 2016.
 
 ******************************************
 Gaussian 16:  ES64L-G16RevA.03 25-Dec-2016
                15-May-2025 
 ******************************************
 %chk=opt.chk
 %mem=4GB
 %nprocshared=8
 Will use up to    8 processors via shared memory.
 --------------------------------------------
 #p opt UM062X/6-311+G** nosymm int=superfine
 --------------------------------------------
 1/18=20,19=15,26=5,38=1/1,3;
 2/9=110,12=2,15=1,17=6,18=5,40=1/2;
 3/5=4,6=6,7=111,11=2,25=1,30=1,71=1,74=-55,75=-7,116=2/1,2,3;
 4//1;
 5/5=2,38=5/2;
 6/7=2,8=2,9=2,10=2,28=1/1;
 7/30=1/1,2,3,16;
 1/18=20,19=15,26=5/3(2);
 2/9=110,15=1/2;
 99//99;
 2/9=110,15=1/2;
 3/5=4,6=6,7=111,11=2,25=1,30=1,71=1,74=-55,75=-7,116=2/1,2,3;
 4/5=5,16=3,69=1/1;
 5/5=2,38=5/2;
 7/30=1/1,2,3,16;
 1/18=20,19=15,26=5/3(-5);
 2/9=110,15=1/2;
 6/7=2,8=2,9=2,10=2,19=2,28=1/1;
 99/9=1/99;
 Leave Link    1 at Thu May 15 15:39:13 2025, MaxMem=   536870912 cpu:               0.2 elap:               0.0
 (Enter /home/szhao/Apps/g16/l101.exe)
 -------------------
 Title Card Required
 -------------------
 Symbolic Z-matrix:
 Charge =  0 Multiplicity = 1
 N                    -1   -1.51543   0.        0. 
 N                    -1    1.51543   0.        0. 
 H                    0    -1.81606  -0.98793   0. 
 H                    0     1.81606   0.98793   0. 
 
 Add virtual bond connecting atoms N2         and N1         Dist= 5.73D+00.
 ITRead=  2  2  0  0
 MicOpt= -2 -2 -1 -1
 NAtoms=      4 NQM=        2 NQMF=       2 NMMI=      0 NMMIF=      0
                NMic=       0 NMicF=      0.
                    Isotopes and Nuclear Properties:
 (Nuclear quadrupole moments (NQMom) in fm**2, nuclear magnetic moments (NMagM)
  in nuclear magnetons)

  Atom         1           2           3           4
 IAtWgt=          14          14           1           1
 AtmWgt=  14.0030740  14.0030740   1.0078250   1.0078250
 NucSpn=           2           2           1           1
 AtZEff=  -0.0000000  -0.0000000  -0.0000000  -0.0000000
 NQMom=    2.0440000   2.0440000   0.0000000   0.0000000
 NMagM=    0.4037610   0.4037610   2.7928460   2.7928460
 AtZNuc=   7.0000000   7.0000000   1.0000000   1.0000000
 Leave Link  101 at Thu May 15 15:39:14 2025, MaxMem=   536870912 cpu:               2.2 elap:               0.3
 (Enter /home/szhao/Apps/g16/l103.exe)

 GradGradGradGradGradGradGradGradGradGradGradGradGradGradGradGradGradGrad
 Berny optimization.
 Initialization pass.
                           ----------------------------
                           !    Initial Parameters    !
                           ! (Angstroms and Degrees)  !
 --------------------------                            --------------------------
 ! Name  Definition              Value          Derivative Info.                !
 --------------------------------------------------------------------------------
 ! X1    R(1,-1)                -1.5154         Frozen                          !
 ! Y1    R(1,-2)                 0.0            Frozen                          !
 ! Z1    R(1,-3)                 0.0            Frozen                          !
 ! X2    R(2,-1)                 1.5154         Frozen                          !
 ! Y2    R(2,-2)                 0.0            Frozen                          !
 ! Z2    R(2,-3)                 0.0            Frozen                          !
 ! R1    R(1,3)                  1.0327         estimate D2E/DX2                !
 ! R2    R(2,4)                  1.0327         estimate D2E/DX2                !
 ! A1    A(2,1,3)              106.9253         estimate D2E/DX2                !
 ! A2    A(1,2,4)              106.9253         estimate D2E/DX2                !
 ! D1    D(3,1,2,4)            180.0            estimate D2E/DX2                !
 --------------------------------------------------------------------------------
 Trust Radius=3.00D-01 FncErr=1.00D-07 GrdErr=1.00D-07 EigMax=2.50D+02 EigMin=1.00D-04
 Number of steps in this run=     21 maximum allowed number of steps=    100.
 GradGradGradGradGradGradGradGradGradGradGradGradGradGradGradGradGradGrad

 Leave Link  103 at Thu May 15 15:39:14 2025, MaxMem=   536870912 cpu:               0.1 elap:               0.0
 (Enter /home/szhao/Apps/g16/l202.exe)
                          Input orientation:                          
 ---------------------------------------------------------------------
 Center     Atomic      Atomic             Coordinates (Angstroms)
 Number     Number       Type             X           Y           Z
 ---------------------------------------------------------------------
      1          7           0       -1.515428    0.000000    0.000000
      2          7           0        1.515428    0.000000    0.000000
      3          1           0       -1.816061   -0.987932    0.000000
      4          1           0        1.816061    0.987932    0.000000
 ---------------------------------------------------------------------
                    Distance matrix (angstroms):
                    1          2          3          4
     1  N    0.000000
     2  N    3.030856   0.000000
     3  H    1.032662   3.474886   0.000000
     4  H    3.474886   1.032662   4.134774   0.000000
 Symmetry turned off by external request.
 Stoichiometry    H2N2
 Framework group  C2H[SGH(H2N2)]
 Deg. of freedom     3
 Full point group                 C2H     NOp   4
 Rotational constants (GHZ):         284.1973619           7.1026549           6.9294737
 Leave Link  202 at Thu May 15 15:39:14 2025, MaxMem=   536870912 cpu:               0.0 elap:               0.0
 (Enter /home/szhao/Apps/g16/l301.exe)
 Standard basis: 6-311+G(d,p) (5D, 7F)
 Ernie: Thresh=  0.10000D-02 Tol=  0.10000D-05 Strict=F.
    56 basis functions,    88 primitive gaussians,    58 cartesian basis functions
     8 alpha electrons        8 beta electrons
       nuclear repulsion energy        17.9893823089 Hartrees.
 IExCor= 4336 DFT=T Ex+Corr=M062X ExCW=0 ScaHFX=  0.540000
 ScaDFX=  1.000000  1.000000  1.000000  1.000000 ScalE2=  1.000000  1.000000
 IRadAn=      7 IRanWt=     -1 IRanGd=            0 ICorTp=0 IEmpDi=  4
 NAtoms=    4 NActive=    4 NUniq=    4 SFac= 1.00D+00 NAtFMM=   60 NAOKFM=F Big=F
 Integral buffers will be    131072 words long.
 Raffenetti 2 integral format.
 Two-electron integral symmetry is turned off.
 Leave Link  301 at Thu May 15 15:39:14 2025, MaxMem=   536870912 cpu:               0.3 elap:               0.0
 (Enter /home/szhao/Apps/g16/l302.exe)
 NPDir=0 NMtPBC=     1 NCelOv=     1 NCel=       1 NClECP=     1 NCelD=      1
         NCelK=      1 NCelE2=     1 NClLst=     1 CellRange=     0.0.
 One-electron integrals computed using PRISM.
 NBasis=    56 RedAO= T EigKep=  8.36D-03  NBF=    56
 NBsUse=    56 1.00D-06 EigRej= -1.00D+00 NBFU=    56
 Precomputing XC quadrature grid using
 IXCGrd= 4 IRadAn=           7 IRanWt=          -1 IRanGd=           0 AccXCQ= 0.00D+00.
 Generated NRdTot=       0 NPtTot=           0 NUsed=           0 NTot=          32
 NSgBfM=    58    58    58    58    58 MxSgAt=     4 MxSgA2=     4.
 Leave Link  302 at Thu May 15 15:39:14 2025, MaxMem=   536870912 cpu:               0.8 elap:               0.1
 (Enter /home/szhao/Apps/g16/l303.exe)
 DipDrv:  MaxL=1.
 Leave Link  303 at Thu May 15 15:39:14 2025, MaxMem=   536870912 cpu:               0.2 elap:               0.0
 (Enter /home/szhao/Apps/g16/l401.exe)
 ExpMin= 6.39D-02 ExpMax= 6.29D+03 ExpMxC= 9.49D+02 IAcc=3 IRadAn=         7 AccDes= 0.00D+00
 Harris functional with IExCor= 1009 and IRadAn=       7 diagonalized for initial guess.
 HarFok:  IExCor= 1009 AccDes= 0.00D+00 IRadAn=         7 IDoV= 1 UseB2=F ITyADJ=14
 ICtDFT=  3500011 ScaDFX=  1.000000  1.000000  1.000000  1.000000
 FoFCou: FMM=F IPFlag=           0 FMFlag=      100000 FMFlg1=           0
         NFxFlg=           0 DoJE=T BraDBF=F KetDBF=T FulRan=T
         wScrn=  0.000000 ICntrl=       500 IOpCl=  0 I1Cent=   200000004 NGrid=           0
         NMat0=    1 NMatS0=      1 NMatT0=    0 NMatD0=    1 NMtDS0=    0 NMtDT0=    0
 Symmetry not used in FoFCou.
 Harris En= -110.230604661551    
 JPrj=0 DoOrth=F DoCkMO=F.
 Initial guess <Sx>= 0.0000 <Sy>= 0.0000 <Sz>= 0.0000 <S**2>= 0.0000 S= 0.0000
 Leave Link  401 at Thu May 15 15:39:14 2025, MaxMem=   536870912 cpu:               1.4 elap:               0.2
 (Enter /home/szhao/Apps/g16/l502.exe)
 Keep R1 and R2 ints in memory in canonical form, NReq=9624198.
 FoFCou: FMM=F IPFlag=           0 FMFlag=           0 FMFlg1=           0
         NFxFlg=           0 DoJE=F BraDBF=F KetDBF=F FulRan=T
         wScrn=  0.000000 ICntrl=       600 IOpCl=  0 I1Cent=           0 NGrid=           0
         NMat0=    1 NMatS0=   1596 NMatT0=    0 NMatD0=    1 NMtDS0=    0 NMtDT0=    0
 Symmetry not used in FoFCou.
 Two-electron integral symmetry not used.
 UHF open shell SCF:
 Using DIIS extrapolation, IDIIS=  1040.
 NGot=   536870912 LenX=   534314338 LenY=   534310533
 Requested convergence on RMS density matrix=1.00D-08 within 128 cycles.
 Requested convergence on MAX density matrix=1.00D-06.
 Requested convergence on             energy=1.00D-06.
 No special actions if energy rises.
 Integral accuracy reduced to 1.0D-05 until final iterations.

 Cycle   1  Pass 0  IDiag  1:
 E= -110.197036597989    
 DIIS: error= 2.15D-02 at cycle   1 NSaved=   1.
 NSaved= 1 IEnMin= 1 EnMin= -110.197036597989     IErMin= 1 ErrMin= 2.15D-02
 ErrMax= 2.15D-02  0.00D+00 EMaxC= 1.00D-01 BMatC= 9.53D-02 BMatP= 9.53D-02
 IDIUse=3 WtCom= 7.85D-01 WtEn= 2.15D-01
 Coeff-Com:  0.100D+01
 Coeff-En:   0.100D+01
 Coeff:      0.100D+01
 Gap=     0.100 Goal=   None    Shift=    0.000
 Gap=     0.100 Goal=   None    Shift=    0.000
 GapD=    0.100 DampG=1.000 DampE=0.500 DampFc=0.5000 IDamp=-1.
 Damping current iteration by 5.00D-01
 RMSDP=1.51D-03 MaxDP=1.09D-02              OVMax= 4.19D-02

 Cycle   2  Pass 0  IDiag  1:
 E= -110.201339083039     Delta-E=       -0.004302485051 Rises=F Damp=T
 DIIS: error= 1.02D-02 at cycle   2 NSaved=   2.
 NSaved= 2 IEnMin= 2 EnMin= -110.201339083039     IErMin= 2 ErrMin= 1.02D-02
 ErrMax= 1.02D-02  0.00D+00 EMaxC= 1.00D-01 BMatC= 2.06D-02 BMatP= 9.53D-02
 IDIUse=3 WtCom= 8.98D-01 WtEn= 1.02D-01
 Coeff-Com: -0.693D+00 0.169D+01
 Coeff-En:   0.000D+00 0.100D+01
 Coeff:     -0.622D+00 0.162D+01
 Gap=     0.100 Goal=   None    Shift=    0.000
 Gap=     0.100 Goal=   None    Shift=    0.000
 RMSDP=8.00D-04 MaxDP=1.81D-02 DE=-4.30D-03 OVMax= 1.69D-02

 Cycle   3  Pass 0  IDiag  1:
 E= -110.205367967047     Delta-E=       -0.004028884008 Rises=F Damp=F
 DIIS: error= 4.44D-03 at cycle   3 NSaved=   3.
 NSaved= 3 IEnMin= 3 EnMin= -110.205367967047     IErMin= 3 ErrMin= 4.44D-03
 ErrMax= 4.44D-03  0.00D+00 EMaxC= 1.00D-01 BMatC= 1.90D-03 BMatP= 2.06D-02
 IDIUse=3 WtCom= 9.56D-01 WtEn= 4.44D-02
 Coeff-Com: -0.315D+00 0.635D+00 0.679D+00
 Coeff-En:   0.000D+00 0.000D+00 0.100D+01
 Coeff:     -0.301D+00 0.607D+00 0.693D+00
 Gap=     0.100 Goal=   None    Shift=    0.000
 Gap=     0.100 Goal=   None    Shift=    0.000
 RMSDP=2.76D-04 MaxDP=3.87D-03 DE=-4.03D-03 OVMax= 8.43D-03

 Cycle   4  Pass 0  IDiag  1:
 E= -110.205813606750     Delta-E=       -0.000445639702 Rises=F Damp=F
 DIIS: error= 3.26D-04 at cycle   4 NSaved=   4.
 NSaved= 4 IEnMin= 4 EnMin= -110.205813606750     IErMin= 4 ErrMin= 3.26D-04
 ErrMax= 3.26D-04  0.00D+00 EMaxC= 1.00D-01 BMatC= 2.63D-05 BMatP= 1.90D-03
 IDIUse=3 WtCom= 9.97D-01 WtEn= 3.26D-03
 Coeff-Com:  0.360D-01-0.773D-01 0.283D-01 0.101D+01
 Coeff-En:   0.000D+00 0.000D+00 0.000D+00 0.100D+01
 Coeff:      0.358D-01-0.770D-01 0.282D-01 0.101D+01
 Gap=     0.100 Goal=   None    Shift=    0.000
 Gap=     0.100 Goal=   None    Shift=    0.000
 RMSDP=5.03D-05 MaxDP=8.46D-04 DE=-4.46D-04 OVMax= 2.03D-03

 Cycle   5  Pass 0  IDiag  1:
 E= -110.205822945420     Delta-E=       -0.000009338670 Rises=F Damp=F
 DIIS: error= 5.89D-05 at cycle   5 NSaved=   5.
 NSaved= 5 IEnMin= 5 EnMin= -110.205822945420     IErMin= 5 ErrMin= 5.89D-05
 ErrMax= 5.89D-05  0.00D+00 EMaxC= 1.00D-01 BMatC= 7.72D-07 BMatP= 2.63D-05
 IDIUse=1 WtCom= 1.00D+00 WtEn= 0.00D+00
 Coeff-Com:  0.198D-01-0.398D-01-0.362D-01-0.582D-02 0.106D+01
 Coeff:      0.198D-01-0.398D-01-0.362D-01-0.582D-02 0.106D+01
 Gap=     0.100 Goal=   None    Shift=    0.000
 Gap=     0.100 Goal=   None    Shift=    0.000
 RMSDP=1.68D-05 MaxDP=9.45D-05 DE=-9.34D-06 OVMax= 9.64D-04

 Cycle   6  Pass 0  IDiag  1:
 E= -110.205823814244     Delta-E=       -0.000000868824 Rises=F Damp=F
 DIIS: error= 2.78D-05 at cycle   6 NSaved=   6.
 NSaved= 6 IEnMin= 6 EnMin= -110.205823814244     IErMin= 6 ErrMin= 2.78D-05
 ErrMax= 2.78D-05  0.00D+00 EMaxC= 1.00D-01 BMatC= 6.63D-08 BMatP= 7.72D-07
 IDIUse=1 WtCom= 1.00D+00 WtEn= 0.00D+00
 Coeff-Com: -0.894D-02 0.182D-01 0.117D-01-0.321D-01-0.454D+00 0.147D+01
 Coeff:     -0.894D-02 0.182D-01 0.117D-01-0.321D-01-0.454D+00 0.147D+01
 Gap=     0.100 Goal=   None    Shift=    0.000
 Gap=     0.100 Goal=   None    Shift=    0.000
 RMSDP=7.34D-06 MaxDP=4.75D-05 DE=-8.69D-07 OVMax= 5.24D-04

 Initial convergence to 1.0D-05 achieved.  Increase integral accuracy.
 Cycle   7  Pass 1  IDiag  1:
 E= -110.205824629516     Delta-E=       -0.000000815272 Rises=F Damp=F
 DIIS: error= 6.53D-06 at cycle   1 NSaved=   1.
 NSaved= 1 IEnMin= 1 EnMin= -110.205824629516     IErMin= 1 ErrMin= 6.53D-06
 ErrMax= 6.53D-06  0.00D+00 EMaxC= 1.00D-01 BMatC= 7.11D-09 BMatP= 7.11D-09
 IDIUse=1 WtCom= 1.00D+00 WtEn= 0.00D+00
 Coeff-Com:  0.100D+01
 Coeff:      0.100D+01
 Gap=     0.100 Goal=   None    Shift=    0.000
 Gap=     0.100 Goal=   None    Shift=    0.000
 RMSDP=7.34D-06 MaxDP=4.75D-05 DE=-8.15D-07 OVMax= 6.23D-05

 Cycle   8  Pass 1  IDiag  1:
 E= -110.205824634934     Delta-E=       -0.000000005418 Rises=F Damp=F
 DIIS: error= 3.29D-06 at cycle   2 NSaved=   2.
 NSaved= 2 IEnMin= 2 EnMin= -110.205824634934     IErMin= 2 ErrMin= 3.29D-06
 ErrMax= 3.29D-06  0.00D+00 EMaxC= 1.00D-01 BMatC= 7.16D-10 BMatP= 7.11D-09
 IDIUse=1 WtCom= 1.00D+00 WtEn= 0.00D+00
 Coeff-Com: -0.507D-01 0.105D+01
 Coeff:     -0.507D-01 0.105D+01
 Gap=     0.100 Goal=   None    Shift=    0.000
 Gap=     0.100 Goal=   None    Shift=    0.000
 RMSDP=5.38D-07 MaxDP=3.32D-06 DE=-5.42D-09 OVMax= 3.66D-05

 Cycle   9  Pass 1  IDiag  1:
 E= -110.205824636091     Delta-E=       -0.000000001157 Rises=F Damp=F
 DIIS: error= 1.95D-06 at cycle   3 NSaved=   3.
 NSaved= 3 IEnMin= 3 EnMin= -110.205824636091     IErMin= 3 ErrMin= 1.95D-06
 ErrMax= 1.95D-06  0.00D+00 EMaxC= 1.00D-01 BMatC= 5.37D-10 BMatP= 7.16D-10
 IDIUse=1 WtCom= 1.00D+00 WtEn= 0.00D+00
 Coeff-Com: -0.156D+00 0.415D+00 0.741D+00
 Coeff:     -0.156D+00 0.415D+00 0.741D+00
 Gap=     0.100 Goal=   None    Shift=    0.000
 Gap=     0.100 Goal=   None    Shift=    0.000
 RMSDP=5.16D-07 MaxDP=6.22D-06 DE=-1.16D-09 OVMax= 3.15D-05

 Cycle  10  Pass 1  IDiag  1:
 E= -110.205824632577     Delta-E=        0.000000003515 Rises=F Damp=F
 DIIS: error= 1.67D-05 at cycle   4 NSaved=   4.
 NSaved= 4 IEnMin= 3 EnMin= -110.205824636091     IErMin= 3 ErrMin= 1.95D-06
 ErrMax= 1.67D-05  0.00D+00 EMaxC= 1.00D-01 BMatC= 1.67D-08 BMatP= 5.37D-10
 IDIUse=1 WtCom= 1.00D+00 WtEn= 0.00D+00
 Coeff-Com: -0.188D+00 0.104D+00 0.969D+00 0.115D+00
 Coeff:     -0.188D+00 0.104D+00 0.969D+00 0.115D+00
 Gap=     0.100 Goal=   None    Shift=    0.000
 Gap=     0.100 Goal=   None    Shift=    0.000
 RMSDP=4.47D-07 MaxDP=5.73D-06 DE= 3.51D-09 OVMax= 2.93D-05

 Cycle  11  Pass 1  IDiag  1:
 E= -110.205824636469     Delta-E=       -0.000000003893 Rises=F Damp=F
 DIIS: error= 6.50D-07 at cycle   5 NSaved=   5.
 NSaved= 5 IEnMin= 5 EnMin= -110.205824636469     IErMin= 5 ErrMin= 6.50D-07
 ErrMax= 6.50D-07  0.00D+00 EMaxC= 1.00D-01 BMatC= 4.88D-11 BMatP= 5.37D-10
 IDIUse=1 WtCom= 1.00D+00 WtEn= 0.00D+00
 Coeff-Com: -0.545D-01-0.583D-01 0.199D+00 0.570D-01 0.857D+00
 Coeff:     -0.545D-01-0.583D-01 0.199D+00 0.570D-01 0.857D+00
 Gap=     0.100 Goal=   None    Shift=    0.000
 Gap=     0.100 Goal=   None    Shift=    0.000
 RMSDP=9.05D-08 MaxDP=5.64D-07 DE=-3.89D-09 OVMax= 5.85D-06

 Cycle  12  Pass 1  IDiag  1:
 E= -110.205824636494     Delta-E=       -0.000000000024 Rises=F Damp=F
 DIIS: error= 1.52D-07 at cycle   6 NSaved=   6.
 NSaved= 6 IEnMin= 6 EnMin= -110.205824636494     IErMin= 6 ErrMin= 1.52D-07
 ErrMax= 1.52D-07  0.00D+00 EMaxC= 1.00D-01 BMatC= 2.52D-12 BMatP= 4.88D-11
 IDIUse=1 WtCom= 1.00D+00 WtEn= 0.00D+00
 Coeff-Com:  0.130D-01-0.116D-01-0.101D+00-0.336D-02 0.229D+00 0.874D+00
 Coeff:      0.130D-01-0.116D-01-0.101D+00-0.336D-02 0.229D+00 0.874D+00
 Gap=     0.100 Goal=   None    Shift=    0.000
 Gap=     0.100 Goal=   None    Shift=    0.000
 RMSDP=2.08D-08 MaxDP=2.75D-07 DE=-2.43D-11 OVMax= 9.42D-07

 Cycle  13  Pass 1  IDiag  1:
 E= -110.205824636494     Delta-E=       -0.000000000001 Rises=F Damp=F
 DIIS: error= 7.65D-09 at cycle   7 NSaved=   7.
 NSaved= 7 IEnMin= 7 EnMin= -110.205824636494     IErMin= 7 ErrMin= 7.65D-09
 ErrMax= 7.65D-09  0.00D+00 EMaxC= 1.00D-01 BMatC= 1.60D-14 BMatP= 2.52D-12
 IDIUse=1 WtCom= 1.00D+00 WtEn= 0.00D+00
 Coeff-Com:  0.853D-03 0.884D-03-0.561D-02-0.118D-02-0.127D-01 0.396D-01
 Coeff-Com:  0.978D+00
 Coeff:      0.853D-03 0.884D-03-0.561D-02-0.118D-02-0.127D-01 0.396D-01
 Coeff:      0.978D+00
 Gap=     0.100 Goal=   None    Shift=    0.000
 Gap=     0.100 Goal=   None    Shift=    0.000
 RMSDP=1.92D-09 MaxDP=1.48D-08 DE=-7.96D-13 OVMax= 7.63D-08

 SCF Done:  E(UM062X) =  -110.205824636     A.U. after   13 cycles
            NFock= 13  Conv=0.19D-08     -V/T= 2.0051
 <Sx>= 0.0000 <Sy>= 0.0000 <Sz>= 0.0000 <S**2>=-0.0000 S=-0.0000
 <L.S>=  0.00000000000    
 KE= 1.096447821041D+02 PE=-2.940596255036D+02 EE= 5.621963645408D+01
 Annihilation of the first spin contaminant:
 S**2 before annihilation    -0.0000,   after    -0.0000
 Leave Link  502 at Thu May 15 15:39:17 2025, MaxMem=   536870912 cpu:              18.3 elap:               2.3
 (Enter /home/szhao/Apps/g16/l601.exe)
 Copying SCF densities to generalized density rwf, IOpCl= 1 IROHF=0.

 **********************************************************************

            Population analysis using the SCF density.

 **********************************************************************

 Alpha  occ. eigenvalues --  -14.87915 -14.87912  -0.92577  -0.91716  -0.48570
 Alpha  occ. eigenvalues --   -0.48077  -0.31649  -0.30089
 Alpha virt. eigenvalues --   -0.20115  -0.18118   0.05361   0.07064   0.11321
 Alpha virt. eigenvalues --    0.12320   0.14457   0.15228   0.15710   0.17915
 Alpha virt. eigenvalues --    0.20629   0.24192   0.54424   0.55307   0.73619
 Alpha virt. eigenvalues --    0.73634   0.77446   0.78835   0.82098   0.85144
 Alpha virt. eigenvalues --    0.93930   1.08007   1.28818   1.29044   1.29598
 Alpha virt. eigenvalues --    1.34195   1.90909   1.90923   1.97258   1.97583
 Alpha virt. eigenvalues --    1.97612   1.99271   2.34617   2.34828   2.35028
 Alpha virt. eigenvalues --    2.35329   2.48290   2.48850   2.92207   2.95764
 Alpha virt. eigenvalues --    3.75834   3.76361   3.79396   3.84888   4.31093
 Alpha virt. eigenvalues --    4.36524  35.30867  35.32197
  Beta  occ. eigenvalues --  -14.87915 -14.87912  -0.92577  -0.91716  -0.48570
  Beta  occ. eigenvalues --   -0.48077  -0.31649  -0.30089
  Beta virt. eigenvalues --   -0.20115  -0.18118   0.05361   0.07064   0.11321
  Beta virt. eigenvalues --    0.12320   0.14457   0.15228   0.15710   0.17915
  Beta virt. eigenvalues --    0.20629   0.24192   0.54424   0.55307   0.73619
  Beta virt. eigenvalues --    0.73634   0.77446   0.78835   0.82098   0.85144
  Beta virt. eigenvalues --    0.93930   1.08007   1.28818   1.29044   1.29598
  Beta virt. eigenvalues --    1.34195   1.90909   1.90923   1.97258   1.97583
  Beta virt. eigenvalues --    1.97612   1.99271   2.34617   2.34828   2.35028
  Beta virt. eigenvalues --    2.35329   2.48290   2.48850   2.92207   2.95764
  Beta virt. eigenvalues --    3.75834   3.76361   3.79396   3.84888   4.31093
  Beta virt. eigenvalues --    4.36524  35.30867  35.32197
          Condensed to atoms (all electrons):
               1          2          3          4
     1  N    6.885175   0.110853   0.232267   0.001264
     2  N    0.110853   6.885175   0.001264   0.232267
     3  H    0.232267   0.001264   0.536774   0.000137
     4  H    0.001264   0.232267   0.000137   0.536774
          Atomic-Atomic Spin Densities.
               1          2          3          4
     1  N   -0.000000   0.000000  -0.000000  -0.000000
     2  N    0.000000   0.000000   0.000000   0.000000
     3  H   -0.000000   0.000000   0.000000  -0.000000
     4  H   -0.000000   0.000000  -0.000000  -0.000000
 Mulliken charges and spin densities:
               1          2
     1  N   -0.229558  -0.000000
     2  N   -0.229558   0.000000
     3  H    0.229558   0.000000
     4  H    0.229558  -0.000000
 Sum of Mulliken charges =  -0.00000   0.00000
 Mulliken charges and spin densities with hydrogens summed into heavy atoms:
               1          2
     1  N    0.000000  -0.000000
     2  N   -0.000000   0.000000
 Electronic spatial extent (au):  <R**2>=            171.3955
 Charge=             -0.0000 electrons
 Dipole moment (field-independent basis, Debye):
    X=             -0.0000    Y=             -0.0000    Z=              0.0000  Tot=              0.0000
 Quadrupole moment (field-independent basis, Debye-Ang):
   XX=             -9.4286   YY=            -11.4807   ZZ=            -14.1356
   XY=              6.3307   XZ=             -0.0000   YZ=              0.0000
 Traceless Quadrupole moment (field-independent basis, Debye-Ang):
   XX=              2.2530   YY=              0.2009   ZZ=             -2.4540
   XY=              6.3307   XZ=             -0.0000   YZ=              0.0000
 Octapole moment (field-independent basis, Debye-Ang**2):
  XXX=              0.0000  YYY=             -0.0000  ZZZ=             -0.0000  XYY=             -0.0000
  XXY=             -0.0000  XXZ=             -0.0000  XZZ=             -0.0000  YZZ=             -0.0000
  YYZ=              0.0000  XYZ=              0.0000
 Hexadecapole moment (field-independent basis, Debye-Ang**3):
 XXXX=           -185.3590 YYYY=            -17.5721 ZZZZ=            -17.0746 XXXY=             16.2915
 XXXZ=             -0.0000 YYYX=              1.1439 YYYZ=              0.0000 ZZZX=             -0.0000
 ZZZY=              0.0000 XXYY=            -29.5142 XXZZ=            -37.3162 YYZZ=             -6.3464
 XXYZ=              0.0000 YYXZ=             -0.0000 ZZXY=             -1.2733
 N-N= 1.798938230891D+01 E-N=-2.940596257380D+02  KE= 1.096447821041D+02
                          Isotropic Fermi Contact Couplings
        Atom                 a.u.       MegaHertz       Gauss      10(-4) cm-1
     1  N(14)              0.00000       0.00000       0.00000       0.00000
     2  N(14)             -0.00000      -0.00000      -0.00000      -0.00000
     3  H(1)               0.00000       0.00000       0.00000       0.00000
     4  H(1)              -0.00000      -0.00000      -0.00000      -0.00000
 --------------------------------------------------------
       Center         ----  Spin Dipole Couplings  ----
                      3XX-RR        3YY-RR        3ZZ-RR
 --------------------------------------------------------
     1   Atom        0.000000      0.000000     -0.000000
     2   Atom       -0.000000     -0.000000      0.000000
     3   Atom        0.000000     -0.000000      0.000000
     4   Atom       -0.000000      0.000000     -0.000000
 --------------------------------------------------------
                        XY            XZ            YZ
 --------------------------------------------------------
     1   Atom        0.000000      0.000000      0.000000
     2   Atom       -0.000000      0.000000      0.000000
     3   Atom       -0.000000      0.000000      0.000000
     4   Atom        0.000000      0.000000      0.000000
 --------------------------------------------------------


 ---------------------------------------------------------------------------------
              Anisotropic Spin Dipole Couplings in Principal Axis System
 ---------------------------------------------------------------------------------

       Atom             a.u.   MegaHertz   Gauss  10(-4) cm-1        Axes

              Baa    -0.0000    -0.000    -0.000    -0.000  0.0000  0.0000  1.0000
     1 N(14)  Bbb     0.0000     0.000     0.000     0.000  0.9611 -0.2762 -0.0000
              Bcc     0.0000     0.000     0.000     0.000  0.2762  0.9611  0.0000
 
              Baa    -0.0000    -0.000    -0.000    -0.000  0.2761  0.9611  0.0000
     2 N(14)  Bbb    -0.0000    -0.000    -0.000    -0.000  0.9611 -0.2761 -0.0000
              Bcc     0.0000     0.000     0.000     0.000  0.0000  0.0000  1.0000
 
              Baa    -0.0000    -0.000    -0.000    -0.000  0.2691  0.9631  0.0000
     3 H(1)   Bbb     0.0000     0.000     0.000     0.000  0.0000  0.0000  1.0000
              Bcc     0.0000     0.000     0.000     0.000  0.9631 -0.2691 -0.0000
 
              Baa    -0.0000    -0.000    -0.000    -0.000  0.9633 -0.2686 -0.0000
     4 H(1)   Bbb    -0.0000    -0.000    -0.000    -0.000  0.0000  0.0000  1.0000
              Bcc     0.0000     0.000     0.000     0.000  0.2686  0.9633  0.0000
 

 ---------------------------------------------------------------------------------

 No NMR shielding tensors so no spin-rotation constants.
 Leave Link  601 at Thu May 15 15:39:17 2025, MaxMem=   536870912 cpu:               1.0 elap:               0.1
 (Enter /home/szhao/Apps/g16/l701.exe)
 ... and contract with generalized density number  0.
 Compute integral first derivatives.
 Leave Link  701 at Thu May 15 15:39:17 2025, MaxMem=   536870912 cpu:               0.6 elap:               0.1
 (Enter /home/szhao/Apps/g16/l702.exe)
 L702 exits ... SP integral derivatives will be done elsewhere.
 Leave Link  702 at Thu May 15 15:39:17 2025, MaxMem=   536870912 cpu:               0.2 elap:               0.0
 (Enter /home/szhao/Apps/g16/l703.exe)
 Integral derivatives from FoFJK, PRISM(SPDF).
 Compute integral first derivatives, UseDBF=F ICtDFT=           0.
 Calling FoFJK, ICntrl=      2127 FMM=F ISym2X=0 I1Cent= 0 IOpClX= 1 NMat=1 NMatS=1 NMatT=0.
 FoFJK:  IHMeth= 1 ICntrl=    2127 DoSepK=F KAlg= 0 I1Cent=           0 FoldK=F
 IRaf=         0 NMat=       1 IRICut=       1 DoRegI=T DoRafI=F ISym2E= 0 IDoP0=0 IntGTp=1.
 FoFCou: FMM=F IPFlag=           0 FMFlag=      100000 FMFlg1=         800
         NFxFlg=           0 DoJE=F BraDBF=F KetDBF=F FulRan=T
         wScrn=  0.000000 ICntrl=      2127 IOpCl=  1 I1Cent=           0 NGrid=           0
         NMat0=    1 NMatS0=      1 NMatT0=    0 NMatD0=    1 NMtDS0=    0 NMtDT0=    0
 Symmetry not used in FoFCou.
 Leave Link  703 at Thu May 15 15:39:17 2025, MaxMem=   536870912 cpu:               3.6 elap:               0.5
 (Enter /home/szhao/Apps/g16/l716.exe)
 Dipole        =-4.36122249D-11-8.83071394D-13 1.98336571D-16
 -------------------------------------------------------------------
 Center     Atomic                   Forces (Hartrees/Bohr)
 Number     Number              X              Y              Z
 -------------------------------------------------------------------
      1        7          -0.000000000   -0.000000000   -0.000000000
      2        7          -0.000000000   -0.000000000   -0.000000000
      3        1           0.008448630   -0.008206079   -0.000000000
      4        1          -0.008448630    0.008206079    0.000000000
 -------------------------------------------------------------------
 Cartesian Forces:  Max     0.008448630 RMS     0.004808310
 Leave Link  716 at Thu May 15 15:39:17 2025, MaxMem=   536870912 cpu:               0.2 elap:               0.0
 (Enter /home/szhao/Apps/g16/l103.exe)

 GradGradGradGradGradGradGradGradGradGradGradGradGradGradGradGradGradGrad
 Berny optimization.
 FormGI is forming the generalized inverse of G from B-inverse, IUseBI=4.
 Internal  Forces:  Max     0.020434920 RMS     0.011703922
 Search for a local minimum.
 Step number   1 out of a maximum of   21
 All quantities printed in internal units (Hartrees-Bohrs-Radians)
 RMS Force = .13366D-01 SwitMx=.10000D-02 MixMth= 1
 Mixed Optimization -- RFO/linear search
 Second derivative matrix not updated -- first step.
 The second derivative matrix:
                          X1        Y1        Z1        X2        Y2
           X1           0.50000
           Y1           0.00000   0.50000
           Z1           0.00000   0.00000   0.50000
           X2           0.00000   0.00000   0.00000   0.50000
           Y2           0.00000   0.00000   0.00000   0.00000   0.50000
           Z2           0.00000   0.00000   0.00000   0.00000   0.00000
           R1           0.00000   0.00000   0.00000   0.00000   0.00000
           R2           0.00000   0.00000   0.00000   0.00000   0.00000
           A1           0.00000   0.00000   0.00000   0.00000   0.00000
           A2           0.00000   0.00000   0.00000   0.00000   0.00000
           D1           0.00000   0.00000   0.00000   0.00000   0.00000
                          Z2        R1        R2        A1        A2
           Z2           0.50000
           R1           0.00000   0.42378
           R2           0.00000   0.00000   0.42378
           A1           0.00000   0.00000   0.00000   0.16000
           A2           0.00000   0.00000   0.00000   0.00000   0.16000
           D1           0.00000   0.00000   0.00000   0.00000   0.00000
                          D1
           D1           0.00230
 ITU=  0
     Eigenvalues ---    0.00230   0.16000   0.16000   0.42378   0.42378
     Eigenvalues --- 1000.000001000.000001000.000001000.000001000.00000
     Eigenvalues --- 1000.00000
 RFO step:  Lambda=-5.19128436D-03 EMin= 2.30000000D-03
 Linear search not attempted -- first point.
 Iteration  1 RMS(Cart)=  0.10154894 RMS(Int)=  0.00619001
 Iteration  2 RMS(Cart)=  0.00660995 RMS(Int)=  0.00001070
 Iteration  3 RMS(Cart)=  0.00001971 RMS(Int)=  0.00000000
 Iteration  4 RMS(Cart)=  0.00000000 RMS(Int)=  0.00000000
 ITry= 1 IFail=0 DXMaxC= 2.33D-01 DCOld= 1.00D+10 DXMaxT= 3.00D-01 DXLimC= 3.00D+00 Rises=F
 Variable       Old X    -DE/DX   Delta X   Delta X   Delta X     New X
                                 (Linear)    (Quad)   (Total)
    X1       -2.86374   0.00845   0.00000   0.00000   0.00000  -2.86374
    Y1        0.00000  -0.01534   0.00000   0.00000   0.00000   0.00000
    Z1        0.00000  -0.00000   0.00000   0.00000   0.00000   0.00000
    X2        2.86374  -0.00845   0.00000   0.00000   0.00000   2.86374
    Y2        0.00000   0.01534   0.00000   0.00000   0.00000   0.00000
    Z2        0.00000  -0.00000   0.00000   0.00000   0.00000   0.00000
    R1        1.95145   0.00539   0.00000   0.01257   0.01257   1.96402
    R2        1.95145   0.00539   0.00000   0.01257   0.01257   1.96402
    A1        1.86620  -0.02043   0.00000  -0.12370  -0.12370   1.74249
    A2        1.86620  -0.02043   0.00000  -0.12370  -0.12370   1.74249
    D1        3.14159  -0.00000   0.00000  -0.00000   0.00000   3.14159
         Item               Value     Threshold  Converged?
 Maximum Force            0.020435     0.000450     NO 
 RMS     Force            0.013366     0.000300     NO 
 Maximum Displacement     0.232552     0.001800     NO 
 RMS     Displacement     0.103339     0.001200     NO 
 Predicted change in Energy=-2.675906D-03
 Lowest energy point so far.  Saving SCF results.
 GradGradGradGradGradGradGradGradGradGradGradGradGradGradGradGradGradGrad

 Leave Link  103 at Thu May 15 15:39:17 2025, MaxMem=   536870912 cpu:               0.1 elap:               0.0
 (Enter /home/szhao/Apps/g16/l202.exe)
                          Input orientation:                          
 ---------------------------------------------------------------------
 Center     Atomic      Atomic             Coordinates (Angstroms)
 Number     Number       Type             X           Y           Z
 ---------------------------------------------------------------------
      1          7           0       -1.515428    0.000000    0.000000
      2          7           0        1.515428    0.000000    0.000000
      3          1           0       -1.693000   -1.024031   -0.000000
      4          1           0        1.693000    1.024031   -0.000000
 ---------------------------------------------------------------------
                    Distance matrix (angstroms):
                    1          2          3          4
     1  N    0.000000
     2  N    3.030856   0.000000
     3  H    1.039312   3.367885   0.000000
     4  H    3.367885   1.039312   3.957214   0.000000
 Symmetry turned off by external request.
 Stoichiometry    H2N2
 Framework group  C2H[SGH(H2N2)]
 Deg. of freedom     3
 Full point group                 C2H     NOp   4
 Rotational constants (GHZ):         261.2415807           7.1916271           6.9989553
 Leave Link  202 at Thu May 15 15:39:17 2025, MaxMem=   536870912 cpu:               0.0 elap:               0.0
 (Enter /home/szhao/Apps/g16/l301.exe)
 Standard basis: 6-311+G(d,p) (5D, 7F)
 Ernie: Thresh=  0.10000D-02 Tol=  0.10000D-05 Strict=F.
    56 basis functions,    88 primitive gaussians,    58 cartesian basis functions
     8 alpha electrons        8 beta electrons
       nuclear repulsion energy        18.0169545681 Hartrees.
 IExCor= 4336 DFT=T Ex+Corr=M062X ExCW=0 ScaHFX=  0.540000
 ScaDFX=  1.000000  1.000000  1.000000  1.000000 ScalE2=  1.000000  1.000000
 IRadAn=      7 IRanWt=     -1 IRanGd=            0 ICorTp=0 IEmpDi=  4
 NAtoms=    4 NActive=    4 NUniq=    4 SFac= 1.00D+00 NAtFMM=   60 NAOKFM=F Big=F
 Integral buffers will be    131072 words long.
 Raffenetti 2 integral format.
 Two-electron integral symmetry is turned off.
 Leave Link  301 at Thu May 15 15:39:17 2025, MaxMem=   536870912 cpu:               0.3 elap:               0.0
 (Enter /home/szhao/Apps/g16/l302.exe)
 NPDir=0 NMtPBC=     1 NCelOv=     1 NCel=       1 NClECP=     1 NCelD=      1
         NCelK=      1 NCelE2=     1 NClLst=     1 CellRange=     0.0.
 One-electron integrals computed using PRISM.
 NBasis=    56 RedAO= T EigKep=  7.34D-03  NBF=    56
 NBsUse=    56 1.00D-06 EigRej= -1.00D+00 NBFU=    56
 Precomputing XC quadrature grid using
 IXCGrd= 4 IRadAn=           7 IRanWt=          -1 IRanGd=           0 AccXCQ= 0.00D+00.
 Generated NRdTot=       0 NPtTot=           0 NUsed=           0 NTot=          32
 NSgBfM=    58    58    58    58    58 MxSgAt=     4 MxSgA2=     4.
 Leave Link  302 at Thu May 15 15:39:18 2025, MaxMem=   536870912 cpu:               0.8 elap:               0.1
 (Enter /home/szhao/Apps/g16/l303.exe)
 DipDrv:  MaxL=1.
 Leave Link  303 at Thu May 15 15:39:18 2025, MaxMem=   536870912 cpu:               0.3 elap:               0.0
 (Enter /home/szhao/Apps/g16/l401.exe)
 Initial guess from the checkpoint file:  "opt.chk"
 B after Tr=     0.000000    0.000000   -0.000000
         Rot=    0.999989    0.000000   -0.000000   -0.004641 Ang=  -0.53 deg.
 Guess basis will be translated and rotated to current coordinates.
 JPrj=2 DoOrth=T DoCkMO=T.
 Initial guess <Sx>= 0.0000 <Sy>= 0.0000 <Sz>= 0.0000 <S**2>= 0.0000 S= 0.0000
 Generating alternative initial guess.
 ExpMin= 6.39D-02 ExpMax= 6.29D+03 ExpMxC= 9.49D+02 IAcc=3 IRadAn=         5 AccDes= 0.00D+00
 Harris functional with IExCor= 1009 and IRadAn=       5 diagonalized for initial guess.
 HarFok:  IExCor= 1009 AccDes= 0.00D+00 IRadAn=         5 IDoV= 1 UseB2=F ITyADJ=14
 ICtDFT=  3500011 ScaDFX=  1.000000  1.000000  1.000000  1.000000
 FoFCou: FMM=F IPFlag=           0 FMFlag=      100000 FMFlg1=           0
         NFxFlg=           0 DoJE=T BraDBF=F KetDBF=T FulRan=T
         wScrn=  0.000000 ICntrl=       500 IOpCl=  0 I1Cent=   200000004 NGrid=           0
         NMat0=    1 NMatS0=      1 NMatT0=    0 NMatD0=    1 NMtDS0=    0 NMtDT0=    0
 Symmetry not used in FoFCou.
 Harris En= -110.233563978885    
 Leave Link  401 at Thu May 15 15:39:18 2025, MaxMem=   536870912 cpu:               1.3 elap:               0.2
 (Enter /home/szhao/Apps/g16/l502.exe)
 Keep R1 and R2 ints in memory in canonical form, NReq=9624198.
 FoFCou: FMM=F IPFlag=           0 FMFlag=           0 FMFlg1=           0
         NFxFlg=           0 DoJE=F BraDBF=F KetDBF=F FulRan=T
         wScrn=  0.000000 ICntrl=       600 IOpCl=  0 I1Cent=           0 NGrid=           0
         NMat0=    1 NMatS0=   1596 NMatT0=    0 NMatD0=    1 NMtDS0=    0 NMtDT0=    0
 Symmetry not used in FoFCou.
 Two-electron integral symmetry not used.
 UHF open shell SCF:
 Using DIIS extrapolation, IDIIS=  1040.
 NGot=   536870912 LenX=   534314338 LenY=   534310533
 Requested convergence on RMS density matrix=1.00D-08 within 128 cycles.
 Requested convergence on MAX density matrix=1.00D-06.
 Requested convergence on             energy=1.00D-06.
 No special actions if energy rises.
 Integral accuracy reduced to 1.0D-05 until final iterations.

 Cycle   1  Pass 0  IDiag  1:
 E= -110.206849930413    
 DIIS: error= 6.34D-03 at cycle   1 NSaved=   1.
 NSaved= 1 IEnMin= 1 EnMin= -110.206849930413     IErMin= 1 ErrMin= 6.34D-03
 ErrMax= 6.34D-03  0.00D+00 EMaxC= 1.00D-01 BMatC= 6.21D-03 BMatP= 6.21D-03
 IDIUse=3 WtCom= 9.37D-01 WtEn= 6.34D-02
 Coeff-Com:  0.100D+01
 Coeff-En:   0.100D+01
 Coeff:      0.100D+01
 Gap=     0.515 Goal=   None    Shift=    0.000
 Gap=     0.515 Goal=   None    Shift=    0.000
 GapD=    0.515 DampG=2.000 DampE=1.000 DampFc=2.0000 IDamp=-1.
 RMSDP=7.86D-04 MaxDP=7.96D-03              OVMax= 3.22D-02

 Cycle   2  Pass 0  IDiag  1:
 E= -110.209959829933     Delta-E=       -0.003109899520 Rises=F Damp=F
 DIIS: error= 1.75D-03 at cycle   2 NSaved=   2.
 NSaved= 2 IEnMin= 2 EnMin= -110.209959829933     IErMin= 2 ErrMin= 1.75D-03
 ErrMax= 1.75D-03  0.00D+00 EMaxC= 1.00D-01 BMatC= 2.94D-04 BMatP= 6.21D-03
 IDIUse=3 WtCom= 9.83D-01 WtEn= 1.75D-02
 Coeff-Com: -0.177D+00 0.118D+01
 Coeff-En:   0.000D+00 0.100D+01
 Coeff:     -0.174D+00 0.117D+01
 Gap=     0.100 Goal=   None    Shift=    0.000
 Gap=     0.100 Goal=   None    Shift=    0.000
 RMSDP=2.93D-04 MaxDP=2.91D-03 DE=-3.11D-03 OVMax= 1.88D-02

 Cycle   3  Pass 0  IDiag  1:
 E= -110.210331481459     Delta-E=       -0.000371651526 Rises=F Damp=F
 DIIS: error= 5.49D-04 at cycle   3 NSaved=   3.
 NSaved= 3 IEnMin= 3 EnMin= -110.210331481459     IErMin= 3 ErrMin= 5.49D-04
 ErrMax= 5.49D-04  0.00D+00 EMaxC= 1.00D-01 BMatC= 2.70D-05 BMatP= 2.94D-04
 IDIUse=3 WtCom= 9.95D-01 WtEn= 5.49D-03
 Coeff-Com:  0.498D-01-0.522D+00 0.147D+01
 Coeff-En:   0.000D+00 0.000D+00 0.100D+01
 Coeff:      0.496D-01-0.519D+00 0.147D+01
 Gap=     0.100 Goal=   None    Shift=    0.000
 Gap=     0.100 Goal=   None    Shift=    0.000
 RMSDP=1.36D-04 MaxDP=9.50D-04 DE=-3.72D-04 OVMax= 1.03D-02

 Cycle   4  Pass 0  IDiag  1:
 E= -110.210387647833     Delta-E=       -0.000056166374 Rises=F Damp=F
 DIIS: error= 1.34D-04 at cycle   4 NSaved=   4.
 NSaved= 4 IEnMin= 4 EnMin= -110.210387647833     IErMin= 4 ErrMin= 1.34D-04
 ErrMax= 1.34D-04  0.00D+00 EMaxC= 1.00D-01 BMatC= 3.17D-06 BMatP= 2.70D-05
 IDIUse=3 WtCom= 9.99D-01 WtEn= 1.34D-03
 Coeff-Com:  0.218D-01-0.187D+00 0.231D+00 0.934D+00
 Coeff-En:   0.000D+00 0.000D+00 0.000D+00 0.100D+01
 Coeff:      0.218D-01-0.187D+00 0.230D+00 0.935D+00
 Gap=     0.100 Goal=   None    Shift=    0.000
 Gap=     0.100 Goal=   None    Shift=    0.000
 RMSDP=3.24D-05 MaxDP=2.16D-04 DE=-5.62D-05 OVMax= 2.19D-03

 Cycle   5  Pass 0  IDiag  1:
 E= -110.210390438532     Delta-E=       -0.000002790699 Rises=F Damp=F
 DIIS: error= 5.32D-05 at cycle   5 NSaved=   5.
 NSaved= 5 IEnMin= 5 EnMin= -110.210390438532     IErMin= 5 ErrMin= 5.32D-05
 ErrMax= 5.32D-05  0.00D+00 EMaxC= 1.00D-01 BMatC= 3.68D-07 BMatP= 3.17D-06
 IDIUse=1 WtCom= 1.00D+00 WtEn= 0.00D+00
 Coeff-Com: -0.276D-02 0.411D-01-0.177D+00 0.231D+00 0.907D+00
 Coeff:     -0.276D-02 0.411D-01-0.177D+00 0.231D+00 0.907D+00
 Gap=     0.100 Goal=   None    Shift=    0.000
 Gap=     0.100 Goal=   None    Shift=    0.000
 RMSDP=1.11D-05 MaxDP=9.16D-05 DE=-2.79D-06 OVMax= 5.20D-04

 Cycle   6  Pass 0  IDiag  1:
 E= -110.210390621216     Delta-E=       -0.000000182684 Rises=F Damp=F
 DIIS: error= 1.47D-05 at cycle   6 NSaved=   6.
 NSaved= 6 IEnMin= 6 EnMin= -110.210390621216     IErMin= 6 ErrMin= 1.47D-05
 ErrMax= 1.47D-05  0.00D+00 EMaxC= 1.00D-01 BMatC= 3.48D-08 BMatP= 3.68D-07
 IDIUse=1 WtCom= 1.00D+00 WtEn= 0.00D+00
 Coeff-Com: -0.206D-02 0.233D-01-0.585D-01 0.180D-01 0.302D+00 0.717D+00
 Coeff:     -0.206D-02 0.233D-01-0.585D-01 0.180D-01 0.302D+00 0.717D+00
 Gap=     0.100 Goal=   None    Shift=    0.000
 Gap=     0.100 Goal=   None    Shift=    0.000
 RMSDP=1.85D-06 MaxDP=1.49D-05 DE=-1.83D-07 OVMax= 4.36D-05

 Initial convergence to 1.0D-05 achieved.  Increase integral accuracy.
 Cycle   7  Pass 1  IDiag  1:
 E= -110.210390223755     Delta-E=        0.000000397461 Rises=F Damp=F
 DIIS: error= 3.15D-06 at cycle   1 NSaved=   1.
 NSaved= 1 IEnMin= 1 EnMin= -110.210390223755     IErMin= 1 ErrMin= 3.15D-06
 ErrMax= 3.15D-06  0.00D+00 EMaxC= 1.00D-01 BMatC= 2.66D-09 BMatP= 2.66D-09
 IDIUse=1 WtCom= 1.00D+00 WtEn= 0.00D+00
 Coeff-Com:  0.100D+01
 Coeff:      0.100D+01
 Gap=     0.100 Goal=   None    Shift=    0.000
 Gap=     0.100 Goal=   None    Shift=    0.000
 RMSDP=1.85D-06 MaxDP=1.49D-05 DE= 3.97D-07 OVMax= 6.96D-05

 Cycle   8  Pass 1  IDiag  1:
 E= -110.210390205377     Delta-E=        0.000000018377 Rises=F Damp=F
 DIIS: error= 3.75D-05 at cycle   2 NSaved=   2.
 NSaved= 2 IEnMin= 1 EnMin= -110.210390223755     IErMin= 1 ErrMin= 3.15D-06
 ErrMax= 3.75D-05  0.00D+00 EMaxC= 1.00D-01 BMatC= 8.47D-08 BMatP= 2.66D-09
 IDIUse=1 WtCom= 1.00D+00 WtEn= 0.00D+00
 Coeff-Com:  0.905D+00 0.953D-01
 Coeff:      0.905D+00 0.953D-01
 Gap=     0.100 Goal=   None    Shift=    0.000
 Gap=     0.100 Goal=   None    Shift=    0.000
 RMSDP=1.15D-06 MaxDP=1.54D-05 DE= 1.84D-08 OVMax= 7.87D-05

 Cycle   9  Pass 1  IDiag  1:
 E= -110.210390223806     Delta-E=       -0.000000018429 Rises=F Damp=F
 DIIS: error= 8.59D-06 at cycle   3 NSaved=   3.
 NSaved= 3 IEnMin= 3 EnMin= -110.210390223806     IErMin= 1 ErrMin= 3.15D-06
 ErrMax= 8.59D-06  0.00D+00 EMaxC= 1.00D-01 BMatC= 4.55D-09 BMatP= 2.66D-09
 IDIUse=1 WtCom= 1.00D+00 WtEn= 0.00D+00
 Coeff-Com:  0.405D-02 0.186D+00 0.810D+00
 Coeff:      0.405D-02 0.186D+00 0.810D+00
 Gap=     0.100 Goal=   None    Shift=    0.000
 Gap=     0.100 Goal=   None    Shift=    0.000
 RMSDP=3.08D-07 MaxDP=3.72D-06 DE=-1.84D-08 OVMax= 1.51D-05

 Cycle  10  Pass 1  IDiag  1:
 E= -110.210390224873     Delta-E=       -0.000000001068 Rises=F Damp=F
 DIIS: error= 6.94D-07 at cycle   4 NSaved=   4.
 NSaved= 4 IEnMin= 4 EnMin= -110.210390224873     IErMin= 4 ErrMin= 6.94D-07
 ErrMax= 6.94D-07  0.00D+00 EMaxC= 1.00D-01 BMatC= 6.77D-11 BMatP= 2.66D-09
 IDIUse=1 WtCom= 1.00D+00 WtEn= 0.00D+00
 Coeff-Com: -0.638D-01 0.736D-01 0.351D+00 0.639D+00
 Coeff:     -0.638D-01 0.736D-01 0.351D+00 0.639D+00
 Gap=     0.100 Goal=   None    Shift=    0.000
 Gap=     0.100 Goal=   None    Shift=    0.000
 RMSDP=5.55D-08 MaxDP=8.61D-07 DE=-1.07D-09 OVMax= 2.01D-06

 Cycle  11  Pass 1  IDiag  1:
 E= -110.210390224893     Delta-E=       -0.000000000019 Rises=F Damp=F
 DIIS: error= 1.15D-07 at cycle   5 NSaved=   5.
 NSaved= 5 IEnMin= 5 EnMin= -110.210390224893     IErMin= 5 ErrMin= 1.15D-07
 ErrMax= 1.15D-07  0.00D+00 EMaxC= 1.00D-01 BMatC= 1.86D-12 BMatP= 6.77D-11
 IDIUse=1 WtCom= 1.00D+00 WtEn= 0.00D+00
 Coeff-Com:  0.355D-02-0.154D-01-0.692D-01-0.680D-01 0.115D+01
 Coeff:      0.355D-02-0.154D-01-0.692D-01-0.680D-01 0.115D+01
 Gap=     0.100 Goal=   None    Shift=    0.000
 Gap=     0.100 Goal=   None    Shift=    0.000
 RMSDP=2.88D-08 MaxDP=1.95D-07 DE=-1.94D-11 OVMax= 1.67D-06

 Cycle  12  Pass 1  IDiag  1:
 E= -110.210390224895     Delta-E=       -0.000000000003 Rises=F Damp=F
 DIIS: error= 5.16D-08 at cycle   6 NSaved=   6.
 NSaved= 6 IEnMin= 6 EnMin= -110.210390224895     IErMin= 6 ErrMin= 5.16D-08
 ErrMax= 5.16D-08  0.00D+00 EMaxC= 1.00D-01 BMatC= 1.89D-13 BMatP= 1.86D-12
 IDIUse=1 WtCom= 1.00D+00 WtEn= 0.00D+00
 Coeff-Com:  0.481D-02-0.541D-02-0.260D-01-0.615D-01-0.177D+00 0.126D+01
 Coeff:      0.481D-02-0.541D-02-0.260D-01-0.615D-01-0.177D+00 0.126D+01
 Gap=     0.100 Goal=   None    Shift=    0.000
 Gap=     0.100 Goal=   None    Shift=    0.000
 RMSDP=1.30D-08 MaxDP=9.34D-08 DE=-2.50D-12 OVMax= 9.18D-07

 Cycle  13  Pass 1  IDiag  1:
 E= -110.210390224896     Delta-E=       -0.000000000000 Rises=F Damp=F
 DIIS: error= 1.22D-08 at cycle   7 NSaved=   7.
 NSaved= 7 IEnMin= 7 EnMin= -110.210390224896     IErMin= 7 ErrMin= 1.22D-08
 ErrMax= 1.22D-08  0.00D+00 EMaxC= 1.00D-01 BMatC= 1.80D-14 BMatP= 1.89D-13
 IDIUse=1 WtCom= 1.00D+00 WtEn= 0.00D+00
 Coeff-Com: -0.565D-03 0.154D-02 0.697D-02 0.674D-02-0.133D+00 0.111D+00
 Coeff-Com:  0.101D+01
 Coeff:     -0.565D-03 0.154D-02 0.697D-02 0.674D-02-0.133D+00 0.111D+00
 Coeff:      0.101D+01
 Gap=     0.100 Goal=   None    Shift=    0.000
 Gap=     0.100 Goal=   None    Shift=    0.000
 RMSDP=2.30D-09 MaxDP=1.54D-08 DE=-3.69D-13 OVMax= 1.70D-07

 SCF Done:  E(UM062X) =  -110.210390225     A.U. after   13 cycles
            NFock= 13  Conv=0.23D-08     -V/T= 2.0054
 <Sx>= 0.0000 <Sy>= 0.0000 <Sz>= 0.0000 <S**2>=-0.0000 S=-0.0000
 <L.S>=  0.00000000000    
 KE= 1.096149104869D+02 PE=-2.940708127740D+02 EE= 5.622855749414D+01
 Annihilation of the first spin contaminant:
 S**2 before annihilation    -0.0000,   after    -0.0000
 Leave Link  502 at Thu May 15 15:39:20 2025, MaxMem=   536870912 cpu:              18.8 elap:               2.4
 (Enter /home/szhao/Apps/g16/l701.exe)
 ... and contract with generalized density number  0.
 Compute integral first derivatives.
 Leave Link  701 at Thu May 15 15:39:20 2025, MaxMem=   536870912 cpu:               0.7 elap:               0.1
 (Enter /home/szhao/Apps/g16/l702.exe)
 L702 exits ... SP integral derivatives will be done elsewhere.
 Leave Link  702 at Thu May 15 15:39:20 2025, MaxMem=   536870912 cpu:               0.2 elap:               0.0
 (Enter /home/szhao/Apps/g16/l703.exe)
 Integral derivatives from FoFJK, PRISM(SPDF).
 Compute integral first derivatives, UseDBF=F ICtDFT=           0.
 Calling FoFJK, ICntrl=      2127 FMM=F ISym2X=0 I1Cent= 0 IOpClX= 1 NMat=1 NMatS=1 NMatT=0.
 FoFJK:  IHMeth= 1 ICntrl=    2127 DoSepK=F KAlg= 0 I1Cent=           0 FoldK=F
 IRaf=         0 NMat=       1 IRICut=       1 DoRegI=T DoRafI=F ISym2E= 0 IDoP0=0 IntGTp=1.
 FoFCou: FMM=F IPFlag=           0 FMFlag=      100000 FMFlg1=         800
         NFxFlg=           0 DoJE=F BraDBF=F KetDBF=F FulRan=T
         wScrn=  0.000000 ICntrl=      2127 IOpCl=  1 I1Cent=           0 NGrid=           0
         NMat0=    1 NMatS0=      1 NMatT0=    0 NMatD0=    1 NMtDS0=    0 NMtDT0=    0
 Symmetry not used in FoFCou.
 Leave Link  703 at Thu May 15 15:39:21 2025, MaxMem=   536870912 cpu:               3.6 elap:               0.4
 (Enter /home/szhao/Apps/g16/l716.exe)
 Dipole        =-8.20889667D-09-2.35493181D-10-5.33118605D-14
 -------------------------------------------------------------------
 Center     Atomic                   Forces (Hartrees/Bohr)
 Number     Number              X              Y              Z
 -------------------------------------------------------------------
      1        7          -0.000000000   -0.000000000   -0.000000000
      2        7          -0.000000000   -0.000000000   -0.000000000
      3        1           0.007964074   -0.001231951   -0.000000000
      4        1          -0.007964074    0.001231951    0.000000000
 -------------------------------------------------------------------
 Cartesian Forces:  Max     0.007964074 RMS     0.003289989
 Leave Link  716 at Thu May 15 15:39:21 2025, MaxMem=   536870912 cpu:               0.2 elap:               0.0
 (Enter /home/szhao/Apps/g16/l103.exe)

 GradGradGradGradGradGradGradGradGradGradGradGradGradGradGradGradGradGrad
 Berny optimization.
 Using GEDIIS/GDIIS optimizer.
 FormGI is forming the generalized inverse of G from B-inverse, IUseBI=4.
 Internal  Forces:  Max     0.015824971 RMS     0.008085310
 Search for a local minimum.
 Step number   2 out of a maximum of   21
 All quantities printed in internal units (Hartrees-Bohrs-Radians)
 RMS Force = .10009D-01 SwitMx=.10000D-02 MixMth= 1
 Mixed Optimization -- RFO/linear search
 Update second derivatives using D2CorX and points    1    2
 DE= -4.57D-03 DEPred=-2.68D-03 R= 1.71D+00
 TightC=F SS=  1.41D+00  RLast= 1.76D-01 DXNew= 5.0454D-01 5.2754D-01
 Trust test= 1.71D+00 RLast= 1.76D-01 DXMaxT set to 5.05D-01
 The second derivative matrix:
                          X1        Y1        Z1        X2        Y2
           X1           0.50018
           Y1          -0.00325   0.55758
           Z1          -0.00000   0.00000   0.50000
           X2          -0.00018   0.00325   0.00000   0.50018
           Y2           0.00325  -0.05758  -0.00000  -0.00325   0.55758
           Z2          -0.00000   0.00000   0.00000   0.00000  -0.00000
           R1           0.00210  -0.03715  -0.00000  -0.00210   0.03715
           R2           0.00210  -0.03715  -0.00000  -0.00210   0.03715
           A1          -0.00175   0.03092   0.00000   0.00175  -0.03092
           A2          -0.00175   0.03092   0.00000   0.00175  -0.03092
           D1          -0.00000   0.00000   0.00000   0.00000  -0.00000
                          Z2        R1        R2        A1        A2
           Z2           0.50000
           R1          -0.00000   0.44210
           R2          -0.00000   0.01833   0.44210
           A1           0.00000   0.00100   0.00100   0.09873
           A2           0.00000   0.00100   0.00100  -0.06127   0.09873
           D1           0.00000  -0.00000  -0.00000   0.00000   0.00000
                          D1
           D1           0.00230
 ITU=  1  0
 Use linear search instead of GDIIS.
     Eigenvalues ---    0.00230   0.03746   0.16000   0.42378   0.46044
     Eigenvalues --- 1000.000001000.000001000.000001000.000001000.00000
     Eigenvalues --- 1000.00000
 RFO step:  Lambda=-6.70409691D-04 EMin= 2.30000000D-03
 Quartic linear search produced a step of  2.00000.
 Iteration  1 RMS(Cart)=  0.16337832 RMS(Int)=  0.03943187
 Iteration  2 RMS(Cart)=  0.07399585 RMS(Int)=  0.00317023
 Iteration  3 RMS(Cart)=  0.00332505 RMS(Int)=  0.00000234
 Iteration  4 RMS(Cart)=  0.00000439 RMS(Int)=  0.00000000
 Iteration  5 RMS(Cart)=  0.00000000 RMS(Int)=  0.00000000
 ITry= 1 IFail=0 DXMaxC= 5.43D-01 DCOld= 1.00D+10 DXMaxT= 5.05D-01 DXLimC= 3.00D+00 Rises=F
 Variable       Old X    -DE/DX   Delta X   Delta X   Delta X     New X
                                 (Linear)    (Quad)   (Total)
    X1       -2.86374   0.00796   0.00000   0.00000   0.00000  -2.86374
    Y1        0.00000  -0.00676   0.00000   0.00000   0.00000   0.00000
    Z1        0.00000   0.00000   0.00000   0.00000   0.00000   0.00000
    X2        2.86374  -0.00796   0.00000   0.00000   0.00000   2.86374
    Y2        0.00000   0.00676   0.00000   0.00000   0.00000   0.00000
    Z2        0.00000   0.00000   0.00000   0.00000   0.00000   0.00000
    R1        1.96402  -0.00015   0.02513  -0.02540  -0.00026   1.96375
    R2        1.96402  -0.00015   0.02513  -0.02540  -0.00026   1.96375
    A1        1.74249  -0.01582  -0.24741  -0.03002  -0.27743   1.46507
    A2        1.74249  -0.01582  -0.24741  -0.03002  -0.27743   1.46507
    D1        3.14159   0.00000   0.00000   0.00000   0.00000   3.14159
         Item               Value     Threshold  Converged?
 Maximum Force            0.015825     0.000450     NO 
 RMS     Force            0.010009     0.000300     NO 
 Maximum Displacement     0.542804     0.001800     NO 
 RMS     Displacement     0.231575     0.001200     NO 
 Predicted change in Energy=-5.896413D-03
 Lowest energy point so far.  Saving SCF results.
 GradGradGradGradGradGradGradGradGradGradGradGradGradGradGradGradGradGrad

 Leave Link  103 at Thu May 15 15:39:21 2025, MaxMem=   536870912 cpu:               0.0 elap:               0.0
 (Enter /home/szhao/Apps/g16/l202.exe)
                          Input orientation:                          
 ---------------------------------------------------------------------
 Center     Atomic      Atomic             Coordinates (Angstroms)
 Number     Number       Type             X           Y           Z
 ---------------------------------------------------------------------
      1          7           0       -1.515428    0.000000    0.000000
      2          7           0        1.515428    0.000000    0.000000
      3          1           0       -1.405760   -1.033369   -0.000000
      4          1           0        1.405760    1.033369   -0.000000
 ---------------------------------------------------------------------
                    Distance matrix (angstroms):
                    1          2          3          4
     1  N    0.000000
     2  N    3.030856   0.000000
     3  H    1.039172   3.098579   0.000000
     4  H    3.098579   1.039172   3.489420   0.000000
 Symmetry turned off by external request.
 Stoichiometry    H2N2
 Framework group  C2H[SGH(H2N2)]
 Deg. of freedom     3
 Full point group                 C2H     NOp   4
 Rotational constants (GHZ):         249.8098236           7.3854133           7.1733397
 Leave Link  202 at Thu May 15 15:39:21 2025, MaxMem=   536870912 cpu:               0.0 elap:               0.0
 (Enter /home/szhao/Apps/g16/l301.exe)
 Standard basis: 6-311+G(d,p) (5D, 7F)
 Ernie: Thresh=  0.10000D-02 Tol=  0.10000D-05 Strict=F.
    56 basis functions,    88 primitive gaussians,    58 cartesian basis functions
     8 alpha electrons        8 beta electrons
       nuclear repulsion energy        18.2270290813 Hartrees.
 IExCor= 4336 DFT=T Ex+Corr=M062X ExCW=0 ScaHFX=  0.540000
 ScaDFX=  1.000000  1.000000  1.000000  1.000000 ScalE2=  1.000000  1.000000
 IRadAn=      7 IRanWt=     -1 IRanGd=            0 ICorTp=0 IEmpDi=  4
 NAtoms=    4 NActive=    4 NUniq=    4 SFac= 1.00D+00 NAtFMM=   60 NAOKFM=F Big=F
 Integral buffers will be    131072 words long.
 Raffenetti 2 integral format.
 Two-electron integral symmetry is turned off.
 Leave Link  301 at Thu May 15 15:39:21 2025, MaxMem=   536870912 cpu:               0.2 elap:               0.0
 (Enter /home/szhao/Apps/g16/l302.exe)
 NPDir=0 NMtPBC=     1 NCelOv=     1 NCel=       1 NClECP=     1 NCelD=      1
         NCelK=      1 NCelE2=     1 NClLst=     1 CellRange=     0.0.
 One-electron integrals computed using PRISM.
 NBasis=    56 RedAO= T EigKep=  6.28D-03  NBF=    56
 NBsUse=    56 1.00D-06 EigRej= -1.00D+00 NBFU=    56
 Precomputing XC quadrature grid using
 IXCGrd= 4 IRadAn=           7 IRanWt=          -1 IRanGd=           0 AccXCQ= 0.00D+00.
 Generated NRdTot=       0 NPtTot=           0 NUsed=           0 NTot=          32
 NSgBfM=    58    58    58    58    58 MxSgAt=     4 MxSgA2=     4.
 Leave Link  302 at Thu May 15 15:39:21 2025, MaxMem=   536870912 cpu:               1.0 elap:               0.1
 (Enter /home/szhao/Apps/g16/l303.exe)
 DipDrv:  MaxL=1.
 Leave Link  303 at Thu May 15 15:39:21 2025, MaxMem=   536870912 cpu:               0.2 elap:               0.0
 (Enter /home/szhao/Apps/g16/l401.exe)
 Initial guess from the checkpoint file:  "opt.chk"
 B after Tr=    -0.000000    0.000000   -0.000000
         Rot=    0.999968   -0.000000   -0.000000   -0.007941 Ang=  -0.91 deg.
 Guess basis will be translated and rotated to current coordinates.
 JPrj=2 DoOrth=T DoCkMO=T.
 Initial guess <Sx>= 0.0000 <Sy>= 0.0000 <Sz>= 0.0000 <S**2>=-0.0000 S=-0.0000
 Generating alternative initial guess.
 ExpMin= 6.39D-02 ExpMax= 6.29D+03 ExpMxC= 9.49D+02 IAcc=3 IRadAn=         5 AccDes= 0.00D+00
 Harris functional with IExCor= 1009 and IRadAn=       5 diagonalized for initial guess.
 HarFok:  IExCor= 1009 AccDes= 0.00D+00 IRadAn=         5 IDoV= 1 UseB2=F ITyADJ=14
 ICtDFT=  3500011 ScaDFX=  1.000000  1.000000  1.000000  1.000000
 FoFCou: FMM=F IPFlag=           0 FMFlag=      100000 FMFlg1=           0
         NFxFlg=           0 DoJE=T BraDBF=F KetDBF=T FulRan=T
         wScrn=  0.000000 ICntrl=       500 IOpCl=  0 I1Cent=   200000004 NGrid=           0
         NMat0=    1 NMatS0=      1 NMatT0=    0 NMatD0=    1 NMtDS0=    0 NMtDT0=    0
 Symmetry not used in FoFCou.
 Harris En= -110.236772260656    
 Leave Link  401 at Thu May 15 15:39:21 2025, MaxMem=   536870912 cpu:               1.5 elap:               0.2
 (Enter /home/szhao/Apps/g16/l502.exe)
 Keep R1 and R2 ints in memory in canonical form, NReq=9624198.
 FoFCou: FMM=F IPFlag=           0 FMFlag=           0 FMFlg1=           0
         NFxFlg=           0 DoJE=F BraDBF=F KetDBF=F FulRan=T
         wScrn=  0.000000 ICntrl=       600 IOpCl=  0 I1Cent=           0 NGrid=           0
         NMat0=    1 NMatS0=   1596 NMatT0=    0 NMatD0=    1 NMtDS0=    0 NMtDT0=    0
 Symmetry not used in FoFCou.
 Two-electron integral symmetry not used.
 UHF open shell SCF:
 Using DIIS extrapolation, IDIIS=  1040.
 NGot=   536870912 LenX=   534314338 LenY=   534310533
 Requested convergence on RMS density matrix=1.00D-08 within 128 cycles.
 Requested convergence on MAX density matrix=1.00D-06.
 Requested convergence on             energy=1.00D-06.
 No special actions if energy rises.
 Integral accuracy reduced to 1.0D-05 until final iterations.

 Cycle   1  Pass 0  IDiag  1:
 E= -110.197730887235    
 DIIS: error= 1.44D-02 at cycle   1 NSaved=   1.
 NSaved= 1 IEnMin= 1 EnMin= -110.197730887235     IErMin= 1 ErrMin= 1.44D-02
 ErrMax= 1.44D-02  0.00D+00 EMaxC= 1.00D-01 BMatC= 3.23D-02 BMatP= 3.23D-02
 IDIUse=3 WtCom= 8.56D-01 WtEn= 1.44D-01
 Coeff-Com:  0.100D+01
 Coeff-En:   0.100D+01
 Coeff:      0.100D+01
 Recover alternate guess density for next cycle.
 RMSDP=2.93D-03 MaxDP=2.90D-02              OVMax= 0.00D+00

 Cycle   2  Pass 0  IDiag  1:
 E= -110.207785313285     Delta-E=       -0.010054426050 Rises=F Damp=F
 DIIS: error= 2.38D-02 at cycle   2 NSaved=   2.
 NSaved= 2 IEnMin= 2 EnMin= -110.207785313285     IErMin= 1 ErrMin= 1.44D-02
 ErrMax= 2.38D-02  0.00D+00 EMaxC= 1.00D-01 BMatC= 9.18D-02 BMatP= 3.23D-02
 IDIUse=2 WtCom= 0.00D+00 WtEn= 1.00D+00
 Coeff-En:   0.000D+00 0.100D+01
 Coeff:      0.000D+00 0.100D+01
 Gap=     0.102 Goal=   None    Shift=    0.000
 Gap=     0.102 Goal=   None    Shift=    0.000
 RMSDP=1.30D-03 MaxDP=8.43D-03 DE=-1.01D-02 OVMax= 3.83D-02

 Cycle   3  Pass 0  IDiag  1:
 E= -110.214600979728     Delta-E=       -0.006815666443 Rises=F Damp=F
 DIIS: error= 5.82D-03 at cycle   3 NSaved=   3.
 NSaved= 3 IEnMin= 3 EnMin= -110.214600979728     IErMin= 3 ErrMin= 5.82D-03
 ErrMax= 5.82D-03  0.00D+00 EMaxC= 1.00D-01 BMatC= 5.98D-03 BMatP= 3.23D-02
 IDIUse=3 WtCom= 9.42D-01 WtEn= 5.82D-02
 Coeff-Com:  0.118D+00 0.105D+00 0.777D+00
 Coeff-En:   0.000D+00 0.000D+00 0.100D+01
 Coeff:      0.111D+00 0.990D-01 0.790D+00
 Gap=     0.101 Goal=   None    Shift=    0.000
 Gap=     0.101 Goal=   None    Shift=    0.000
 RMSDP=7.35D-04 MaxDP=1.46D-02 DE=-6.82D-03 OVMax= 1.65D-02

 Cycle   4  Pass 0  IDiag  1:
 E= -110.215484230113     Delta-E=       -0.000883250385 Rises=F Damp=F
 DIIS: error= 4.27D-03 at cycle   4 NSaved=   4.
 NSaved= 4 IEnMin= 4 EnMin= -110.215484230113     IErMin= 4 ErrMin= 4.27D-03
 ErrMax= 4.27D-03  0.00D+00 EMaxC= 1.00D-01 BMatC= 1.71D-03 BMatP= 5.98D-03
 IDIUse=3 WtCom= 9.57D-01 WtEn= 4.27D-02
 Coeff-Com: -0.114D-01 0.220D-02 0.347D+00 0.662D+00
 Coeff-En:   0.000D+00 0.000D+00 0.155D+00 0.845D+00
 Coeff:     -0.109D-01 0.211D-02 0.339D+00 0.669D+00
 Gap=     0.101 Goal=   None    Shift=    0.000
 Gap=     0.101 Goal=   None    Shift=    0.000
 RMSDP=2.67D-04 MaxDP=3.91D-03 DE=-8.83D-04 OVMax= 7.71D-03

 Cycle   5  Pass 0  IDiag  1:
 E= -110.215901814878     Delta-E=       -0.000417584765 Rises=F Damp=F
 DIIS: error= 2.56D-04 at cycle   5 NSaved=   5.
 NSaved= 5 IEnMin= 5 EnMin= -110.215901814878     IErMin= 5 ErrMin= 2.56D-04
 ErrMax= 2.56D-04  0.00D+00 EMaxC= 1.00D-01 BMatC= 1.69D-05 BMatP= 1.71D-03
 IDIUse=3 WtCom= 9.97D-01 WtEn= 2.56D-03
 Coeff-Com: -0.319D-02-0.251D-02-0.430D-01 0.933D-02 0.104D+01
 Coeff-En:   0.000D+00 0.000D+00 0.000D+00 0.000D+00 0.100D+01
 Coeff:     -0.318D-02-0.250D-02-0.429D-01 0.931D-02 0.104D+01
 Gap=     0.101 Goal=   None    Shift=    0.000
 Gap=     0.101 Goal=   None    Shift=    0.000
 RMSDP=4.31D-05 MaxDP=7.01D-04 DE=-4.18D-04 OVMax= 1.98D-03

 Cycle   6  Pass 0  IDiag  1:
 E= -110.215909074381     Delta-E=       -0.000007259503 Rises=F Damp=F
 DIIS: error= 5.36D-05 at cycle   6 NSaved=   6.
 NSaved= 6 IEnMin= 6 EnMin= -110.215909074381     IErMin= 6 ErrMin= 5.36D-05
 ErrMax= 5.36D-05  0.00D+00 EMaxC= 1.00D-01 BMatC= 5.48D-07 BMatP= 1.69D-05
 IDIUse=1 WtCom= 1.00D+00 WtEn= 0.00D+00
 Coeff-Com: -0.221D-03-0.461D-04-0.204D-01-0.331D-01 0.145D-01 0.104D+01
 Coeff:     -0.221D-03-0.461D-04-0.204D-01-0.331D-01 0.145D-01 0.104D+01
 Gap=     0.101 Goal=   None    Shift=    0.000
 Gap=     0.101 Goal=   None    Shift=    0.000
 RMSDP=1.33D-05 MaxDP=8.88D-05 DE=-7.26D-06 OVMax= 8.11D-04

 Cycle   7  Pass 0  IDiag  1:
 E= -110.215909522486     Delta-E=       -0.000000448105 Rises=F Damp=F
 DIIS: error= 1.03D-04 at cycle   7 NSaved=   7.
 NSaved= 7 IEnMin= 7 EnMin= -110.215909522486     IErMin= 6 ErrMin= 5.36D-05
 ErrMax= 1.03D-04  0.00D+00 EMaxC= 1.00D-01 BMatC= 6.74D-07 BMatP= 5.48D-07
 IDIUse=1 WtCom= 1.00D+00 WtEn= 0.00D+00
 Coeff-Com: -0.204D-03-0.875D-05-0.148D-01-0.249D-01 0.279D-02 0.767D+00
 Coeff-Com:  0.270D+00
 Coeff:     -0.204D-03-0.875D-05-0.148D-01-0.249D-01 0.279D-02 0.767D+00
 Coeff:      0.270D+00
 Gap=     0.101 Goal=   None    Shift=    0.000
 Gap=     0.101 Goal=   None    Shift=    0.000
 RMSDP=8.84D-06 MaxDP=1.17D-04 DE=-4.48D-07 OVMax= 6.03D-04

 Initial convergence to 1.0D-05 achieved.  Increase integral accuracy.
 Cycle   8  Pass 1  IDiag  1:
 E= -110.215910374101     Delta-E=       -0.000000851616 Rises=F Damp=F
 DIIS: error= 2.48D-04 at cycle   1 NSaved=   1.
 NSaved= 1 IEnMin= 1 EnMin= -110.215910374101     IErMin= 1 ErrMin= 2.48D-04
 ErrMax= 2.48D-04  0.00D+00 EMaxC= 1.00D-01 BMatC= 3.76D-06 BMatP= 3.76D-06
 IDIUse=3 WtCom= 9.98D-01 WtEn= 2.48D-03
 Coeff-Com:  0.100D+01
 Coeff-En:   0.100D+01
 Coeff:      0.100D+01
 Gap=     0.101 Goal=   None    Shift=    0.000
 Gap=     0.101 Goal=   None    Shift=    0.000
 RMSDP=8.84D-06 MaxDP=1.17D-04 DE=-8.52D-07 OVMax= 5.43D-03

 Cycle   9  Pass 1  IDiag  1:
 E= -110.215793837043     Delta-E=        0.000116537058 Rises=F Damp=F
 DIIS: error= 2.91D-03 at cycle   2 NSaved=   2.
 NSaved= 2 IEnMin= 1 EnMin= -110.215910374101     IErMin= 1 ErrMin= 2.48D-04
 ErrMax= 2.91D-03  0.00D+00 EMaxC= 1.00D-01 BMatC= 5.12D-04 BMatP= 3.76D-06
 IDIUse=3 WtCom= 1.56D-01 WtEn= 8.44D-01
 Coeff-Com:  0.921D+00 0.787D-01
 Coeff-En:   0.957D+00 0.428D-01
 Coeff:      0.952D+00 0.484D-01
 Gap=     0.101 Goal=   None    Shift=    0.000
 Gap=     0.101 Goal=   None    Shift=    0.000
 RMSDP=4.48D-05 MaxDP=5.99D-04 DE= 1.17D-04 OVMax= 3.08D-03

 Cycle  10  Pass 1  IDiag  1:
 E= -110.215893910139     Delta-E=       -0.000100073096 Rises=F Damp=F
 DIIS: error= 1.12D-03 at cycle   3 NSaved=   3.
 NSaved= 3 IEnMin= 1 EnMin= -110.215910374101     IErMin= 1 ErrMin= 2.48D-04
 ErrMax= 1.12D-03  0.00D+00 EMaxC= 1.00D-01 BMatC= 7.58D-05 BMatP= 3.76D-06
 IDIUse=3 WtCom= 2.30D-01 WtEn= 7.70D-01
 Coeff-Com: -0.149D+00-0.739D+00 0.189D+01
 Coeff-En:   0.845D+00 0.000D+00 0.155D+00
 Coeff:      0.616D+00-0.170D+00 0.554D+00
 Gap=     0.101 Goal=   None    Shift=    0.000
 Gap=     0.101 Goal=   None    Shift=    0.000
 RMSDP=1.98D-05 MaxDP=2.65D-04 DE=-1.00D-04 OVMax= 1.36D-03

 Cycle  11  Pass 1  IDiag  1:
 E= -110.215909795033     Delta-E=       -0.000015884894 Rises=F Damp=F
 DIIS: error= 3.27D-04 at cycle   4 NSaved=   4.
 NSaved= 4 IEnMin= 1 EnMin= -110.215910374101     IErMin= 1 ErrMin= 2.48D-04
 ErrMax= 3.27D-04  0.00D+00 EMaxC= 1.00D-01 BMatC= 6.46D-06 BMatP= 3.76D-06
 IDIUse=3 WtCom= 3.56D-01 WtEn= 6.44D-01
 Coeff-Com: -0.404D+00 0.276D+00-0.160D+01 0.273D+01
 Coeff-En:   0.569D+00 0.000D+00 0.000D+00 0.431D+00
 Coeff:      0.222D+00 0.982D-01-0.572D+00 0.125D+01
 Gap=     0.101 Goal=   None    Shift=    0.000
 Gap=     0.101 Goal=   None    Shift=    0.000
 RMSDP=8.13D-06 MaxDP=1.08D-04 DE=-1.59D-05 OVMax= 5.56D-04

 Cycle  12  Pass 1  IDiag  1:
 E= -110.215911280365     Delta-E=       -0.000001485332 Rises=F Damp=F
 DIIS: error= 3.96D-06 at cycle   5 NSaved=   5.
 NSaved= 5 IEnMin= 5 EnMin= -110.215911280365     IErMin= 5 ErrMin= 3.96D-06
 ErrMax= 3.96D-06  0.00D+00 EMaxC= 1.00D-01 BMatC= 2.09D-09 BMatP= 3.76D-06
 IDIUse=1 WtCom= 1.00D+00 WtEn= 0.00D+00
 Coeff-Com: -0.382D-01 0.270D+00-0.424D+00-0.100D+01 0.219D+01
 Coeff:     -0.382D-01 0.270D+00-0.424D+00-0.100D+01 0.219D+01
 Gap=     0.101 Goal=   None    Shift=    0.000
 Gap=     0.101 Goal=   None    Shift=    0.000
 RMSDP=1.17D-06 MaxDP=8.46D-06 DE=-1.49D-06 OVMax= 8.49D-05

 Cycle  13  Pass 1  IDiag  1:
 E= -110.215911283372     Delta-E=       -0.000000003006 Rises=F Damp=F
 DIIS: error= 6.46D-07 at cycle   6 NSaved=   6.
 NSaved= 6 IEnMin= 6 EnMin= -110.215911283372     IErMin= 6 ErrMin= 6.46D-07
 ErrMax= 6.46D-07  0.00D+00 EMaxC= 1.00D-01 BMatC= 4.08D-11 BMatP= 2.09D-09
 IDIUse=1 WtCom= 1.00D+00 WtEn= 0.00D+00
 Coeff-Com:  0.166D-01-0.424D-01 0.301D+00-0.644D+00 0.432D+00 0.936D+00
 Coeff:      0.166D-01-0.424D-01 0.301D+00-0.644D+00 0.432D+00 0.936D+00
 Gap=     0.101 Goal=   None    Shift=    0.000
 Gap=     0.101 Goal=   None    Shift=    0.000
 RMSDP=6.02D-08 MaxDP=6.53D-07 DE=-3.01D-09 OVMax= 3.68D-06

 Cycle  14  Pass 1  IDiag  1:
 E= -110.215911283385     Delta-E=       -0.000000000014 Rises=F Damp=F
 DIIS: error= 1.61D-08 at cycle   7 NSaved=   7.
 NSaved= 7 IEnMin= 7 EnMin= -110.215911283385     IErMin= 7 ErrMin= 1.61D-08
 ErrMax= 1.61D-08  0.00D+00 EMaxC= 1.00D-01 BMatC= 5.10D-14 BMatP= 4.08D-11
 IDIUse=1 WtCom= 1.00D+00 WtEn= 0.00D+00
 Coeff-Com:  0.373D-03-0.822D-03-0.672D-02 0.309D-01-0.368D-01-0.261D-01
 Coeff-Com:  0.104D+01
 Coeff:      0.373D-03-0.822D-03-0.672D-02 0.309D-01-0.368D-01-0.261D-01
 Coeff:      0.104D+01
 Gap=     0.101 Goal=   None    Shift=    0.000
 Gap=     0.101 Goal=   None    Shift=    0.000
 RMSDP=3.20D-09 MaxDP=1.89D-08 DE=-1.37D-11 OVMax= 9.63D-08

 SCF Done:  E(UM062X) =  -110.215911283     A.U. after   14 cycles
            NFock= 14  Conv=0.32D-08     -V/T= 2.0055
 <Sx>= 0.0000 <Sy>= 0.0000 <Sz>= 0.0000 <S**2>=-0.0000 S=-0.0000
 <L.S>=  0.00000000000    
 KE= 1.096097875472D+02 PE=-2.944297488576D+02 EE= 5.637702094568D+01
 Annihilation of the first spin contaminant:
 S**2 before annihilation    -0.0000,   after     0.0000
 Leave Link  502 at Thu May 15 15:39:24 2025, MaxMem=   536870912 cpu:              18.9 elap:               2.4
 (Enter /home/szhao/Apps/g16/l701.exe)
 ... and contract with generalized density number  0.
 Compute integral first derivatives.
 Leave Link  701 at Thu May 15 15:39:24 2025, MaxMem=   536870912 cpu:               0.7 elap:               0.1
 (Enter /home/szhao/Apps/g16/l702.exe)
 L702 exits ... SP integral derivatives will be done elsewhere.
 Leave Link  702 at Thu May 15 15:39:24 2025, MaxMem=   536870912 cpu:               0.2 elap:               0.0
 (Enter /home/szhao/Apps/g16/l703.exe)
 Integral derivatives from FoFJK, PRISM(SPDF).
 Compute integral first derivatives, UseDBF=F ICtDFT=           0.
 Calling FoFJK, ICntrl=      2127 FMM=F ISym2X=0 I1Cent= 0 IOpClX= 1 NMat=1 NMatS=1 NMatT=0.
 FoFJK:  IHMeth= 1 ICntrl=    2127 DoSepK=F KAlg= 0 I1Cent=           0 FoldK=F
 IRaf=         0 NMat=       1 IRICut=       1 DoRegI=T DoRafI=F ISym2E= 0 IDoP0=0 IntGTp=1.
 FoFCou: FMM=F IPFlag=           0 FMFlag=      100000 FMFlg1=         800
         NFxFlg=           0 DoJE=F BraDBF=F KetDBF=F FulRan=T
         wScrn=  0.000000 ICntrl=      2127 IOpCl=  1 I1Cent=           0 NGrid=           0
         NMat0=    1 NMatS0=      1 NMatT0=    0 NMatD0=    1 NMtDS0=    0 NMtDT0=    0
 Symmetry not used in FoFCou.
 Leave Link  703 at Thu May 15 15:39:24 2025, MaxMem=   536870912 cpu:               4.0 elap:               0.5
 (Enter /home/szhao/Apps/g16/l716.exe)
 Dipole        =-1.88905625D-07-3.71639475D-09-7.57786307D-10
 -------------------------------------------------------------------
 Center     Atomic                   Forces (Hartrees/Bohr)
 Number     Number              X              Y              Z
 -------------------------------------------------------------------
      1        7          -0.000000000   -0.000000000   -0.000000000
      2        7          -0.000000000   -0.000000000   -0.000000000
      3        1           0.001889816    0.000624582    0.000000000
      4        1          -0.001889817   -0.000624580    0.000000000
 -------------------------------------------------------------------
 Cartesian Forces:  Max     0.001889817 RMS     0.000812558
 Leave Link  716 at Thu May 15 15:39:24 2025, MaxMem=   536870912 cpu:               0.2 elap:               0.0
 (Enter /home/szhao/Apps/g16/l103.exe)

 GradGradGradGradGradGradGradGradGradGradGradGradGradGradGradGradGradGrad
 Berny optimization.
 Using GEDIIS/GDIIS optimizer.
 FormGI is forming the generalized inverse of G from B-inverse, IUseBI=4.
 Internal  Forces:  Max     0.003819844 RMS     0.001850970
 Search for a local minimum.
 Step number   3 out of a maximum of   21
 All quantities printed in internal units (Hartrees-Bohrs-Radians)
 RMS Force = .24306D-02 SwitMx=.10000D-02 MixMth= 1
 Mixed Optimization -- RFO/linear search
 Update second derivatives using D2CorX and points    1    2    3
 DE= -5.52D-03 DEPred=-5.90D-03 R= 9.36D-01
 TightC=F SS=  1.41D+00  RLast= 3.92D-01 DXNew= 8.4853D-01 1.1770D+00
 Trust test= 9.36D-01 RLast= 3.92D-01 DXMaxT set to 8.49D-01
 The second derivative matrix:
                          X1        Y1        Z1        X2        Y2
           X1           0.50562
           Y1          -0.00614   0.51028
           Z1          -0.00000   0.00000   0.50000
           X2          -0.00562   0.00614   0.00000   0.50562
           Y2           0.00614  -0.01028  -0.00000  -0.00614   0.51028
           Z2          -0.00000   0.00000   0.00000   0.00000  -0.00000
           R1           0.00462  -0.03347  -0.00000  -0.00462   0.03347
           R2           0.00462  -0.03347  -0.00000  -0.00462   0.03347
           A1          -0.01095   0.01093   0.00000   0.01095  -0.01093
           A2          -0.01095   0.01093   0.00000   0.01095  -0.01093
           D1          -0.00000   0.00000   0.00000   0.00000  -0.00000
                          Z2        R1        R2        A1        A2
           Z2           0.50000
           R1          -0.00000   0.44268
           R2          -0.00000   0.01890   0.44268
           A1           0.00000  -0.00072  -0.00072   0.10164
           A2           0.00000  -0.00072  -0.00072  -0.05836   0.10164
           D1           0.00000  -0.00000  -0.00000   0.00000   0.00000
                          D1
           D1           0.00230
 ITU=  1  1  0
 Use linear search instead of GDIIS.
     Eigenvalues ---    0.00230   0.04327   0.16000   0.42378   0.46159
     Eigenvalues --- 1000.000001000.000001000.000001000.000001000.00000
     Eigenvalues --- 1000.00000
 RFO step:  Lambda=-1.10479666D-06 EMin= 2.30000000D-03
 Quartic linear search produced a step of  0.29357.
 Iteration  1 RMS(Cart)=  0.06797214 RMS(Int)=  0.00276355
 Iteration  2 RMS(Cart)=  0.00278062 RMS(Int)=  0.00000060
 Iteration  3 RMS(Cart)=  0.00000118 RMS(Int)=  0.00000000
 Iteration  4 RMS(Cart)=  0.00000000 RMS(Int)=  0.00000000
 ITry= 1 IFail=0 DXMaxC= 1.58D-01 DCOld= 1.00D+10 DXMaxT= 8.49D-01 DXLimC= 3.00D+00 Rises=F
 Variable       Old X    -DE/DX   Delta X   Delta X   Delta X     New X
                                 (Linear)    (Quad)   (Total)
    X1       -2.86374   0.00189   0.00000   0.00000   0.00000  -2.86374
    Y1        0.00000  -0.00071   0.00000   0.00000   0.00000   0.00000
    Z1        0.00000   0.00000   0.00000   0.00000   0.00000   0.00000
    X2        2.86374  -0.00189   0.00000   0.00000   0.00000   2.86374
    Y2        0.00000   0.00071   0.00000   0.00000   0.00000   0.00000
    Z2        0.00000   0.00000   0.00000   0.00000   0.00000   0.00000
    R1        1.96375  -0.00042  -0.00008  -0.00109  -0.00117   1.96259
    R2        1.96375  -0.00042  -0.00008  -0.00109  -0.00117   1.96259
    A1        1.46507  -0.00382  -0.08144  -0.00002  -0.08147   1.38360
    A2        1.46507  -0.00382  -0.08144  -0.00002  -0.08147   1.38360
    D1        3.14159   0.00000   0.00000   0.00000   0.00000  -3.14159
         Item               Value     Threshold  Converged?
 Maximum Force            0.003820     0.000450     NO 
 RMS     Force            0.002431     0.000300     NO 
 Maximum Displacement     0.158011     0.001800     NO 
 RMS     Displacement     0.068180     0.001200     NO 
 Predicted change in Energy=-3.358054D-04
 Lowest energy point so far.  Saving SCF results.
 GradGradGradGradGradGradGradGradGradGradGradGradGradGradGradGradGradGrad

 Leave Link  103 at Thu May 15 15:39:24 2025, MaxMem=   536870912 cpu:               0.0 elap:               0.0
 (Enter /home/szhao/Apps/g16/l202.exe)
                          Input orientation:                          
 ---------------------------------------------------------------------
 Center     Atomic      Atomic             Coordinates (Angstroms)
 Number     Number       Type             X           Y           Z
 ---------------------------------------------------------------------
      1          7           0       -1.515428    0.000000    0.000000
      2          7           0        1.515428    0.000000    0.000000
      3          1           0       -1.322144   -1.020411    0.000000
      4          1           0        1.322144    1.020411    0.000000
 ---------------------------------------------------------------------
                    Distance matrix (angstroms):
                    1          2          3          4
     1  N    0.000000
     2  N    3.030856   0.000000
     3  H    1.038555   3.015469   0.000000
     4  H    3.015469   1.038555   3.340242   0.000000
 Symmetry turned off by external request.
 Stoichiometry    H2N2
 Framework group  C2[X(H2N2)]
 Deg. of freedom     4
 Full point group                 C2      NOp   2
 Rotational constants (GHZ):         254.4095089           7.4372374           7.2259974
 Leave Link  202 at Thu May 15 15:39:24 2025, MaxMem=   536870912 cpu:               0.0 elap:               0.0
 (Enter /home/szhao/Apps/g16/l301.exe)
 Standard basis: 6-311+G(d,p) (5D, 7F)
 Ernie: Thresh=  0.10000D-02 Tol=  0.10000D-05 Strict=F.
    56 basis functions,    88 primitive gaussians,    58 cartesian basis functions
     8 alpha electrons        8 beta electrons
       nuclear repulsion energy        18.3039324810 Hartrees.
 IExCor= 4336 DFT=T Ex+Corr=M062X ExCW=0 ScaHFX=  0.540000
 ScaDFX=  1.000000  1.000000  1.000000  1.000000 ScalE2=  1.000000  1.000000
 IRadAn=      7 IRanWt=     -1 IRanGd=            0 ICorTp=0 IEmpDi=  4
 NAtoms=    4 NActive=    4 NUniq=    4 SFac= 1.00D+00 NAtFMM=   60 NAOKFM=F Big=F
 Integral buffers will be    131072 words long.
 Raffenetti 2 integral format.
 Two-electron integral symmetry is turned off.
 Leave Link  301 at Thu May 15 15:39:24 2025, MaxMem=   536870912 cpu:               0.3 elap:               0.0
 (Enter /home/szhao/Apps/g16/l302.exe)
 NPDir=0 NMtPBC=     1 NCelOv=     1 NCel=       1 NClECP=     1 NCelD=      1
         NCelK=      1 NCelE2=     1 NClLst=     1 CellRange=     0.0.
 One-electron integrals computed using PRISM.
 NBasis=    56 RedAO= T EigKep=  6.41D-03  NBF=    56
 NBsUse=    56 1.00D-06 EigRej= -1.00D+00 NBFU=    56
 Precomputing XC quadrature grid using
 IXCGrd= 4 IRadAn=           7 IRanWt=          -1 IRanGd=           0 AccXCQ= 0.00D+00.
 Generated NRdTot=       0 NPtTot=           0 NUsed=           0 NTot=          32
 NSgBfM=    58    58    58    58    58 MxSgAt=     4 MxSgA2=     4.
 Leave Link  302 at Thu May 15 15:39:25 2025, MaxMem=   536870912 cpu:               0.9 elap:               0.1
 (Enter /home/szhao/Apps/g16/l303.exe)
 DipDrv:  MaxL=1.
 Leave Link  303 at Thu May 15 15:39:25 2025, MaxMem=   536870912 cpu:               0.2 elap:               0.0
 (Enter /home/szhao/Apps/g16/l401.exe)
 Initial guess from the checkpoint file:  "opt.chk"
[...]

 Cycle   9  Pass 1  IDiag  1:
 E= -110.216231441858     Delta-E=        0.000000000017 Rises=F Damp=F
 DIIS: error= 3.26D-07 at cycle   9 NSaved=   9.
 NSaved= 9 IEnMin= 8 EnMin= -110.216231441876     IErMin= 9 ErrMin= 3.26D-07
 ErrMax= 3.26D-07  0.00D+00 EMaxC= 1.00D-01 BMatC= 2.80D-12 BMatP= 1.13D-11
 IDIUse=1 WtCom= 1.00D+00 WtEn= 0.00D+00
 Coeff-Com: -0.863D-04 0.411D-03 0.181D-03-0.281D-02-0.325D-01-0.906D-03
 Coeff-Com:  0.419D-01-0.958D+00 0.195D+01
 Coeff:     -0.863D-04 0.411D-03 0.181D-03-0.281D-02-0.325D-01-0.906D-03
 Coeff:      0.419D-01-0.958D+00 0.195D+01
 Gap=     0.102 Goal=   None    Shift=    0.000
 Gap=     0.102 Goal=   None    Shift=    0.000
 RMSDP=4.20D-08 MaxDP=6.26D-07 DE= 1.73D-11 OVMax= 3.31D-06

 Cycle  10  Pass 1  IDiag  1:
 E= -110.216231441853     Delta-E=        0.000000000005 Rises=F Damp=F
 DIIS: error= 7.91D-09 at cycle  10 NSaved=  10.
 NSaved=10 IEnMin= 8 EnMin= -110.216231441876     IErMin=10 ErrMin= 7.91D-09
 ErrMax= 7.91D-09  0.00D+00 EMaxC= 1.00D-01 BMatC= 1.27D-14 BMatP= 2.80D-12
 IDIUse=1 WtCom= 1.00D+00 WtEn= 0.00D+00
 Coeff-Com:  0.905D-04-0.102D-02 0.221D-02 0.317D-02-0.131D-01-0.320D-02
 Coeff-Com: -0.483D-01-0.123D+00 0.279D+00 0.904D+00
 Coeff:      0.905D-04-0.102D-02 0.221D-02 0.317D-02-0.131D-01-0.320D-02
 Coeff:     -0.483D-01-0.123D+00 0.279D+00 0.904D+00
 Gap=     0.102 Goal=   None    Shift=    0.000
 Gap=     0.102 Goal=   None    Shift=    0.000
 RMSDP=2.29D-09 MaxDP=1.89D-08 DE= 5.12D-12 OVMax= 8.90D-08

 SCF Done:  E(UM062X) =  -110.216231442     A.U. after   10 cycles
            NFock= 10  Conv=0.23D-08     -V/T= 2.0055
 <Sx>= 0.0000 <Sy>= 0.0000 <Sz>= 0.0000 <S**2>=-0.0000 S=-0.0000
 <L.S>=  0.00000000000    
 KE= 1.096143305738D+02 PE=-2.945712888218D+02 EE= 5.643595371319D+01
 Annihilation of the first spin contaminant:
 S**2 before annihilation    -0.0000,   after    -0.0000
 Leave Link  502 at Thu May 15 15:39:31 2025, MaxMem=   536870912 cpu:              18.4 elap:               2.3
 (Enter /home/szhao/Apps/g16/l701.exe)
 ... and contract with generalized density number  0.
 Compute integral first derivatives.
 Leave Link  701 at Thu May 15 15:39:31 2025, MaxMem=   536870912 cpu:               0.6 elap:               0.1
 (Enter /home/szhao/Apps/g16/l702.exe)
 L702 exits ... SP integral derivatives will be done elsewhere.
 Leave Link  702 at Thu May 15 15:39:31 2025, MaxMem=   536870912 cpu:               0.2 elap:               0.0
 (Enter /home/szhao/Apps/g16/l703.exe)
 Integral derivatives from FoFJK, PRISM(SPDF).
 Compute integral first derivatives, UseDBF=F ICtDFT=           0.
 Calling FoFJK, ICntrl=      2127 FMM=F ISym2X=0 I1Cent= 0 IOpClX= 1 NMat=1 NMatS=1 NMatT=0.
 FoFJK:  IHMeth= 1 ICntrl=    2127 DoSepK=F KAlg= 0 I1Cent=           0 FoldK=F
 IRaf=         0 NMat=       1 IRICut=       1 DoRegI=T DoRafI=F ISym2E= 0 IDoP0=0 IntGTp=1.
 FoFCou: FMM=F IPFlag=           0 FMFlag=      100000 FMFlg1=         800
         NFxFlg=           0 DoJE=F BraDBF=F KetDBF=F FulRan=T
         wScrn=  0.000000 ICntrl=      2127 IOpCl=  1 I1Cent=           0 NGrid=           0
         NMat0=    1 NMatS0=      1 NMatT0=    0 NMatD0=    1 NMtDS0=    0 NMtDT0=    0
 Symmetry not used in FoFCou.
 Leave Link  703 at Thu May 15 15:39:32 2025, MaxMem=   536870912 cpu:               3.1 elap:               0.4
 (Enter /home/szhao/Apps/g16/l716.exe)
 Dipole        =-4.17384660D-09-3.25048877D-10-3.96601198D-08
 -------------------------------------------------------------------
 Center     Atomic                   Forces (Hartrees/Bohr)
 Number     Number              X              Y              Z
 -------------------------------------------------------------------
      1        7          -0.000000000   -0.000000000   -0.000000000
      2        7          -0.000000000   -0.000000000   -0.000000000
      3        1           0.000004166   -0.000018766    0.000000000
      4        1          -0.000004166    0.000018765    0.000000001
 -------------------------------------------------------------------
 Cartesian Forces:  Max     0.000018766 RMS     0.000007847
 Leave Link  716 at Thu May 15 15:39:32 2025, MaxMem=   536870912 cpu:               0.2 elap:               0.0
 (Enter /home/szhao/Apps/g16/l103.exe)

 GradGradGradGradGradGradGradGradGradGradGradGradGradGradGradGradGradGrad
 Berny optimization.
 Using GEDIIS/GDIIS optimizer.
 FormGI is forming the generalized inverse of G from B-inverse, IUseBI=4.
 Internal  Forces:  Max     0.000019214 RMS     0.000011712
 Search for a local minimum.
 Step number   5 out of a maximum of   21
 All quantities printed in internal units (Hartrees-Bohrs-Radians)
 RMS Force = .12172D-04 SwitMx=.10000D-02 MixMth= 2
 Mixed Optimization -- En-DIIS/RFO-DIIS
 Swapping is turned off.
 Update second derivatives using D2CorX and points    2    3    4    5
 DE= -2.52D-07 DEPred=-2.45D-07 R= 1.03D+00
 Trust test= 1.03D+00 RLast= 3.01D-03 DXMaxT set to 8.49D-01
 The second derivative matrix:
                          X1        Y1        Z1        X2        Y2
           X1           0.51078
           Y1          -0.01941   0.54417
           Z1          -0.00000   0.00000   0.50000
           X2          -0.01078   0.01941   0.00000   0.51078
           Y2           0.01941  -0.04417  -0.00000  -0.01941   0.54417
           Z2          -0.00000   0.00000   0.00000   0.00000  -0.00000
           R1           0.00744  -0.05810  -0.00000  -0.00744   0.05810
           R2           0.00744  -0.05810  -0.00000  -0.00744   0.05810
           A1          -0.01549   0.02498   0.00000   0.01549  -0.02498
           A2          -0.01549   0.02498   0.00000   0.01549  -0.02498
           D1          -0.00000   0.00000   0.00000   0.00000  -0.00000
                          Z2        R1        R2        A1        A2
           Z2           0.50000
           R1          -0.00000   0.43394
           R2          -0.00000   0.01016   0.43394
           A1           0.00000   0.00343   0.00343   0.10317
           A2           0.00000   0.00343   0.00343  -0.05683   0.10317
           D1           0.00000  -0.00000  -0.00000   0.00000   0.00000
                          D1
           D1           0.00230
 ITU=  0  1  1  1  0
     Eigenvalues ---    0.00230   0.04622   0.16000   0.42378   0.44422
     Eigenvalues --- 1000.000001000.000001000.000001000.000001000.00000
     Eigenvalues --- 1000.00000
 En-DIIS/RFO-DIIS/Sim-DIIS IScMMF=       -3 using points:     5    4
 RFO step:  Lambda=-1.54191968D-09.
 NNeg= 0 NGDIIS= 2 SimSw=  2.50D-01 Rises=F DC= -2.52D-07 SmlDif=  1.00D-05
 NRisDI= 0 DoIntr=F SqrtH=F CThrHd= 10.0 CDAdj=  3.0
 RMS Error=  0.2266156694D-04 NUsed= 2 OKEnD=F EnDIS=F
 InvSVX:  RCond= 2.26D-06 Info=           0 Equed=N FErr=  9.21D-16 BErr=  3.96D-17
 DidBck=F Rises=F RFO-DIIS coefs:    1.01693   -0.01693
 Iteration  1 RMS(Cart)=  0.00003141 RMS(Int)=  0.00000000
 Iteration  2 RMS(Cart)=  0.00000000 RMS(Int)=  0.00000000
 ITry= 1 IFail=0 DXMaxC= 6.65D-05 DCOld= 1.00D+10 DXMaxT= 8.49D-01 DXLimC= 3.00D+00 Rises=F
 Variable       Old X    -DE/DX   Delta X   Delta X   Delta X     New X
                                 (Linear)    (Quad)   (Total)
    X1       -2.86374   0.00000  -0.00000   0.00000   0.00000  -2.86374
    Y1        0.00000  -0.00002   0.00000   0.00000   0.00000   0.00000
    Z1        0.00000   0.00000   0.00000   0.00000   0.00000   0.00000
    X2        2.86374  -0.00000   0.00000   0.00000   0.00000   2.86374
    Y2        0.00000   0.00002   0.00000   0.00000   0.00000   0.00000
    Z2        0.00000   0.00000   0.00000   0.00000   0.00000   0.00000
    R1        1.96288   0.00002   0.00001   0.00004   0.00004   1.96293
    R2        1.96288   0.00002   0.00001   0.00004   0.00004   1.96293
    A1        1.38149  -0.00000  -0.00004   0.00001  -0.00003   1.38146
    A2        1.38149  -0.00000  -0.00004   0.00001  -0.00003   1.38146
    D1        3.14159   0.00000  -0.00000   0.00000   0.00000  -3.14159
         Item               Value     Threshold  Converged?
 Maximum Force            0.000019     0.000450     YES
 RMS     Force            0.000012     0.000300     YES
 Maximum Displacement     0.000066     0.001800     YES
 RMS     Displacement     0.000031     0.001200     YES
 Predicted change in Energy=-8.734635D-10
 Optimization completed.
    -- Stationary point found.
                           ----------------------------
                           !   Optimized Parameters   !
                           ! (Angstroms and Degrees)  !
 --------------------------                            --------------------------
 ! Name  Definition              Value          Derivative Info.                !
 --------------------------------------------------------------------------------
 ! X1    R(1,-1)                -1.5154         -DE/DX =    0.0                 !
 ! Y1    R(1,-2)                 0.0            -DE/DX =    0.0                 !
 ! Z1    R(1,-3)                 0.0            -DE/DX =    0.0                 !
 ! X2    R(2,-1)                 1.5154         -DE/DX =    0.0                 !
 ! Y2    R(2,-2)                 0.0            -DE/DX =    0.0                 !
 ! Z2    R(2,-3)                 0.0            -DE/DX =    0.0                 !
 ! R1    R(1,3)                  1.0387         -DE/DX =    0.0                 !
 ! R2    R(2,4)                  1.0387         -DE/DX =    0.0                 !
 ! A1    A(2,1,3)               79.1536         -DE/DX =    0.0                 !
 ! A2    A(1,2,4)               79.1536         -DE/DX =    0.0                 !
 ! D1    D(3,1,2,4)           -180.0            -DE/DX =    0.0                 !
 --------------------------------------------------------------------------------
 Lowest energy point so far.  Saving SCF results.
 Largest change from initial coordinates is atom    4       0.497 Angstoms.
 GradGradGradGradGradGradGradGradGradGradGradGradGradGradGradGradGradGrad

 Leave Link  103 at Thu May 15 15:39:32 2025, MaxMem=   536870912 cpu:               0.0 elap:               0.0
 (Enter /home/szhao/Apps/g16/l202.exe)
                          Input orientation:                          
 ---------------------------------------------------------------------
 Center     Atomic      Atomic             Coordinates (Angstroms)
 Number     Number       Type             X           Y           Z
 ---------------------------------------------------------------------
      1          7           0       -1.515428    0.000000    0.000000
      2          7           0        1.515428    0.000000    0.000000
      3          1           0       -1.319966   -1.020156   -0.000000
      4          1           0        1.319966    1.020156   -0.000000
 ---------------------------------------------------------------------
                    Distance matrix (angstroms):
                    1          2          3          4
     1  N    0.000000
     2  N    3.030856   0.000000
     3  H    1.038713   3.013333   0.000000
     4  H    3.013333   1.038713   3.336482   0.000000
 Symmetry turned off by external request.
 Stoichiometry    H2N2
 Framework group  C2[X(H2N2)]
 Deg. of freedom     4
 Full point group                 C2      NOp   2
 Rotational constants (GHZ):         254.4917214           7.4385519           7.2273046
 Leave Link  202 at Thu May 15 15:39:32 2025, MaxMem=   536870912 cpu:               0.0 elap:               0.0
 (Enter /home/szhao/Apps/g16/l601.exe)
 Copying SCF densities to generalized density rwf, IOpCl= 1 IROHF=0.

 **********************************************************************

            Population analysis using the SCF density.

 **********************************************************************

 Alpha  occ. eigenvalues --  -14.88735 -14.88732  -0.93120  -0.91901  -0.49315
 Alpha  occ. eigenvalues --   -0.48583  -0.32843  -0.30841
 Alpha virt. eigenvalues --   -0.20690  -0.18502   0.05412   0.07270   0.10699
 Alpha virt. eigenvalues --    0.11703   0.13328   0.14811   0.15673   0.18325
 Alpha virt. eigenvalues --    0.19633   0.23203   0.51888   0.55204   0.70341
 Alpha virt. eigenvalues --    0.75558   0.77709   0.78262   0.81434   0.86682
 Alpha virt. eigenvalues --    0.93849   1.06245   1.28966   1.29101   1.30408
 Alpha virt. eigenvalues --    1.30903   1.89425   1.89674   1.96445   1.96823
 Alpha virt. eigenvalues --    1.97352   1.98803   2.33226   2.33413   2.33823
 Alpha virt. eigenvalues --    2.35022   2.46182   2.53555   2.91833   2.95325
 Alpha virt. eigenvalues --    3.74541   3.75611   3.78508   3.86178   4.31579
 Alpha virt. eigenvalues --    4.31898  35.29217  35.30708
  Beta  occ. eigenvalues --  -14.88735 -14.88732  -0.93120  -0.91901  -0.49315
  Beta  occ. eigenvalues --   -0.48583  -0.32843  -0.30841
  Beta virt. eigenvalues --   -0.20690  -0.18502   0.05412   0.07270   0.10699
  Beta virt. eigenvalues --    0.11703   0.13328   0.14811   0.15673   0.18325
  Beta virt. eigenvalues --    0.19633   0.23203   0.51888   0.55204   0.70341
  Beta virt. eigenvalues --    0.75558   0.77709   0.78262   0.81434   0.86682
  Beta virt. eigenvalues --    0.93849   1.06245   1.28966   1.29101   1.30408
  Beta virt. eigenvalues --    1.30903   1.89425   1.89674   1.96445   1.96823
  Beta virt. eigenvalues --    1.97352   1.98803   2.33226   2.33413   2.33823
  Beta virt. eigenvalues --    2.35022   2.46182   2.53555   2.91833   2.95325
  Beta virt. eigenvalues --    3.74541   3.75611   3.78508   3.86178   4.31579
  Beta virt. eigenvalues --    4.31898  35.29217  35.30708
          Condensed to atoms (all electrons):
               1          2          3          4
     1  N    6.883965   0.117234   0.239228  -0.000001
     2  N    0.117234   6.883965  -0.000001   0.239228
     3  H    0.239228  -0.000001   0.520483  -0.000136
     4  H   -0.000001   0.239228  -0.000136   0.520483
          Atomic-Atomic Spin Densities.
               1          2          3          4
     1  N   -0.000000   0.000000  -0.000000   0.000000
     2  N    0.000000   0.000000  -0.000000   0.000000
     3  H   -0.000000  -0.000000   0.000000  -0.000000
     4  H    0.000000   0.000000  -0.000000  -0.000000
 Mulliken charges and spin densities:
               1          2
     1  N   -0.240426  -0.000000
     2  N   -0.240426   0.000000
     3  H    0.240426   0.000000
     4  H    0.240426  -0.000000
 Sum of Mulliken charges =  -0.00000   0.00000
 Mulliken charges and spin densities with hydrogens summed into heavy atoms:
               1          2
     1  N   -0.000000  -0.000000
     2  N    0.000000   0.000000
 Electronic spatial extent (au):  <R**2>=            164.1538
 Charge=             -0.0000 electrons
 Dipole moment (field-independent basis, Debye):
    X=             -0.0000    Y=             -0.0000    Z=             -0.0000  Tot=              0.0000
 Quadrupole moment (field-independent basis, Debye-Ang):
   XX=            -14.2575   YY=            -11.1705   ZZ=            -14.2002
   XY=              5.0813   XZ=             -0.0000   YZ=             -0.0000
 Traceless Quadrupole moment (field-independent basis, Debye-Ang):
   XX=             -1.0481   YY=              2.0389   ZZ=             -0.9908
   XY=              5.0813   XZ=             -0.0000   YZ=             -0.0000
 Octapole moment (field-independent basis, Debye-Ang**2):
  XXX=             -0.0000  YYY=             -0.0000  ZZZ=              0.0000  XYY=             -0.0000
  XXY=             -0.0000  XXZ=             -0.0000  XZZ=             -0.0000  YZZ=              0.0000
  YYZ=             -0.0000  XYZ=             -0.0000
 Hexadecapole moment (field-independent basis, Debye-Ang**3):
 XXXX=           -202.1221 YYYY=            -17.1960 ZZZZ=            -17.3155 XXXY=              7.1440
 XXXZ=             -0.0000 YYYX=              1.3123 YYYZ=             -0.0000 ZZZX=             -0.0000
 ZZZY=             -0.0000 XXYY=            -32.0335 XXZZ=            -36.0226 YYZZ=             -6.4337
 XXYZ=             -0.0000 YYXZ=             -0.0000 ZZXY=             -0.8218
 N-N= 1.830477309301D+01 E-N=-2.945712887905D+02  KE= 1.096143305738D+02
                          Isotropic Fermi Contact Couplings
        Atom                 a.u.       MegaHertz       Gauss      10(-4) cm-1
     1  N(14)              0.00000       0.00000       0.00000       0.00000
     2  N(14)             -0.00000      -0.00000      -0.00000      -0.00000
     3  H(1)               0.00000       0.00000       0.00000       0.00000
     4  H(1)              -0.00000      -0.00000      -0.00000      -0.00000
 --------------------------------------------------------
       Center         ----  Spin Dipole Couplings  ----
                      3XX-RR        3YY-RR        3ZZ-RR
 --------------------------------------------------------
     1   Atom       -0.000000      0.000000      0.000000
     2   Atom        0.000000     -0.000000     -0.000000
     3   Atom       -0.000000     -0.000000      0.000000
     4   Atom        0.000000      0.000000     -0.000000
 --------------------------------------------------------
                        XY            XZ            YZ
 --------------------------------------------------------
     1   Atom       -0.000000     -0.000000     -0.000000
     2   Atom        0.000000     -0.000000     -0.000000
     3   Atom        0.000000     -0.000000     -0.000000
     4   Atom       -0.000000     -0.000000     -0.000000
 --------------------------------------------------------


 ---------------------------------------------------------------------------------
              Anisotropic Spin Dipole Couplings in Principal Axis System
 ---------------------------------------------------------------------------------

       Atom             a.u.   MegaHertz   Gauss  10(-4) cm-1        Axes

              Baa    -0.0000    -0.000    -0.000    -0.000  0.9830  0.1836  0.0017
     1 N(14)  Bbb     0.0000     0.000     0.000     0.000 -0.1836  0.9830 -0.0000
              Bcc     0.0000     0.000     0.000     0.000 -0.0016 -0.0003  1.0000
 
              Baa    -0.0000    -0.000    -0.000    -0.000  0.0016  0.0003  1.0000
     2 N(14)  Bbb    -0.0000    -0.000    -0.000    -0.000 -0.1836  0.9830  0.0000
              Bcc     0.0000     0.000     0.000     0.000  0.9830  0.1836 -0.0017
 
              Baa    -0.0000    -0.000    -0.000    -0.000 -0.2431  0.9700 -0.0001
     3 H(1)   Bbb    -0.0000    -0.000    -0.000    -0.000  0.9700  0.2431  0.0018
              Bcc     0.0000     0.000     0.000     0.000 -0.0017 -0.0004  1.0000
 
              Baa    -0.0000    -0.000    -0.000    -0.000  0.0017  0.0004  1.0000
     4 H(1)   Bbb     0.0000     0.000     0.000     0.000  0.9700  0.2431 -0.0018
              Bcc     0.0000     0.000     0.000     0.000 -0.2431  0.9700  0.0001
 

 ---------------------------------------------------------------------------------

 No NMR shielding tensors so no spin-rotation constants.
 Leave Link  601 at Thu May 15 15:39:32 2025, MaxMem=   536870912 cpu:               1.0 elap:               0.1
 (Enter /home/szhao/Apps/g16/l9999.exe)
 1\1\GINC-NODE01\FOpt\UM062X\6-311+G(d,p)\H2N2\SZHAO\15-May-2025\0\\#p 
 opt UM062X/6-311+G** nosymm int=superfine\\Title Card Required\\0,1\N,
 -1.51542801,0.,0.\N,1.51542801,0.,0.\H,-1.3199657407,-1.0201560342,-0.
 0000000312\H,1.3199657353,1.0201560333,-0.0000000312\\Version=ES64L-G1
 6RevA.03\HF=-110.2162314\S2=0.\S2-1=0.\S2A=0.\RMSD=2.293e-09\RMSF=7.84
 7e-06\Dipole=0.,0.,0.\Quadrupole=-0.7792507,1.5158638,-0.736613,3.7778
 255,-0.000001,-0.0000002\PG=C02 [X(H2N2)]\\@


 WHEN HAVING A MEETING OF THE MINDS,
 MAKE SURE YOU HAVE THE EQUIPMENT FOR IT.
 Job cpu time:       0 days  0 hours  2 minutes 19.7 seconds.
 Elapsed time:       0 days  0 hours  0 minutes 17.9 seconds.
 File lengths (MBytes):  RWF=      6 Int=      0 D2E=      0 Chk=      1 Scr=      1
 Normal termination of Gaussian 16 at Thu May 15 15:39:32 2025.
