Title Card Required                                                     
FOpt      UM062X                                                      6-311+G(d,p)        
Number of atoms                            I                4
Info1-9                                    I   N=           9
          13          13           0           0           0         110
           2          18        -502
Full Title                                 C   N=           2
Title Card Required     
Route                                      C   N=           4
#p opt UM062X/6-311+G** nosymm int=superfine    
Charge                                     I                0
Multiplicity                               I                1
Number of electrons                        I               14
Number of alpha electrons                  I                7
Number of beta electrons                   I                7
Number of basis functions                  I               56
Number of independent functions            I               56
Number of point charges in /Mol/           I                0
Number of translation vectors              I                0
Atomic numbers                             I   N=           4
           6           6           1           1
Nuclear charges                            R   N=           4
  6.00000000E+00  6.00000000E+00  1.00000000E+00  1.00000000E+00
Current cartesian coordinates              R   N=          12
 -2.80175520E+00  0.00000000E+00  0.00000000E+00  2.80175520E+00  0.00000000E+00
  0.00000000E+00 -2.61800714E+00 -3.35468114E-01  2.07608722E+00  2.61795547E+00
  1.68239147E+00 -1.26182898E+00
Number of symbols in /Mol/                 I                0
Force Field                                I                0
Atom Types                                 C   N=           4
                                                
Int Atom Types                             I   N=           4
           0           0           0           0
MM charges                                 R   N=           4
  0.00000000E+00  0.00000000E+00  0.00000000E+00  0.00000000E+00
Integer atomic weights                     I   N=           4
          12          12           1           1
Real atomic weights                        R   N=           4
  1.20000000E+01  1.20000000E+01  1.00782504E+00  1.00782504E+00
Atom fragment info                         I   N=           4
           0           0           0           0
Atom residue num                           I   N=           4
           0           0           0           0
Nuclear spins                              I   N=           4
           0           0           1           1
Nuclear ZEff                               R   N=           4
 -3.60000000E+00 -3.60000000E+00 -1.00000000E+00 -1.00000000E+00
Nuclear ZNuc                               R   N=           4
  6.00000000E+00  6.00000000E+00  1.00000000E+00  1.00000000E+00
Nuclear QMom                               R   N=           4
  0.00000000E+00  0.00000000E+00  0.00000000E+00  0.00000000E+00
Nuclear GFac                               R   N=           4
  0.00000000E+00  0.00000000E+00  2.79284600E+00  2.79284600E+00
MicOpt                                     I   N=           4
          -2          -2          -1          -1
Number of residues                         I                0
Number of secondary structures             I                0
Redundant internal dimensions              I   N=           4
          11           8           2           1
Redundant internal coordinate indices      I   N=          44
           1          -1           0           0           1          -2
           0           0           1          -3           0           0
           2          -1           0           0           2          -2
           0           0           2          -3           0           0
           1           3           0           0           2           4
           0           0           2           1           3           0
           1           2           4           0           3           1
           2           4
Redundant internal coordinates             R   N=          11
 -2.80175520E+00  0.00000000E+00  0.00000000E+00  2.80175520E+00  0.00000000E+00
  0.00000000E+00  2.11102827E+00  2.11102718E+00  1.48364407E+00  1.48361946E+00
 -2.37451288E+00
ZRed-IntVec                                I   N=          11
          -1          -1          -1          -1          -1          -1
           0           0           0           0           0
ZRed-FPVec                                 R   N=          11
  0.00000000E+00  0.00000000E+00  0.00000000E+00  0.00000000E+00  0.00000000E+00
  0.00000000E+00  0.00000000E+00  0.00000000E+00  0.00000000E+00  0.00000000E+00
  0.00000000E+00
ZRed-Constraint1                           R   N=          11
 -2.80175520E+00  0.00000000E+00  0.00000000E+00  2.80175520E+00  0.00000000E+00
  0.00000000E+00  2.11079913E+00  2.11070705E+00  1.67217611E+00  1.67276462E+00
 -1.65242814E+00
ZRed-Constraint2                           R   N=          11
 -2.80175520E+00  0.00000000E+00  0.00000000E+00  2.80175520E+00  0.00000000E+00
  0.00000000E+00  0.00000000E+00  0.00000000E+00  0.00000000E+00  0.00000000E+00
  0.00000000E+00
Number of contracted shells                I               20
Number of primitive shells                 I               38
Pure/Cartesian d shells                    I                0
Pure/Cartesian f shells                    I                0
Highest angular momentum                   I                2
Largest degree of contraction              I                6
Shell types                                I   N=          20
           0          -1          -1          -1          -1          -2
           0          -1          -1          -1          -1          -2
           0           0           0           1           0           0
           0           1
Number of primitives per shell             I   N=          20
           6           3           1           1           1           1
           6           3           1           1           1           1
           3           1           1           1           3           1
           1           1
Shell to atom map                          I   N=          20
           1           1           1           1           1           1
           2           2           2           2           2           2
           3           3           3           3           4           4
           4           4
Primitive exponents                        R   N=          38
  4.56324000E+03  6.82024000E+02  1.54973000E+02  4.44553000E+01  1.30290000E+01
  1.82773000E+00  2.09642000E+01  4.80331000E+00  1.45933000E+00  4.83456000E-01
  1.45585000E-01  4.38000000E-02  6.26000000E-01  4.56324000E+03  6.82024000E+02
  1.54973000E+02  4.44553000E+01  1.30290000E+01  1.82773000E+00  2.09642000E+01
  4.80331000E+00  1.45933000E+00  4.83456000E-01  1.45585000E-01  4.38000000E-02
  6.26000000E-01  3.38650000E+01  5.09479000E+00  1.15879000E+00  3.25840000E-01
  1.02741000E-01  7.50000000E-01  3.38650000E+01  5.09479000E+00  1.15879000E+00
  3.25840000E-01  1.02741000E-01  7.50000000E-01
Contraction coefficients                   R   N=          38
  1.96665025E-03  1.52306019E-02  7.61269097E-02  2.60801033E-01  6.16462078E-01
  2.21006028E-01  1.14660081E-01  9.19999648E-01 -3.03068213E-03  1.00000000E+00
  1.00000000E+00  1.00000000E+00  1.00000000E+00  1.96665025E-03  1.52306019E-02
  7.61269097E-02  2.60801033E-01  6.16462078E-01  2.21006028E-01  1.14660081E-01
  9.19999648E-01 -3.03068213E-03  1.00000000E+00  1.00000000E+00  1.00000000E+00
  1.00000000E+00  2.54938145E-02  1.90373109E-01  8.52161486E-01  1.00000000E+00
  1.00000000E+00  1.00000000E+00  2.54938145E-02  1.90373109E-01  8.52161486E-01
  1.00000000E+00  1.00000000E+00  1.00000000E+00
P(S=P) Contraction coefficients            R   N=          38
  0.00000000E+00  0.00000000E+00  0.00000000E+00  0.00000000E+00  0.00000000E+00
  0.00000000E+00  4.02486927E-02  2.37593957E-01  8.15853851E-01  1.00000000E+00
  1.00000000E+00  1.00000000E+00  0.00000000E+00  0.00000000E+00  0.00000000E+00
  0.00000000E+00  0.00000000E+00  0.00000000E+00  0.00000000E+00  4.02486927E-02
  2.37593957E-01  8.15853851E-01  1.00000000E+00  1.00000000E+00  1.00000000E+00
  0.00000000E+00  0.00000000E+00  0.00000000E+00  0.00000000E+00  0.00000000E+00
  0.00000000E+00  0.00000000E+00  0.00000000E+00  0.00000000E+00  0.00000000E+00
  0.00000000E+00  0.00000000E+00  0.00000000E+00
Coordinates of each shell                  R   N=          60
 -2.80175520E+00  0.00000000E+00  0.00000000E+00 -2.80175520E+00  0.00000000E+00
  0.00000000E+00 -2.80175520E+00  0.00000000E+00  0.00000000E+00 -2.80175520E+00
  0.00000000E+00  0.00000000E+00 -2.80175520E+00  0.00000000E+00  0.00000000E+00
 -2.80175520E+00  0.00000000E+00  0.00000000E+00  2.80175520E+00  0.00000000E+00
  0.00000000E+00  2.80175520E+00  0.00000000E+00  0.00000000E+00  2.80175520E+00
  0.00000000E+00  0.00000000E+00  2.80175520E+00  0.00000000E+00  0.00000000E+00
  2.80175520E+00  0.00000000E+00  0.00000000E+00  2.80175520E+00  0.00000000E+00
  0.00000000E+00 -2.61800714E+00 -3.35468114E-01  2.07608722E+00 -2.61800714E+00
 -3.35468114E-01  2.07608722E+00 -2.61800714E+00 -3.35468114E-01  2.07608722E+00
 -2.61800714E+00 -3.35468114E-01  2.07608722E+00  2.61795547E+00  1.68239147E+00
 -1.26182898E+00  2.61795547E+00  1.68239147E+00 -1.26182898E+00  2.61795547E+00
  1.68239147E+00 -1.26182898E+00  2.61795547E+00  1.68239147E+00 -1.26182898E+00
Num ILSW                                   I              100
ILSW                                       I   N=         100
           1           0           0           1           2           0
           0           0           0           0        4336          -1
           7           0           0           0           2           0
           0           0           0           0           1           0
           1           1           0           0           0           0
           0           0      100000           0          -1           0
           0           0           0           0           0           0
           0           0           0           1           0           0
           0 -2000000000           1           0           0           0
           0           0           4          52           0           0
           0           0          55           0           0           0
           0           0           0           4           0           1
           0           0           0           0           0           0
           0           0           0           0           0           0
           0           0           0           0           0           0
           0           0           0           0           0           0
           0           0           0           0
Num RLSW                                   I               52
RLSW                                       R   N=          52
  1.00000000E+00  1.00000000E+00  1.00000000E+00  1.00000000E+00  5.40000000E-01
  0.00000000E+00  0.00000000E+00  1.00000000E+00  0.00000000E+00  0.00000000E+00
  0.00000000E+00  0.00000000E+00  1.00000000E+00  0.00000000E+00  0.00000000E+00
  0.00000000E+00  0.00000000E+00  1.00000000E+00  0.00000000E+00  0.00000000E+00
  0.00000000E+00  0.00000000E+00  1.00000000E+00  0.00000000E+00  0.00000000E+00
  0.00000000E+00  0.00000000E+00  1.00000000E+00  0.00000000E+00  0.00000000E+00
  0.00000000E+00  0.00000000E+00  1.00000000E+00  0.00000000E+00  0.00000000E+00
  0.00000000E+00  0.00000000E+00  0.00000000E+00  1.00000000E+00  1.00000000E+00
  0.00000000E+00  1.00000000E+00  0.00000000E+00  0.00000000E+00  0.00000000E+00
  0.00000000E+00  0.00000000E+00  0.00000000E+00  0.00000000E+00  0.00000000E+00
  0.00000000E+00  0.00000000E+00
MxBond                                     I                2
NBond                                      I   N=           4
           2           2           1           1
IBond                                      I   N=           8
           2           3           1           4           1           0
           2           0
RBond                                      R   N=           8
  1.00000000E-01  1.00000000E+00  1.00000000E-01  1.00000000E+00  1.00000000E+00
  0.00000000E+00  1.00000000E+00  0.00000000E+00
Virial Ratio                               R      2.006063176207712E+00
SCF Energy                                 R     -7.691767482060108E+01
Total Energy                               R     -7.691767482060108E+01
S**2                                       R      6.565164412108970E-09
S**2 after annihilation                    R     -8.260059330325499E-14
RMS Force                                  R      1.419771024655251E-06
RMS Density                                R      5.152008926105431E-09
Job Status                                 I                1
Nuclear derivative order                   I                1
External E-field                           R   N=          35
  0.00000000E+00  0.00000000E+00  0.00000000E+00  0.00000000E+00  0.00000000E+00
  0.00000000E+00  0.00000000E+00  0.00000000E+00  0.00000000E+00  0.00000000E+00
  0.00000000E+00  0.00000000E+00  0.00000000E+00  0.00000000E+00  0.00000000E+00
  0.00000000E+00  0.00000000E+00  0.00000000E+00  0.00000000E+00  0.00000000E+00
  0.00000000E+00  0.00000000E+00  0.00000000E+00  0.00000000E+00  0.00000000E+00
  0.00000000E+00  0.00000000E+00  0.00000000E+00  0.00000000E+00  0.00000000E+00
  0.00000000E+00  0.00000000E+00  0.00000000E+00  0.00000000E+00  0.00000000E+00
IOpCl                                      I                1
IROHF                                      I                0
Alpha Orbital Energies                     R   N=          56
 -1.06722660E+01 -1.06722390E+01 -7.31974249E-01 -7.13848967E-01 -3.88645015E-01
 -3.84790611E-01 -2.60643093E-01 -1.03881953E-01 -9.16389038E-02 -8.56468280E-02
  3.20769941E-02  5.17803121E-02  7.33686675E-02  7.50884830E-02  9.67236003E-02
  9.98996684E-02  1.07097507E-01  1.46858858E-01  1.87162650E-01  1.88030251E-01
  4.43736702E-01  4.57898791E-01  5.55279396E-01  5.70992048E-01  5.92650611E-01
  6.07532847E-01  6.25533285E-01  6.36389575E-01  6.68558675E-01  8.16053250E-01
  1.13070402E+00  1.13142819E+00  1.14084363E+00  1.15563057E+00  1.33373051E+00
  1.34292721E+00  1.35213922E+00  1.42139801E+00  1.58160006E+00  1.61599954E+00
  1.85179527E+00  1.85910096E+00  1.86915245E+00  1.89743651E+00  2.39449909E+00
  2.40892452E+00  2.50177334E+00  2.54218515E+00  2.69932539E+00  2.71714590E+00
  2.73102879E+00  2.78245549E+00  3.18290993E+00  3.19329683E+00  2.35057994E+01
  2.35264456E+01
Beta Orbital Energies                      R   N=          56
 -1.06722660E+01 -1.06722390E+01 -7.31974249E-01 -7.13848967E-01 -3.88645015E-01
 -3.84790611E-01 -2.60643093E-01 -1.03881953E-01 -9.16389038E-02 -8.56468280E-02
  3.20769941E-02  5.17803121E-02  7.33686675E-02  7.50884830E-02  9.67236003E-02
  9.98996684E-02  1.07097507E-01  1.46858858E-01  1.87162650E-01  1.88030250E-01
  4.43736702E-01  4.57898791E-01  5.55279396E-01  5.70992048E-01  5.92650611E-01
  6.07532847E-01  6.25533285E-01  6.36389575E-01  6.68558675E-01  8.16053250E-01
  1.13070402E+00  1.13142819E+00  1.14084363E+00  1.15563057E+00  1.33373051E+00
  1.34292721E+00  1.35213922E+00  1.42139801E+00  1.58160006E+00  1.61599954E+00
  1.85179527E+00  1.85910096E+00  1.86915245E+00  1.89743651E+00  2.39449909E+00
  2.40892452E+00  2.50177334E+00  2.54218515E+00  2.69932539E+00  2.71714590E+00
  2.73102879E+00  2.78245549E+00  3.18290993E+00  3.19329683E+00  2.35057994E+01
  2.35264456E+01
Alpha MO coefficients                      R   N=        3136
  3.94110412E-01  3.24663736E-01  6.37360097E-04 -1.78268822E-04  1.11040647E-03
  6.53187501E-03 -1.80825428E-04 -1.60179775E-04  1.07331631E-03 -2.53885217E-03
  2.71336035E-04 -4.72273522E-05  1.08187668E-04  1.35410288E-04 -1.67538514E-04
  1.35251579E-04 -5.55776287E-04  7.64959430E-04  1.29250197E-04 -2.12236441E-04
 -2.73540530E-05 -3.07408953E-05  4.03508362E-01  3.32405099E-01 -6.50394701E-04
  9.22710142E-04 -6.90624051E-04  6.69345830E-03  1.79421627E-04  8.91983841E-04
 -6.52610552E-04 -2.62051340E-03 -2.61818837E-04  7.30866016E-05 -9.12707959E-05
  1.78854120E-04  1.48608014E-04 -4.35338822E-04  3.81919239E-04  3.69089914E-05
  8.82275066E-05 -6.66624628E-04 -4.58772113E-04 -1.01506824E-04  2.49957484E-04
 -2.19763639E-03  1.72258661E-03  1.16893795E-04 -2.19381111E-04  1.39359368E-03
  2.53855381E-04 -2.23114718E-03  1.74871558E-03 -1.20941543E-04  1.15548935E-03
 -8.59582348E-04  4.03510237E-01  3.32383549E-01  5.62254143E-04 -1.88274036E-04
  1.18225365E-03  6.93394864E-03  5.36891463E-05 -1.38816408E-04  8.52699924E-04
 -3.49570755E-03 -3.99338255E-04  1.64783090E-05 -4.36630240E-05  1.84473179E-03
  8.01234567E-04  2.70859861E-05 -3.11603646E-04  6.52996434E-04  6.87963098E-05
 -1.71966562E-04 -9.88494154E-05 -9.71523619E-06 -3.94112328E-01 -3.24641659E-01
  5.47047817E-04 -9.37844356E-04  7.00107819E-04 -6.77813685E-03  5.80093230E-05
 -6.69709982E-04  5.03883600E-04  3.43490340E-03 -4.05641559E-04  3.27413215E-05
 -3.70174326E-05 -1.84103326E-03  8.04959020E-04  2.53130109E-04 -1.59836283E-04
 -7.38652877E-05 -3.85145022E-05  5.06840407E-04  4.22025694E-04  5.40667289E-05
  1.68426937E-04 -1.44843339E-03  1.12969423E-03  1.71937727E-04 -2.04856966E-04
  1.24769469E-03 -1.62491041E-04  1.39624922E-03 -1.08877823E-03  1.69157375E-04
 -9.82628410E-04  7.41173693E-04 -7.65418576E-02 -1.23707931E-01  9.62630313E-03
 -7.48914813E-03  5.06690860E-02  3.51566373E-01  1.40636875E-02 -1.13501064E-02
  7.67521664E-02  2.46687550E-01  1.02614318E-02 -2.81947799E-03  3.00080329E-02
 -3.08044229E-04 -8.69832989E-04  4.23114687E-05  5.02145447E-04  9.37888789E-03
  1.89178256E-03 -2.09506285E-03 -2.40848341E-03 -1.53356608E-04 -7.65526236E-02
 -1.23725486E-01 -9.62793204E-03  4.13915051E-02 -3.01821675E-02  3.51616831E-01
 -1.40659362E-02  6.26959806E-02 -4.57239332E-02  2.46722322E-01 -1.02614569E-02
  2.52644653E-02 -1.64444524E-02 -3.11065713E-04  8.71387467E-04  4.64188088E-04
 -1.95827324E-04  1.47743676E-03  1.01525251E-03 -6.88465847E-03 -6.97157898E-03
 -1.60444115E-03  9.98135163E-02  1.22252374E-01  1.49430929E-02 -1.44782562E-03
  2.53726028E-03 -1.45630992E-02  9.98275802E-02  1.22269264E-01  1.49455008E-02
  1.44852923E-03 -1.17175006E-02  9.01547662E-03 -7.71242302E-02 -1.24730720E-01
 -4.56743339E-04 -8.99787339E-03  5.61495164E-02  3.55672226E-01 -2.69945107E-03
 -1.35858381E-02  8.53869799E-02  2.49630281E-01 -2.14213516E-03 -4.59271748E-03
  3.33673247E-02 -1.40529755E-02 -7.56600401E-03 -3.51981629E-05 -4.23341738E-04
  1.14448922E-02  1.44968462E-03 -2.33711904E-03 -4.48945869E-03 -4.56374776E-04
  7.71138708E-02  1.24714106E-01 -4.56537761E-04 -4.55310900E-02  3.40562077E-02
 -3.55625237E-01 -2.69926097E-03 -6.92846727E-02  5.17031767E-02 -2.49597354E-01
 -2.14284453E-03 -2.74079860E-02  1.95710985E-02  1.40530482E-02 -7.56603130E-03
  3.91371981E-04 -1.65766945E-04 -2.69861718E-03 -1.07787918E-03  7.63641300E-03
  9.53769290E-03  1.07184640E-03  1.04735184E-01  1.29675815E-01  2.05726345E-02
 -2.73359782E-03  2.59323578E-03 -1.49279512E-02 -1.04720961E-01 -1.29657271E-01
 -2.05702395E-02 -2.73381158E-03  1.20112098E-02 -9.23200960E-03  4.38196416E-02
  7.23014267E-02  2.39708347E-02 -2.68550482E-02  1.48485493E-01 -2.14189866E-01
  3.53061712E-02 -3.87038218E-02  2.12711796E-01 -2.92769713E-01  3.11614323E-02
 -2.92226103E-02  1.44688704E-01 -5.07191725E-02 -7.34090479E-04 -3.00256916E-03
  8.76400040E-03  2.19004691E-02  6.42338905E-03 -6.90726841E-03  3.93718063E-03
 -1.74301238E-03 -4.38365961E-02 -7.23294657E-02  2.39765764E-02 -1.19052103E-01
  9.28219386E-02  2.14271960E-01  3.53144071E-02 -1.70440046E-01  1.33178393E-01
  2.92892015E-01  3.11627299E-02 -1.14586580E-01  9.31496416E-02  5.07358186E-02
 -7.33240232E-04 -6.36853149E-03  6.73378711E-03  1.60595214E-03 -4.52948435E-03
  2.11617027E-02  9.63969988E-03  4.87988699E-03  9.16123247E-02  1.63073027E-01
  1.12682337E-01  5.42024517E-04  1.10927603E-03 -6.48338298E-03 -9.16542933E-02
 -1.63150178E-01 -1.12729376E-01  5.40662796E-04  5.22788622E-03 -3.99733256E-03
 -3.96039482E-02 -6.52741013E-02 -1.61826832E-03  2.30406327E-02 -1.56702289E-01
  1.90185072E-01 -2.21921862E-03  3.28838341E-02 -2.23836088E-01  2.86183205E-01
  1.08087394E-02  2.01791122E-02 -1.49930959E-01  3.90606051E-02 -1.05615415E-03
  1.25091010E-03 -1.20817502E-02 -2.37433520E-02 -3.36593054E-03  6.69461642E-03
 -9.74088644E-04 -5.15808432E-04 -3.95850438E-02 -6.52430066E-02  1.61037555E-03
 -1.27995879E-01  9.31846256E-02  1.90093347E-01  2.20707810E-03 -1.82845496E-01
  1.33082593E-01  2.86056932E-01 -1.08197883E-02 -1.23331059E-01  8.75030117E-02
  3.90371717E-02  1.05742550E-03 -1.01134391E-02  6.71905492E-03  6.91642249E-05
 -1.10607684E-03  2.11172392E-02  1.27707714E-02  3.21876718E-03 -9.86529095E-02
 -1.81445700E-01 -1.08322889E-01  3.12660421E-03 -1.86713525E-03  8.24480166E-03
 -9.86142528E-02 -1.81376083E-01 -1.08275392E-01 -3.12732864E-03  6.43035004E-03
 -5.48287892E-03 -1.07076086E-02 -1.81581418E-02 -1.79928758E-01 -8.94527060E-03
  3.60526069E-03  6.21260144E-02 -2.69730666E-01 -1.26684967E-02  4.98610733E-03
  4.71775624E-02 -3.06062565E-01 -1.52274601E-02 -6.46629081E-05  4.88531145E-03
 -5.69054388E-02 -1.15962558E-02  1.03675267E-02  2.76263323E-03 -1.49820627E-02
 -9.26546532E-05 -8.92339212E-03  1.53268339E-03 -1.07063525E-02 -1.81559654E-02
  1.79945714E-01 -9.61177089E-04 -9.60405168E-03  6.21189295E-02  2.69755926E-01
 -1.46720166E-03 -1.35464747E-02  4.71702207E-02  3.06088510E-01 -7.12822686E-03
 -1.34652429E-02  4.88737094E-03  5.69072268E-02  3.79271836E-03 -1.50883139E-02
  5.63895260E-03 -8.31988265E-03  1.64942285E-03 -7.26313619E-03  1.25547551E-02
  1.23395083E-04  9.51601518E-03 -4.37819962E-03 -1.67708931E-02 -4.43117848E-04
 -1.52584180E-03  1.23960870E-04  9.51793405E-03 -4.37707366E-03  1.67722886E-02
 -1.55688373E-03  3.16218337E-04 -6.32449820E-04 -1.04053422E-03 -9.28555703E-03
  1.67648957E-01  1.88009699E-02  2.28102240E-03 -1.47362174E-02  2.62945889E-01
  2.94524029E-02  1.05608944E-02 -1.59768610E-02  2.89960651E-01  4.38043061E-02
  2.88357596E-02  4.48951018E-04  1.39986767E-01  3.02854062E-02  2.14802608E-03
  1.48514722E-03  1.33071964E-02  1.40539069E-03  3.69914070E-03 -6.33404295E-04
 -1.04225048E-03  9.26783665E-03  9.45654980E-02  1.39723349E-01  2.28700034E-03
  1.47096988E-02  1.48288560E-01  2.19162978E-01  1.05658710E-02  1.59464201E-02
  1.73549611E-01  2.36415273E-01  2.88353129E-02 -4.62039329E-04  9.18738342E-02
  1.09888234E-01 -1.08176651E-02 -2.58488255E-03  5.45108175E-03 -6.08069242E-03
 -3.03552637E-03 -5.93468175E-03 -7.51968506E-03 -3.15226105E-02  7.91468463E-04
  1.59441104E-02  3.63699699E-03 -5.93399036E-03 -7.51936363E-03 -3.15198389E-02
 -7.92854290E-04  1.06306412E-02  1.24290908E-02 -9.99327290E-03 -1.65090468E-02
  1.65514655E-01  1.02376940E-01  2.80888662E-03  5.19159559E-02  2.48333601E-01
  1.59588485E-01  7.92095439E-03  6.35166736E-02  2.91621653E-01  1.81609595E-01
 -8.86825677E-04  2.67564538E-02  1.47373363E-01  8.56111395E-02 -1.51800154E-02
  3.59377746E-03  1.24672351E-02  7.88676965E-03 -2.10769341E-03 -1.34757820E-03
  9.99387612E-03  1.65103115E-02  1.65504483E-01 -5.00506462E-02 -8.93304990E-02
 -5.19216278E-02  2.48317836E-01 -8.11570662E-02 -1.37604942E-01 -6.35172049E-02
  2.91600807E-01 -8.35860565E-02 -1.61194077E-01 -2.67519564E-02  1.47358722E-01
 -2.63289215E-02 -8.28429071E-02  4.82117166E-03 -6.98640317E-03 -2.78607160E-03
  6.96666341E-03  1.04119516E-02  7.24848802E-03  1.31813833E-03  2.12125210E-02
  1.27179948E-02  9.73387588E-03 -8.15815027E-04 -7.24983030E-03 -1.31987683E-03
 -2.12190281E-02  1.27162728E-02 -3.79941326E-03 -8.99679840E-03  8.74965799E-03
  1.44827816E-02 -1.11574486E-01  1.43044918E-01  4.34313410E-02 -4.55364178E-02
 -1.68313370E-01  2.25024064E-01  6.48188868E-02 -6.05783794E-02 -1.95545003E-01
  2.49968191E-01  7.63834031E-02 -1.79038985E-02 -1.03738205E-01  1.42271729E-01
  4.58613790E-02  4.01556523E-03 -1.00757515E-02  1.06340874E-02  3.79142313E-03
  1.48796015E-03 -8.74986523E-03 -1.44831178E-02 -1.11570248E-01 -1.04931801E-01
 -1.06473503E-01  4.55379064E-02 -1.68306793E-01 -1.61966989E-01 -1.69121474E-01
  6.05773289E-02 -1.95536360E-01 -1.83798551E-01 -1.85831774E-01  1.79057597E-02
 -1.03732158E-01 -1.06722587E-01 -1.04659654E-01  1.08603525E-02  5.99975107E-03
 -1.61884585E-03  4.79696300E-03 -8.22964486E-03  1.13175936E-03  4.99937030E-03
 -6.36011118E-04 -1.08068954E-02  1.34708153E-02  3.22338408E-03 -1.13123402E-03
 -4.99740242E-03  6.37540655E-04 -1.08063801E-02 -9.11436528E-03 -1.04294383E-02
  2.52929695E-02  4.09491708E-02  2.70197606E-03 -1.61445678E-02 -2.81813838E-02
 -9.31627670E-02 -4.34195766E-03 -1.34295508E-02 -7.85559630E-02 -5.38917025E-01
 -2.69990625E-03 -5.86105553E-02 -4.99926124E-02  1.05507390E+00 -7.88346582E-02
 -3.37769259E-02  4.80932290E-01 -1.43512972E-02 -2.80835352E-03  2.80142657E-03
 -7.90790864E-04  7.61379604E-04  2.52922914E-02  4.09481481E-02 -2.69860772E-03
 -3.24549460E-02 -1.19954380E-03 -9.31609495E-02  4.34633740E-03 -7.57964407E-02
  2.46134319E-02 -5.38900629E-01  2.71166462E-03 -7.15013297E-02 -2.86657174E-02
  1.05504260E+00  7.88040054E-02  4.10135979E-01 -2.53396820E-01  1.06695447E-03
 -1.97979967E-03  1.21449215E-02  8.11079258E-03  2.13363238E-03 -1.23815127E-02
  1.32099389E-01 -4.04947287E-01 -1.35681476E-03  6.52087287E-06 -1.59778042E-03
 -1.23809327E-02  1.32096681E-01 -4.04933468E-01  1.35699692E-03 -1.41183074E-03
  7.48498421E-04 -8.15609119E-03 -1.34816979E-02 -5.11681272E-02 -2.82167606E-02
  5.37250320E-02  3.09507862E-02 -5.20747808E-02 -3.73745228E-02  8.68809224E-02
  2.03517634E-01 -1.83438252E-01 -8.98742750E-02  1.51865401E-01 -1.16946374E+00
 -1.16740631E-02  1.35704508E-01 -7.28582035E-01  1.64985210E-02 -1.69166688E-03
 -5.97177157E-03  6.18541835E-04  8.44755933E-04  8.15721796E-03  1.34834906E-02
 -5.11665417E-02 -3.44604792E-02  4.99514078E-02 -3.09545933E-02 -5.20715946E-02
 -5.95653661E-02  7.34697540E-02 -2.03544267E-01 -1.83431367E-01 -9.27095277E-02
  1.50150847E-01  1.16950235E+00 -1.16901849E-02  5.82077645E-01 -4.58742231E-01
 -9.31399626E-04  1.53354713E-03  1.54061660E-02  8.36926707E-03 -1.10457501E-03
  2.24049240E-02 -1.08768717E-01  5.26842796E-01 -4.64671601E-04  7.12650816E-04
 -3.90411805E-03 -2.24046128E-02  1.08776242E-01 -5.26857228E-01 -4.64441952E-04
  3.12545432E-03 -2.44514176E-03 -1.41917383E-02 -2.31404953E-02 -6.68919529E-02
  3.31224437E-02 -1.97184735E-02  6.01542804E-02 -5.97153416E-02  3.39465959E-02
 -1.03726236E-02  2.82129653E-01 -2.69444856E-01  1.29432831E-01 -7.98099194E-02
  6.47433965E-01  1.14946636E+00 -2.73122318E-01  3.92804838E-01 -6.26776677E-03
 -6.01359115E-03  4.20570552E-03 -1.59952023E-03  1.00716829E-03  1.41912987E-02
  2.31398242E-02 -6.68898000E-02  2.05708993E-03 -3.84998345E-02 -6.01530066E-02
 -5.97128990E-02 -6.60153035E-03 -3.48867852E-02 -2.82118725E-01 -2.69432948E-01
  1.04795151E-02 -1.51728247E-01 -6.47431363E-01  1.14945190E+00 -2.20802362E-01
  4.24414948E-01  8.08728842E-04  3.68637361E-03 -7.51399916E-03 -1.55184817E-03
 -4.85658700E-03 -1.75346258E-02  1.36024236E-02 -2.86541665E-01  1.60523533E-03
 -5.15308105E-04  2.46179659E-03  1.75333765E-02 -1.35992597E-02  2.86515441E-01
  1.60542551E-03 -1.94008868E-03  1.60018691E-03 -9.12274968E-03 -1.45672619E-02
 -8.30887550E-03 -9.20780473E-02 -3.46366906E-02  3.24831314E-02 -4.31822948E-03
 -9.73249932E-02 -2.66022443E-02  2.14712234E-01 -4.70645337E-02 -3.64260444E-01
 -1.41886188E-01 -1.84470432E-01  1.49145228E-01  5.69245822E-01  4.18377982E-01
 -5.79604854E-03 -1.19163958E-03 -5.78820195E-03 -2.10972938E-03 -3.43354643E-04
 -9.12453325E-03 -1.45701283E-02  8.31618250E-03 -7.34591206E-02 -6.54302045E-02
  3.24906626E-02  4.32402438E-03 -6.87823928E-02 -7.38097245E-02  2.14746268E-01
  4.70947489E-02 -2.94910491E-01 -2.56581232E-01 -1.84386395E-01 -1.49292990E-01
  6.35015991E-01  3.09566082E-01  6.57817138E-03 -2.50070469E-04  1.71151177E-03
  5.03452819E-03  1.21552335E-03 -1.09345754E-02  7.93974330E-03 -1.82650267E-01
  2.47824825E-04 -1.93145922E-04  3.37192999E-03 -1.09363165E-02  7.94216664E-03
 -1.82684690E-01 -2.48100001E-04  2.89619086E-03 -1.73808365E-03  1.10120214E-02
  1.71322811E-02 -4.69467354E-03 -4.54644766E-02  3.20520661E-02 -3.05586538E-02
 -8.91901358E-03 -3.97567777E-02  1.73944105E-02 -3.24061795E-01 -1.14697712E-02
 -2.06534517E-01  1.52027192E-01  4.55123938E-02 -4.40968732E-02  6.77791834E-01
 -1.09426738E+00  1.06814727E-02  5.44540024E-03 -6.65601090E-03 -6.00364600E-04
 -3.22050436E-03  1.10119033E-02  1.71321341E-02  4.69571451E-03  7.25232918E-03
 -5.51515246E-02 -3.05585550E-02  8.91994364E-03 -3.07339407E-03 -4.32857741E-02
 -3.24060442E-01  1.14741982E-02  3.86328343E-02 -2.53526215E-01  4.55016039E-02
  4.40960658E-02 -6.53952039E-01  1.10868639E+00  3.27092396E-03  5.38265270E-03
 -1.11471017E-02 -4.87889328E-03 -3.32537849E-03  2.56653308E-02 -2.80715048E-02
  4.47083485E-01  4.32010801E-03  8.52982688E-04 -5.11671411E-03  2.56659351E-02
 -2.80726863E-02  4.47093167E-01 -4.32003459E-03 -4.13397928E-03  3.13293081E-03
 -1.73073631E-03 -2.92616823E-03 -9.55135224E-03 -8.49867931E-02 -2.38289198E-02
  1.15166524E-02 -5.14636351E-03 -7.83891119E-02 -2.71614502E-02  5.91864007E-03
 -5.00348606E-02 -3.85049361E-01 -9.03575476E-02  6.85480482E-01  5.00938211E-01
  1.05158726E+00  5.89642190E-01 -5.92379004E-03 -4.38271291E-03 -5.28597027E-03
 -2.16739738E-03 -4.85118628E-03  1.73090231E-03  2.92636992E-03 -9.55079741E-03
  6.05938309E-02  6.41785715E-02 -1.15168813E-02 -5.14604757E-03  6.04781608E-02