Title Card Required                                                     
Force     UM062X                                                      6-311+G(d,p)        
Number of atoms                            I                4
Info1-9                                    I   N=           9
          13          13           0           0           0         100
           5          18        -502
Full Title                                 C   N=           2
Title Card Required     
Route                                      C   N=           4
#p UM062X/6-311+G** force int=superfine         
Charge                                     I                1
Multiplicity                               I                2
Number of electrons                        I               13
Number of alpha electrons                  I                7
Number of beta electrons                   I                6
Number of basis functions                  I               56
Number of independent functions            I               56
Number of point charges in /Mol/           I                0
Number of translation vectors              I                0
Atomic numbers                             I   N=           4
           6           6           1           1
Nuclear charges                            R   N=           4
  6.00000000E+00  6.00000000E+00  1.00000000E+00  1.00000000E+00
Current cartesian coordinates              R   N=          12
  0.00000000E+00  0.00000000E+00  1.29158434E+00  1.58173463E-16  0.00000000E+00
 -1.29158434E+00  0.00000000E+00  0.00000000E+00  3.34172365E+00  4.09243117E-16
  0.00000000E+00 -3.34172365E+00
Number of symbols in /Mol/                 I                0
Force Field                                I                0
Atom Types                                 C   N=           4
                                                
Int Atom Types                             I   N=           4
           0           0           0           0
MM charges                                 R   N=           4
  0.00000000E+00  0.00000000E+00  0.00000000E+00  0.00000000E+00
Integer atomic weights                     I   N=           4
          12          12           1           1
Real atomic weights                        R   N=           4
  1.20000000E+01  1.20000000E+01  1.00782504E+00  1.00782504E+00
Atom fragment info                         I   N=           4
           0           0           0           0
Atom residue num                           I   N=           4
           0           0           0           0
Nuclear spins                              I   N=           4
           0           0           1           1
Nuclear ZEff                               R   N=           4
 -3.60000000E+00 -3.60000000E+00 -1.00000000E+00 -1.00000000E+00
Nuclear ZNuc                               R   N=           4
  6.00000000E+00  6.00000000E+00  1.00000000E+00  1.00000000E+00
Nuclear QMom                               R   N=           4
  0.00000000E+00  0.00000000E+00  0.00000000E+00  0.00000000E+00
Nuclear GFac                               R   N=           4
  0.00000000E+00  0.00000000E+00  2.79284600E+00  2.79284600E+00
MicOpt                                     I   N=           4
          -1          -1          -1          -1
Number of residues                         I                0
Number of secondary structures             I                0
SymInf integers                            I   N=          26
           2           8           1           1           1          -1
           1          -1          -1          -1           1           1
          -1          -1          -1           1           1           1
          -1           1           1           1          -1          -1
          -1          -1
RotTr to input orientation                 R   N=          12
  0.00000000E+00  0.00000000E+00  1.00000000E+00  0.00000000E+00  1.00000000E+00
  0.00000000E+00 -1.00000000E+00 -0.00000000E+00 -0.00000000E+00  3.17206578E-17
  0.00000000E+00  0.00000000E+00
Number of contracted shells                I               20
Number of primitive shells                 I               38
Pure/Cartesian d shells                    I                0
Pure/Cartesian f shells                    I                0
Highest angular momentum                   I                2
Largest degree of contraction              I                6
Shell types                                I   N=          20
           0          -1          -1          -1          -1          -2
           0          -1          -1          -1          -1          -2
           0           0           0           1           0           0
           0           1
Number of primitives per shell             I   N=          20
           6           3           1           1           1           1
           6           3           1           1           1           1
           3           1           1           1           3           1
           1           1
Shell to atom map                          I   N=          20
           1           1           1           1           1           1
           2           2           2           2           2           2
           3           3           3           3           4           4
           4           4
Primitive exponents                        R   N=          38
  4.56324000E+03  6.82024000E+02  1.54973000E+02  4.44553000E+01  1.30290000E+01
  1.82773000E+00  2.09642000E+01  4.80331000E+00  1.45933000E+00  4.83456000E-01
  1.45585000E-01  4.38000000E-02  6.26000000E-01  4.56324000E+03  6.82024000E+02
  1.54973000E+02  4.44553000E+01  1.30290000E+01  1.82773000E+00  2.09642000E+01
  4.80331000E+00  1.45933000E+00  4.83456000E-01  1.45585000E-01  4.38000000E-02
  6.26000000E-01  3.38650000E+01  5.09479000E+00  1.15879000E+00  3.25840000E-01
  1.02741000E-01  7.50000000E-01  3.38650000E+01  5.09479000E+00  1.15879000E+00
  3.25840000E-01  1.02741000E-01  7.50000000E-01
Contraction coefficients                   R   N=          38
  1.96665025E-03  1.52306019E-02  7.61269097E-02  2.60801033E-01  6.16462078E-01
  2.21006028E-01  1.14660081E-01  9.19999648E-01 -3.03068213E-03  1.00000000E+00
  1.00000000E+00  1.00000000E+00  1.00000000E+00  1.96665025E-03  1.52306019E-02
  7.61269097E-02  2.60801033E-01  6.16462078E-01  2.21006028E-01  1.14660081E-01
  9.19999648E-01 -3.03068213E-03  1.00000000E+00  1.00000000E+00  1.00000000E+00
  1.00000000E+00  2.54938145E-02  1.90373109E-01  8.52161486E-01  1.00000000E+00
  1.00000000E+00  1.00000000E+00  2.54938145E-02  1.90373109E-01  8.52161486E-01
  1.00000000E+00  1.00000000E+00  1.00000000E+00
P(S=P) Contraction coefficients            R   N=          38
  0.00000000E+00  0.00000000E+00  0.00000000E+00  0.00000000E+00  0.00000000E+00
  0.00000000E+00  4.02486927E-02  2.37593957E-01  8.15853851E-01  1.00000000E+00
  1.00000000E+00  1.00000000E+00  0.00000000E+00  0.00000000E+00  0.00000000E+00
  0.00000000E+00  0.00000000E+00  0.00000000E+00  0.00000000E+00  4.02486927E-02
  2.37593957E-01  8.15853851E-01  1.00000000E+00  1.00000000E+00  1.00000000E+00
  0.00000000E+00  0.00000000E+00  0.00000000E+00  0.00000000E+00  0.00000000E+00
  0.00000000E+00  0.00000000E+00  0.00000000E+00  0.00000000E+00  0.00000000E+00
  0.00000000E+00  0.00000000E+00  0.00000000E+00
Coordinates of each shell                  R   N=          60
  0.00000000E+00  0.00000000E+00  1.29158434E+00  0.00000000E+00  0.00000000E+00
  1.29158434E+00  0.00000000E+00  0.00000000E+00  1.29158434E+00  0.00000000E+00
  0.00000000E+00  1.29158434E+00  0.00000000E+00  0.00000000E+00  1.29158434E+00
  0.00000000E+00  0.00000000E+00  1.29158434E+00  1.58173463E-16  0.00000000E+00
 -1.29158434E+00  1.58173463E-16  0.00000000E+00 -1.29158434E+00  1.58173463E-16
  0.00000000E+00 -1.29158434E+00  1.58173463E-16  0.00000000E+00 -1.29158434E+00
  1.58173463E-16  0.00000000E+00 -1.29158434E+00  1.58173463E-16  0.00000000E+00
 -1.29158434E+00  0.00000000E+00  0.00000000E+00  3.34172365E+00  0.00000000E+00
  0.00000000E+00  3.34172365E+00  0.00000000E+00  0.00000000E+00  3.34172365E+00
  0.00000000E+00  0.00000000E+00  3.34172365E+00  4.09243117E-16  0.00000000E+00
 -3.34172365E+00  4.09243117E-16  0.00000000E+00 -3.34172365E+00  4.09243117E-16
  0.00000000E+00 -3.34172365E+00  4.09243117E-16  0.00000000E+00 -3.34172365E+00
Num ILSW                                   I              100
ILSW                                       I   N=         100
           1           0           0           0           2           0
           0           0           0           0        4336          -1
           7           0           0           0           2           0
           0           0           0           0           1           0
           1           0           0           0           0           0
           0           0      100000           0          -1           0
           0           0           0           0           0           0
           0           0           0           1           0           0
           0 -2000000000           1           0           0           0
           0           0           4          52           0           0
           0           0          55           0           0           0
           0           0           0           4           0           1
           0           0           0           0           0           0
           0           0           0           0           0           0
           0           0           0           0           0           0
           0           0           0           0           0           0
           0           0           0           0
Num RLSW                                   I               52
RLSW                                       R   N=          52
  1.00000000E+00  1.00000000E+00  1.00000000E+00  1.00000000E+00  5.40000000E-01
  0.00000000E+00  0.00000000E+00  1.00000000E+00  0.00000000E+00  0.00000000E+00
  0.00000000E+00  0.00000000E+00  1.00000000E+00  0.00000000E+00  0.00000000E+00
  0.00000000E+00  0.00000000E+00  1.00000000E+00  0.00000000E+00  0.00000000E+00
  0.00000000E+00  0.00000000E+00  1.00000000E+00  0.00000000E+00  0.00000000E+00
  0.00000000E+00  0.00000000E+00  1.00000000E+00  0.00000000E+00  0.00000000E+00
  0.00000000E+00  0.00000000E+00  1.00000000E+00  0.00000000E+00  0.00000000E+00
  0.00000000E+00  0.00000000E+00  0.00000000E+00  1.00000000E+00  1.00000000E+00
  0.00000000E+00  1.00000000E+00  0.00000000E+00  0.00000000E+00  0.00000000E+00
  0.00000000E+00  0.00000000E+00  0.00000000E+00  0.00000000E+00  0.00000000E+00
  0.00000000E+00  0.00000000E+00
MxBond                                     I                2
NBond                                      I   N=           4
           2           2           1           1
IBond                                      I   N=           8
           2           3           1           4           1           0
           2           0
RBond                                      R   N=           8
  2.00000000E+00  1.00000000E+00  2.00000000E+00  1.00000000E+00  1.00000000E+00
  0.00000000E+00  1.00000000E+00  0.00000000E+00
Virial Ratio                               R      2.008945664734548E+00
SCF Energy                                 R     -7.687970084257329E+01
Total Energy                               R     -7.687970084257329E+01
S**2                                       R      7.522550125954375E-01
S**2 after annihilation                    R      7.500035983138410E-01
RMS Force                                  R      6.665099664783418E-02
RMS Density                                R      1.827301240365391E-09
Job Status                                 I                1
Nuclear derivative order                   I                1
External E-field                           R   N=          35
  0.00000000E+00  0.00000000E+00  0.00000000E+00  0.00000000E+00  0.00000000E+00
  0.00000000E+00  0.00000000E+00  0.00000000E+00  0.00000000E+00  0.00000000E+00
  0.00000000E+00  0.00000000E+00  0.00000000E+00  0.00000000E+00  0.00000000E+00
  0.00000000E+00  0.00000000E+00  0.00000000E+00  0.00000000E+00  0.00000000E+00
  0.00000000E+00  0.00000000E+00  0.00000000E+00  0.00000000E+00  0.00000000E+00
  0.00000000E+00  0.00000000E+00  0.00000000E+00  0.00000000E+00  0.00000000E+00
  0.00000000E+00  0.00000000E+00  0.00000000E+00  0.00000000E+00  0.00000000E+00
IOpCl                                      I                1
IROHF                                      I                0
Alpha Orbital Energies                     R   N=          56
 -1.09621977E+01 -1.09611221E+01 -1.18532259E+00 -9.78582211E-01 -8.84738735E-01
 -6.97147996E-01 -6.72379824E-01 -3.04364581E-01 -2.84151166E-01 -1.73872728E-01
 -1.44141104E-01 -1.13047265E-01 -9.91946738E-02 -9.67391740E-02 -8.32067243E-02
 -5.02242394E-02 -4.63287660E-02  2.16755471E-02  4.45305658E-02  1.30850679E-01
  1.97714612E-01  3.03855238E-01  3.16005162E-01  3.67950055E-01  3.73921068E-01
  4.66814497E-01  4.86010007E-01  5.26271999E-01  5.51352003E-01  7.27312558E-01
  7.42359243E-01  8.14260768E-01  8.78940295E-01  8.80599716E-01  1.14783317E+00
  1.15421117E+00  1.18707192E+00  1.18832054E+00  1.39437955E+00  1.47771076E+00
  1.48948414E+00  1.68128477E+00  2.03846194E+00  2.05825234E+00  2.25799039E+00
  2.39864259E+00  2.41624333E+00  2.42717692E+00  2.56246733E+00  2.56542149E+00
  2.59499833E+00  2.89973550E+00  2.96571510E+00  3.35829390E+00  2.32042436E+01
  2.41643192E+01
Beta Orbital Energies                      R   N=          56
 -1.09598115E+01 -1.09589363E+01 -1.13996803E+00 -9.62297622E-01 -8.79262187E-01
 -6.48699134E-01 -4.44139432E-01 -2.67461133E-01 -2.34332152E-01 -1.59995253E-01
 -1.55594618E-01 -1.15118933E-01 -1.02165722E-01 -9.95996873E-02 -8.06441999E-02
 -4.61914511E-02 -4.11714309E-02  1.73854166E-02  4.63949826E-02  1.36720390E-01
  2.06705980E-01  2.91235843E-01  3.15383115E-01  3.58148386E-01  3.73134431E-01
  4.45589649E-01  4.85012173E-01  5.52014642E-01  5.64826083E-01  7.61176030E-01
  7.68599031E-01  7.85430252E-01  9.16296708E-01  9.38020387E-01  1.16284340E+00
  1.17337714E+00  1.21615458E+00  1.23670751E+00  1.41043848E+00  1.49850998E+00
  1.50635226E+00  1.70627174E+00  2.06453600E+00  2.07218815E+00  2.27877549E+00
  2.43188735E+00  2.43615144E+00  2.43802938E+00  2.60239835E+00  2.60763688E+00
  2.62311537E+00  2.92668300E+00  3.06074650E+00  3.36952158E+00  2.32141608E+01
  2.41847902E+01
Alpha MO coefficients                      R   N=        3136
  3.98923176E-01  3.28150578E-01  0.00000000E+00  0.00000000E+00 -6.12269685E-04
  7.61344965E-03  0.00000000E+00  0.00000000E+00  2.06042053E-03 -3.03715159E-03
  0.00000000E+00  0.00000000E+00 -3.24594831E-04 -4.17180541E-04  0.00000000E+00
  0.00000000E+00 -1.56056123E-03  8.76212480E-04  0.00000000E+00  0.00000000E+00
  3.55073592E-05  0.00000000E+00  3.98923176E-01  3.28150578E-01  0.00000000E+00
  0.00000000E+00  6.12269685E-04  7.61344965E-03  0.00000000E+00  0.00000000E+00
 -2.06042053E-03 -3.03715159E-03  0.00000000E+00  0.00000000E+00  3.24594831E-04
 -4.17180541E-04  0.00000000E+00  0.00000000E+00  1.56056123E-03  8.76212480E-04
  0.00000000E+00  0.00000000E+00  3.55073592E-05  0.00000000E+00  1.40942451E-04
 -2.91940779E-03  2.82520646E-03  0.00000000E+00  0.00000000E+00  1.69442473E-03
  1.40942451E-04 -2.91940779E-03  2.82520646E-03  0.00000000E+00  0.00000000E+00
 -1.69442473E-03  3.99106325E-01  3.27671384E-01  0.00000000E+00  0.00000000E+00
  2.07754219E-04  9.90029817E-03  0.00000000E+00  0.00000000E+00 -1.87758206E-03
 -1.02313819E-02  0.00000000E+00  0.00000000E+00  1.04916521E-02 -9.97283198E-03
  0.00000000E+00  0.00000000E+00  2.76746142E-03  3.94937655E-03  0.00000000E+00
  0.00000000E+00  4.46232226E-05  0.00000000E+00 -3.99106325E-01 -3.27671384E-01
  0.00000000E+00  0.00000000E+00  2.07754219E-04 -9.90029817E-03  0.00000000E+00
  0.00000000E+00 -1.87758206E-03  1.02313819E-02  0.00000000E+00  0.00000000E+00
  1.04916521E-02  9.97283198E-03  0.00000000E+00  0.00000000E+00  2.76746142E-03
 -3.94937655E-03  0.00000000E+00  0.00000000E+00 -4.46232226E-05  0.00000000E+00
 -7.82986729E-05 -5.26800856E-03 -1.86506871E-03  0.00000000E+00  0.00000000E+00
  2.27198856E-03  7.82986729E-05  5.26800856E-03  1.86506871E-03  0.00000000E+00
  0.00000000E+00  2.27198856E-03 -8.95791516E-02 -1.45514352E-01  0.00000000E+00
  0.00000000E+00 -6.56749142E-02  4.01806825E-01  0.00000000E+00  0.00000000E+00
 -8.46141246E-02  2.10192888E-01  0.00000000E+00  0.00000000E+00 -1.55545185E-02
 -4.40639925E-03  0.00000000E+00  0.00000000E+00  2.04221740E-02  2.29769878E-02
  0.00000000E+00  0.00000000E+00  5.29949398E-03  0.00000000E+00 -8.95791516E-02
 -1.45514352E-01  0.00000000E+00  0.00000000E+00  6.56749142E-02  4.01806825E-01
  0.00000000E+00  0.00000000E+00  8.46141246E-02  2.10192888E-01  0.00000000E+00
  0.00000000E+00  1.55545185E-02 -4.40639925E-03  0.00000000E+00  0.00000000E+00
 -2.04221740E-02  2.29769878E-02  0.00000000E+00  0.00000000E+00  5.29949398E-03
  0.00000000E+00  4.08101973E-02  4.21703971E-02 -1.81214442E-02  0.00000000E+00
  0.00000000E+00 -3.85945494E-03  4.08101973E-02  4.21703971E-02 -1.81214442E-02
  0.00000000E+00  0.00000000E+00  3.85945494E-03 -6.77777097E-02 -1.12162827E-01
  0.00000000E+00  0.00000000E+00  9.46197590E-02  3.19783760E-01  0.00000000E+00
  0.00000000E+00  1.26903891E-01  2.76249526E-01  0.00000000E+00  0.00000000E+00
  2.63205808E-02 -2.70660824E-01  0.00000000E+00  0.00000000E+00  7.75435281E-02
  1.23233920E-02  0.00000000E+00  0.00000000E+00  3.89273265E-03  0.00000000E+00
  6.77777097E-02  1.12162827E-01  0.00000000E+00  0.00000000E+00  9.46197590E-02
 -3.19783760E-01  0.00000000E+00  0.00000000E+00  1.26903891E-01 -2.76249526E-01
  0.00000000E+00  0.00000000E+00  2.63205808E-02  2.70660824E-01  0.00000000E+00
  0.00000000E+00  7.75435281E-02 -1.23233920E-02  0.00000000E+00  0.00000000E+00
 -3.89273265E-03  0.00000000E+00  1.22605584E-01  1.57567113E-01 -3.66187786E-03
  0.00000000E+00  0.00000000E+00 -2.02228711E-02 -1.22605584E-01 -1.57567113E-01
  3.66187786E-03  0.00000000E+00  0.00000000E+00 -2.02228711E-02 -8.22560111E-03
 -1.31132123E-02  0.00000000E+00  0.00000000E+00  1.88635015E-01  3.38254048E-02
  0.00000000E+00  0.00000000E+00  2.57062404E-01  8.03827859E-02  0.00000000E+00
  0.00000000E+00  1.07491869E-01  8.19957534E-03  0.00000000E+00  0.00000000E+00
  6.88523397E-03 -6.71518494E-03  0.00000000E+00  0.00000000E+00  1.35045272E-04
  0.00000000E+00 -8.22560111E-03 -1.31132123E-02  0.00000000E+00  0.00000000E+00
 -1.88635015E-01  3.38254048E-02  0.00000000E+00  0.00000000E+00 -2.57062404E-01
  8.03827859E-02  0.00000000E+00  0.00000000E+00 -1.07491869E-01  8.19957534E-03
  0.00000000E+00  0.00000000E+00 -6.88523397E-03 -6.71518494E-03  0.00000000E+00
  0.00000000E+00  1.35045272E-04  0.00000000E+00  1.31080371E-01  1.82184739E-01
 -2.63749174E-03  0.00000000E+00  0.00000000E+00 -2.55284134E-02  1.31080371E-01
  1.82184739E-01 -2.63749174E-03  0.00000000E+00  0.00000000E+00  2.55284134E-02
  0.00000000E+00  0.00000000E+00  1.97531272E-01  0.00000000E+00  0.00000000E+00
  0.00000000E+00  3.25683424E-01  0.00000000E+00  0.00000000E+00  0.00000000E+00
  2.14494740E-01  0.00000000E+00  0.00000000E+00  0.00000000E+00 -6.28797472E-03
  0.00000000E+00  0.00000000E+00  0.00000000E+00 -3.16725588E-02  0.00000000E+00
  0.00000000E+00  0.00000000E+00  0.00000000E+00  0.00000000E+00  1.97531272E-01
  0.00000000E+00  0.00000000E+00  0.00000000E+00  3.25683424E-01  0.00000000E+00
  0.00000000E+00  0.00000000E+00  2.14494740E-01  0.00000000E+00  0.00000000E+00
  0.00000000E+00 -6.28797472E-03  0.00000000E+00  0.00000000E+00  0.00000000E+00
  3.16725588E-02  0.00000000E+00  0.00000000E+00  0.00000000E+00  0.00000000E+00
  0.00000000E+00  0.00000000E+00  1.28949766E-02  0.00000000E+00  0.00000000E+00
  0.00000000E+00  0.00000000E+00  0.00000000E+00  1.28949766E-02  0.00000000E+00
  0.00000000E+00  0.00000000E+00  0.00000000E+00  0.00000000E+00  1.96720297E-01
  0.00000000E+00  0.00000000E+00  0.00000000E+00  3.24410600E-01  0.00000000E+00
  0.00000000E+00  0.00000000E+00  2.14240861E-01  0.00000000E+00  0.00000000E+00
  0.00000000E+00 -2.58814228E-03  0.00000000E+00  0.00000000E+00  0.00000000E+00
 -3.07172591E-02  0.00000000E+00  0.00000000E+00  0.00000000E+00  0.00000000E+00
  0.00000000E+00  1.96720297E-01  0.00000000E+00  0.00000000E+00  0.00000000E+00
  3.24410600E-01  0.00000000E+00  0.00000000E+00  0.00000000E+00  2.14240861E-01
  0.00000000E+00  0.00000000E+00  0.00000000E+00 -2.58814228E-03  0.00000000E+00
  0.00000000E+00  0.00000000E+00  3.07172591E-02  0.00000000E+00  0.00000000E+00
  0.00000000E+00  0.00000000E+00  0.00000000E+00  0.00000000E+00  1.42713568E-02
  0.00000000E+00  0.00000000E+00  0.00000000E+00  0.00000000E+00  0.00000000E+00
  1.42713568E-02  0.00000000E+00  0.00000000E+00  0.00000000E+00  2.14481345E-01
  0.00000000E+00  0.00000000E+00  0.00000000E+00  3.49290381E-01  0.00000000E+00
  0.00000000E+00  0.00000000E+00  4.60027772E-01  0.00000000E+00  0.00000000E+00
  0.00000000E+00  1.39564026E-01  0.00000000E+00  0.00000000E+00  0.00000000E+00
  3.11198529E-02  0.00000000E+00  0.00000000E+00  0.00000000E+00  0.00000000E+00
  0.00000000E+00 -2.14481345E-01  0.00000000E+00  0.00000000E+00  0.00000000E+00
 -3.49290381E-01  0.00000000E+00  0.00000000E+00  0.00000000E+00 -4.60027772E-01
  0.00000000E+00  0.00000000E+00  0.00000000E+00 -1.39564026E-01  0.00000000E+00
  0.00000000E+00  0.00000000E+00  3.11198529E-02  0.00000000E+00  0.00000000E+00
  0.00000000E+00  0.00000000E+00  0.00000000E+00  0.00000000E+00  2.54472620E-02
  0.00000000E+00  0.00000000E+00  0.00000000E+00  0.00000000E+00  0.00000000E+00
 -2.54472620E-02  0.00000000E+00  0.00000000E+00  0.00000000E+00  0.00000000E+00
  0.00000000E+00  2.10481804E-01  0.00000000E+00  0.00000000E+00  0.00000000E+00
  3.37980770E-01  0.00000000E+00  0.00000000E+00  0.00000000E+00  4.70185833E-01
  0.00000000E+00  0.00000000E+00  0.00000000E+00  1.76846716E-01  0.00000000E+00
  0.00000000E+00  0.00000000E+00  3.29746965E-02  0.00000000E+00  0.00000000E+00
  0.00000000E+00  0.00000000E+00  0.00000000E+00 -2.10481804E-01  0.00000000E+00
  0.00000000E+00  0.00000000E+00 -3.37980770E-01  0.00000000E+00  0.00000000E+00
  0.00000000E+00 -4.70185833E-01  0.00000000E+00  0.00000000E+00  0.00000000E+00
 -1.76846716E-01  0.00000000E+00  0.00000000E+00  0.00000000E+00  3.29746965E-02
  0.00000000E+00  0.00000000E+00  0.00000000E+00  0.00000000E+00  0.00000000E+00
  0.00000000E+00  2.69862345E-02  0.00000000E+00  0.00000000E+00  0.00000000E+00
  0.00000000E+00  0.00000000E+00 -2.69862345E-02  0.00000000E+00 -5.82793603E-02
 -1.00283626E-01  0.00000000E+00  0.00000000E+00 -1.39037851E-02  3.12411944E-01
  0.00000000E+00  0.00000000E+00 -1.18787227E-02  9.98177785E-01  0.00000000E+00
  0.00000000E+00 -7.48287735E-02  5.57674982E+00  0.00000000E+00  0.00000000E+00
 -1.78401351E+00 -4.67898947E-02  0.00000000E+00  0.00000000E+00  5.31639884E-03
  0.00000000E+00  5.82793603E-02  1.00283626E-01  0.00000000E+00  0.00000000E+00
 -1.39037851E-02 -3.12411944E-01  0.00000000E+00  0.00000000E+00 -1.18787227E-02
 -9.98177785E-01  0.00000000E+00  0.00000000E+00 -7.48287735E-02 -5.57674982E+00
  0.00000000E+00  0.00000000E+00 -1.78401351E+00  4.67898947E-02  0.00000000E+00
  0.00000000E+00 -5.31639884E-03  0.00000000E+00 -8.90656462E-02 -2.78126638E-01
 -4.76232960E-01  0.00000000E+00  0.00000000E+00 -1.84512575E-02  8.90656462E-02
  2.78126638E-01  4.76232960E-01  0.00000000E+00  0.00000000E+00 -1.84512575E-02
  2.37372307E-02  4.14314721E-02  0.00000000E+00  0.00000000E+00 -3.14829028E-02
 -1.52800586E-01  0.00000000E+00  0.00000000E+00 -6.17913454E-02 -3.06624106E-01
  0.00000000E+00  0.00000000E+00 -6.06497969E-02  9.47327561E-01  0.00000000E+00
  0.00000000E+00  5.36222392E-01 -2.06779274E-02  0.00000000E+00  0.00000000E+00
  9.11968061E-04  0.00000000E+00  2.37372307E-02  4.14314721E-02  0.00000000E+00
  0.00000000E+00  3.14829028E-02 -1.52800586E-01  0.00000000E+00  0.00000000E+00
  6.17913454E-02 -3.06624106E-01  0.00000000E+00  0.00000000E+00  6.06497969E-02
  9.47327561E-01  0.00000000E+00  0.00000000E+00 -5.36222392E-01 -2.06779274E-02
  0.00000000E+00  0.00000000E+00  9.11968061E-04  0.00000000E+00 -2.40103645E-02
  3.73445803E-02 -2.77161496E-01  0.00000000E+00  0.00000000E+00  8.63801194E-03
 -2.40103645E-02  3.73445803E-02 -2.77161496E-01  0.00000000E+00  0.00000000E+00
 -8.63801194E-03  1.10382237E-03  1.24025325E-03  0.00000000E+00  0.00000000E+00
 -9.83907233E-02  3.14072556E-02  0.00000000E+00  0.00000000E+00 -1.44742222E-01
 -2.55563815E-01  0.00000000E+00  0.00000000E+00 -2.55972732E-01 -2.70208388E-01
  0.00000000E+00  0.00000000E+00  8.13129420E-01  4.67062926E-02  0.00000000E+00
  0.00000000E+00 -3.62096672E-03  0.00000000E+00  1.10382237E-03  1.24025325E-03
  0.00000000E+00  0.00000000E+00  9.83907233E-02  3.14072556E-02  0.00000000E+00
  0.00000000E+00  1.44742222E-01 -2.55563815E-01  0.00000000E+00  0.00000000E+00
  2.55972732E-01 -2.70208388E-01  0.00000000E+00  0.00000000E+00 -8.13129420E-01
  4.67062926E-02  0.00000000E+00  0.00000000E+00 -3.62096672E-03  0.00000000E+00
  5.81421648E-02  2.01596942E-01  6.35574031E-01  0.00000000E+00  0.00000000E+00
  2.41932999E-02  5.81421648E-02  2.01596942E-01  6.35574031E-01  0.00000000E+00
  0.00000000E+00 -2.41932999E-02  0.00000000E+00  0.00000000E+00 -6.94715247E-02
  0.00000000E+00  0.00000000E+00  0.00000000E+00 -8.22716456E-02  0.00000000E+00
  0.00000000E+00  0.00000000E+00 -2.01615399E-01  0.00000000E+00  0.00000000E+00
  0.00000000E+00  6.18237832E-01  0.00000000E+00  0.00000000E+00  0.00000000E+00
  1.78548919E-02  0.00000000E+00  0.00000000E+00  0.00000000E+00  0.00000000E+00
  0.00000000E+00 -6.94715247E-02  0.00000000E+00  0.00000000E+00  0.00000000E+00
 -8.22716456E-02  0.00000000E+00  0.00000000E+00  0.00000000E+00 -2.01615399E-01
  0.00000000E+00  0.00000000E+00  0.00000000E+00  6.18237832E-01  0.00000000E+00
  0.00000000E+00  0.00000000E+00 -1.78548919E-02  0.00000000E+00  0.00000000E+00
  0.00000000E+00  0.00000000E+00  0.00000000E+00  0.00000000E+00  7.57775997E-03
  0.00000000E+00  0.00000000E+00  0.00000000E+00  0.00000000E+00  0.00000000E+00
  7.57775997E-03  0.00000000E+00  0.00000000E+00  0.00000000E+00  0.00000000E+00
  0.00000000E+00 -6.91187166E-02  0.00000000E+00  0.00000000E+00  0.00000000E+00
 -8.95729661E-02  0.00000000E+00  0.00000000E+00  0.00000000E+00 -1.98161199E-01
  0.00000000E+00  0.00000000E+00  0.00000000E+00  6.16342813E-01  0.00000000E+00
  0.00000000E+00  0.00000000E+00  1.74680293E-02  0.00000000E+00  0.00000000E+00
  0.00000000E+00  0.00000000E+00  0.00000000E+00 -6.91187166E-02  0.00000000E+00
  0.00000000E+00  0.00000000E+00 -8.95729661E-02  0.00000000E+00  0.00000000E+00
  0.00000000E+00 -1.98161199E-01  0.00000000E+00  0.00000000E+00  0.00000000E+00
  6.16342813E-01  0.00000000E+00  0.00000000E+00  0.00000000E+00 -1.74680293E-02
  0.00000000E+00  0.00000000E+00  0.00000000E+00  0.00000000E+00  0.00000000E+00
  0.00000000E+00  7.03454184E-03  0.00000000E+00  0.00000000E+00  0.00000000E+00
  0.00000000E+00  0.00000000E+00  7.03454184E-03  0.00000000E+00  2.72433273E-02
  4.63080689E-02  0.00000000E+00  0.00000000E+00  6.29009471E-02 -1.26518323E-01
  0.00000000E+00  0.00000000E+00  9.92239946E-02 -6.18681846E-01  0.00000000E+00
  0.00000000E+00 -2.12310857E-02  1.55572427E+00  0.00000000E+00  0.00000000E+00
 -1.38995330E+00  5.69750577E-02  0.00000000E+00  0.00000000E+00 -4.49183664E-03
  0.00000000E+00 -2.72433273E-02 -4.63080689E-02  0.00000000E+00  0.00000000E+00
  6.29009471E-02  1.26518323E-01  0.00000000E+00  0.00000000E+00  9.92239946E-02
  6.18681846E-01  0.00000000E+00  0.00000000E+00 -2.12310857E-02 -1.55572427E+00
  0.00000000E+00  0.00000000E+00 -1.38995330E+00 -5.69750577E-02  0.00000000E+00
  0.00000000E+00  4.49183664E-03  0.00000000E+00  9.76786524E-02  2.34334221E-01
  9.97020037E-01  0.00000000E+00  0.00000000E+00 -2.00007653E-03 -9.76786524E-02
 -2.34334221E-01 -9.97020037E-01  0.00000000E+00  0.00000000E+00 -2.00007653E-03
  0.00000000E+00  0.00000000E+00 -8.43237280E-02  0.00000000E+00  0.00000000E+00
  0.00000000E+00 -1.12261171E-01  0.00000000E+00  0.00000000E+00  0.00000000E+00
 -3.26096989E-01  0.00000000E+00  0.00000000E+00  0.00000000E+00  2.11892074E+00
  0.00000000E+00  0.00000000E+00  0.00000000E+00 -6.22231358E-04  0.00000000E+00
  0.00000000E+00  0.00000000E+00  0.00000000E+00  0.00000000E+00  8.43237280E-02
  0.00000000E+00  0.00000000E+00  0.00000000E+00  1.12261171E-01  0.00000000E+00
  0.00000000E+00  0.00000000E+00  3.26096989E-01  0.00000000E+00  0.00000000E+00
  0.00000000E+00 -2.11892074E+00  0.00000000E+00  0.00000000E+00  0.00000000E+00
 -6.22231358E-04  0.00000000E+00  0.00000000E+00  0.00000000E+00  0.00000000E+00
  0.00000000E+00  0.00000000E+00  9.32336560E-03  0.00000000E+00  0.00000000E+00
  0.00000000E+00  0.00000000E+00  0.00000000E+00 -9.32336560E-03  0.00000000E+00
  0.00000000E+00  0.00000000E+00  0.00000000E+00  0.00000000E+00 -8.80531537E-02
  0.00000000E+00  0.00000000E+00  0.00000000E+00 -1.22391306E-01  0.00000000E+00
  0.00000000E+00  0.00000000E+00 -3.34032153E-01  0.00000000E+00  0.00000000E+00
  0.00000000E+00  2.11344711E+00  0.00000000E+00  0.00000000E+00  0.00000000E+00
 -2.91687955E-03  0.00000000E+00  0.00000000E+00  0.00000000E+00  0.00000000E+00
  0.00000000E+00  8.80531537E-02  0.00000000E+00  0.00000000E+00  0.00000000E+00
  1.22391306E-01  0.00000000E+00  0.00000000E+00  0.00000000E+00  3.34032153E-01
  0.00000000E+00  0.00000000E+00  0.00000000E+00 -2.11344711E+00  0.00000000E+00
  0.00000000E+00  0.00000000E+00 -2.91687955E-03  0.00000000E+00  0.00000000E+00
  0.00000000E+00  0.00000000E+00  0.00000000E+00  0.00000000E+00  7.66634477E-03