unknown system                          
           1
     2.461000    0.000000    0.000000
    -1.230000    2.131000    0.000000
     0.000000    0.000000   15.000000
   C 
     2
Direct configuration=     1
   0.00000000  0.00000000  0.03333333
   0.66631760  0.33317691  0.03333333
unknown system                          
           1
     2.482998    0.000000    0.000000
    -1.241438    2.150567    0.000000
     0.000000    0.000000   15.000000
   C 
     2
Direct configuration=     2
   0.00000000  0.00000000  0.03333333
   0.66704240  0.33350137  0.03333333
unknown system                          
           1
     2.467506    0.000000    0.000000
    -1.233383    2.136787    0.000000
     0.000000    0.000000   15.000000
   C 
     2
Direct configuration=     3
   0.00000000  0.00000000  0.03333333
   0.66653647  0.33327495  0.03333333
unknown system                          
           1
     2.467480    0.000000    0.000000
    -1.233369    2.136763    0.000000
     0.000000    0.000000   15.000000
   C 
     2
Direct configuration=     4
   0.00000000  0.00000000  0.03333333
   0.66653560  0.33327456  0.03333333
unknown system                          
           1
     2.467318    0.000000    0.000000
    -1.233589    2.136844    0.000000
     0.000000    0.000000   15.000000
   C 
     2
Direct configuration=     5
   0.00000000  0.00000000  0.03333333
   0.66676497  0.33337767  0.03333333
unknown system                          
           1
     2.467380    0.000000    0.000000
    -1.233505    2.136813    0.000000
     0.000000    0.000000   15.000000
   C 
     2
Direct configuration=     6
   0.00000000  0.00000000  0.03333333
   0.66667787  0.33333852  0.03333333
unknown system                          
           1
     2.467375    0.000000    0.000000
    -1.233658    2.136821    0.000000
     0.000000    0.000000   15.000000
   C 
     2
Direct configuration=     7
   0.00000000  0.00000000  0.03333333
   0.66666885  0.33333464  0.03333333
