Title Card Required                                                     
FOpt      UM062X                                                      6-311+G(d,p)        
Number of atoms                            I                4
Info1-9                                    I   N=           9
          13          13           0           0           0         110
           2          18        -502
Full Title                                 C   N=           2
Title Card Required     
Route                                      C   N=           5
#p opt UM062X/6-311+G** nosymm int=superfine SCF=NoVarAcc   
Charge                                     I                1
Multiplicity                               I                2
Number of electrons                        I               13
Number of alpha electrons                  I                7
Number of beta electrons                   I                6
Number of basis functions                  I               56
Number of independent functions            I               56
Number of point charges in /Mol/           I                0
Number of translation vectors              I                0
Atomic numbers                             I   N=           4
           6           6           1           1
Nuclear charges                            R   N=           4
  6.00000000E+00  6.00000000E+00  1.00000000E+00  1.00000000E+00
Current cartesian coordinates              R   N=          12
 -1.20605345E+01  0.00000000E+00  0.00000000E+00  1.20605345E+01  0.00000000E+00
  0.00000000E+00 -1.41732570E+01 -5.04801732E-13  4.78808232E-13  1.41732553E+01
  2.01265515E-13  2.98532155E-13
Number of symbols in /Mol/                 I                0
Force Field                                I                0
Atom Types                                 C   N=           4
                                                
Int Atom Types                             I   N=           4
           0           0           0           0
MM charges                                 R   N=           4
  0.00000000E+00  0.00000000E+00  0.00000000E+00  0.00000000E+00
Integer atomic weights                     I   N=           4
          12          12           1           1
Real atomic weights                        R   N=           4
  1.20000000E+01  1.20000000E+01  1.00782504E+00  1.00782504E+00
Atom fragment info                         I   N=           4
           0           0           0           0
Atom residue num                           I   N=           4
           0           0           0           0
Nuclear spins                              I   N=           4
           0           0           1           1
Nuclear ZEff                               R   N=           4
 -3.60000000E+00 -3.60000000E+00 -1.00000000E+00 -1.00000000E+00
Nuclear ZNuc                               R   N=           4
  6.00000000E+00  6.00000000E+00  1.00000000E+00  1.00000000E+00
Nuclear QMom                               R   N=           4
  0.00000000E+00  0.00000000E+00  0.00000000E+00  0.00000000E+00
Nuclear GFac                               R   N=           4
  0.00000000E+00  0.00000000E+00  2.79284600E+00  2.79284600E+00
MicOpt                                     I   N=           4
          -2          -2          -1          -1
Number of residues                         I                0
Number of secondary structures             I                0
Redundant internal dimensions              I   N=           4
          12           8           4           0
Redundant internal coordinate indices      I   N=          48
           1          -1           0           0           1          -2
           0           0           1          -3           0           0
           2          -1           0           0           2          -2
           0           0           2          -3           0           0
           1           3           0           0           2           4
           0           0           2           1           3          -4
           1           2           4          -4           2           1
           3          -8           1           2           4          -8
Redundant internal coordinates             R   N=          12
 -1.20605345E+01  0.00000000E+00  0.00000000E+00  1.20605345E+01  0.00000000E+00
  0.00000000E+00  2.11272254E+00  2.11272078E+00  3.14159265E+00  3.14159265E+00
  3.14159265E+00  3.14159265E+00
ZRed-IntVec                                I   N=          12
          -1          -1          -1          -1          -1          -1
           0           0           0           0           0           0
ZRed-FPVec                                 R   N=          12
  0.00000000E+00  0.00000000E+00  0.00000000E+00  0.00000000E+00  0.00000000E+00
  0.00000000E+00  0.00000000E+00  0.00000000E+00  0.00000000E+00  0.00000000E+00
  0.00000000E+00  0.00000000E+00
ZRed-Constraint1                           R   N=          12
 -1.20605345E+01  0.00000000E+00  0.00000000E+00  1.20605345E+01  0.00000000E+00
  0.00000000E+00  2.08057524E+00  2.08053366E+00  3.14159265E+00  3.14159265E+00
  3.14159265E+00  3.14159265E+00
ZRed-Constraint2                           R   N=          12
 -1.20605345E+01  0.00000000E+00  0.00000000E+00  1.20605345E+01  0.00000000E+00
  0.00000000E+00  0.00000000E+00  0.00000000E+00  0.00000000E+00  0.00000000E+00
  0.00000000E+00  0.00000000E+00
Number of contracted shells                I               20
Number of primitive shells                 I               38
Pure/Cartesian d shells                    I                0
Pure/Cartesian f shells                    I                0
Highest angular momentum                   I                2
Largest degree of contraction              I                6
Shell types                                I   N=          20
           0          -1          -1          -1          -1          -2
           0          -1          -1          -1          -1          -2
           0           0           0           1           0           0
           0           1
Number of primitives per shell             I   N=          20
           6           3           1           1           1           1
           6           3           1           1           1           1
           3           1           1           1           3           1
           1           1
Shell to atom map                          I   N=          20
           1           1           1           1           1           1
           2           2           2           2           2           2
           3           3           3           3           4           4
           4           4
Primitive exponents                        R   N=          38
  4.56324000E+03  6.82024000E+02  1.54973000E+02  4.44553000E+01  1.30290000E+01
  1.82773000E+00  2.09642000E+01  4.80331000E+00  1.45933000E+00  4.83456000E-01
  1.45585000E-01  4.38000000E-02  6.26000000E-01  4.56324000E+03  6.82024000E+02
  1.54973000E+02  4.44553000E+01  1.30290000E+01  1.82773000E+00  2.09642000E+01
  4.80331000E+00  1.45933000E+00  4.83456000E-01  1.45585000E-01  4.38000000E-02
  6.26000000E-01  3.38650000E+01  5.09479000E+00  1.15879000E+00  3.25840000E-01
  1.02741000E-01  7.50000000E-01  3.38650000E+01  5.09479000E+00  1.15879000E+00
  3.25840000E-01  1.02741000E-01  7.50000000E-01
Contraction coefficients                   R   N=          38
  1.96665025E-03  1.52306019E-02  7.61269097E-02  2.60801033E-01  6.16462078E-01
  2.21006028E-01  1.14660081E-01  9.19999648E-01 -3.03068213E-03  1.00000000E+00
  1.00000000E+00  1.00000000E+00  1.00000000E+00  1.96665025E-03  1.52306019E-02
  7.61269097E-02  2.60801033E-01  6.16462078E-01  2.21006028E-01  1.14660081E-01
  9.19999648E-01 -3.03068213E-03  1.00000000E+00  1.00000000E+00  1.00000000E+00
  1.00000000E+00  2.54938145E-02  1.90373109E-01  8.52161486E-01  1.00000000E+00
  1.00000000E+00  1.00000000E+00  2.54938145E-02  1.90373109E-01  8.52161486E-01
  1.00000000E+00  1.00000000E+00  1.00000000E+00
P(S=P) Contraction coefficients            R   N=          38
  0.00000000E+00  0.00000000E+00  0.00000000E+00  0.00000000E+00  0.00000000E+00
  0.00000000E+00  4.02486927E-02  2.37593957E-01  8.15853851E-01  1.00000000E+00
  1.00000000E+00  1.00000000E+00  0.00000000E+00  0.00000000E+00  0.00000000E+00
  0.00000000E+00  0.00000000E+00  0.00000000E+00  0.00000000E+00  4.02486927E-02
  2.37593957E-01  8.15853851E-01  1.00000000E+00  1.00000000E+00  1.00000000E+00
  0.00000000E+00  0.00000000E+00  0.00000000E+00  0.00000000E+00  0.00000000E+00
  0.00000000E+00  0.00000000E+00  0.00000000E+00  0.00000000E+00  0.00000000E+00
  0.00000000E+00  0.00000000E+00  0.00000000E+00
Coordinates of each shell                  R   N=          60
 -1.20605345E+01  0.00000000E+00  0.00000000E+00 -1.20605345E+01  0.00000000E+00
  0.00000000E+00 -1.20605345E+01  0.00000000E+00  0.00000000E+00 -1.20605345E+01
  0.00000000E+00  0.00000000E+00 -1.20605345E+01  0.00000000E+00  0.00000000E+00
 -1.20605345E+01  0.00000000E+00  0.00000000E+00  1.20605345E+01  0.00000000E+00
  0.00000000E+00  1.20605345E+01  0.00000000E+00  0.00000000E+00  1.20605345E+01
  0.00000000E+00  0.00000000E+00  1.20605345E+01  0.00000000E+00  0.00000000E+00
  1.20605345E+01  0.00000000E+00  0.00000000E+00  1.20605345E+01  0.00000000E+00
  0.00000000E+00 -1.41732570E+01 -5.04801732E-13  4.78808232E-13 -1.41732570E+01
 -5.04801732E-13  4.78808232E-13 -1.41732570E+01 -5.04801732E-13  4.78808232E-13
 -1.41732570E+01 -5.04801732E-13  4.78808232E-13  1.41732553E+01  2.01265515E-13
  2.98532155E-13  1.41732553E+01  2.01265515E-13  2.98532155E-13  1.41732553E+01
  2.01265515E-13  2.98532155E-13  1.41732553E+01  2.01265515E-13  2.98532155E-13
Num ILSW                                   I              100
ILSW                                       I   N=         100
           1           0           0           0           2           0
           0           0           0           0        4336          -1
           7           0           0           0           2           0
           0           0           0           0           1           0
           1           1           0           0           0           0
           0           0      100000           0          -1           0
           0           0           0           0           0           0
           0           0           0           1           0           0
           0 -2000000000           1           0           0           0
           0           0           4          52           0           0
           0           0          55           0           0           0
           0           0           0           4           0           1
           0           0           0           0           0           0
           0           0           0           0           0           0
           0           0           0           0           0           0
           0           0           0           0           0           0
           0           0           0           0
Num RLSW                                   I               52
RLSW                                       R   N=          52
  1.00000000E+00  1.00000000E+00  1.00000000E+00  1.00000000E+00  5.40000000E-01
  0.00000000E+00  0.00000000E+00  1.00000000E+00  0.00000000E+00  0.00000000E+00
  0.00000000E+00  0.00000000E+00  1.00000000E+00  0.00000000E+00  0.00000000E+00
  0.00000000E+00  0.00000000E+00  1.00000000E+00  0.00000000E+00  0.00000000E+00
  0.00000000E+00  0.00000000E+00  1.00000000E+00  0.00000000E+00  0.00000000E+00
  0.00000000E+00  0.00000000E+00  1.00000000E+00  0.00000000E+00  0.00000000E+00
  0.00000000E+00  0.00000000E+00  1.00000000E+00  0.00000000E+00  0.00000000E+00
  0.00000000E+00  0.00000000E+00  0.00000000E+00  1.00000000E+00  1.00000000E+00
  0.00000000E+00  1.00000000E+00  0.00000000E+00  0.00000000E+00  0.00000000E+00
  0.00000000E+00  0.00000000E+00  0.00000000E+00  0.00000000E+00  0.00000000E+00
  0.00000000E+00  0.00000000E+00
MxBond                                     I                2
NBond                                      I   N=           4
           2           2           1           1
IBond                                      I   N=           8
           2           3           1           4           1           0
           2           0
RBond                                      R   N=           8
  1.00000000E-01  1.00000000E+00  1.00000000E-01  1.00000000E+00  1.00000000E+00
  0.00000000E+00  1.00000000E+00  0.00000000E+00
Virial Ratio                               R      2.002699437824206E+00
SCF Energy                                 R     -7.658459140025953E+01
Total Energy                               R     -7.658459140025953E+01
S**2                                       R      7.513006285416983E-01
S**2 after annihilation                    R      7.500012171386420E-01
RMS Force                                  R      1.412021818127297E-04
RMS Density                                R      5.286157499386889E-09
Job Status                                 I                1
Nuclear derivative order                   I                1
External E-field                           R   N=          35
  0.00000000E+00  0.00000000E+00  0.00000000E+00  0.00000000E+00  0.00000000E+00
  0.00000000E+00  0.00000000E+00  0.00000000E+00  0.00000000E+00  0.00000000E+00
  0.00000000E+00  0.00000000E+00  0.00000000E+00  0.00000000E+00  0.00000000E+00
  0.00000000E+00  0.00000000E+00  0.00000000E+00  0.00000000E+00  0.00000000E+00
  0.00000000E+00  0.00000000E+00  0.00000000E+00  0.00000000E+00  0.00000000E+00
  0.00000000E+00  0.00000000E+00  0.00000000E+00  0.00000000E+00  0.00000000E+00
  0.00000000E+00  0.00000000E+00  0.00000000E+00  0.00000000E+00  0.00000000E+00
IOpCl                                      I                1
IROHF                                      I                0
Alpha Orbital Energies                     R   N=          56
 -1.09109009E+01 -1.09109006E+01 -9.48844710E-01 -9.48822506E-01 -5.99081728E-01
 -5.99072535E-01 -4.21397094E-01 -3.99164381E-01 -2.98247983E-01 -2.98247846E-01
 -8.83391371E-02 -8.83290741E-02 -3.53086094E-02 -3.53044761E-02 -3.36304616E-02
 -3.36260859E-02 -3.33129685E-02 -3.32143015E-02  2.57899228E-02  2.58163842E-02
  3.08235491E-01  3.08300047E-01  4.01103952E-01  4.01106871E-01  4.10175728E-01
  4.10178606E-01  4.36609849E-01  4.36613219E-01  5.03310616E-01  5.03360017E-01
  9.26641557E-01  9.26641636E-01  9.28566459E-01  9.28597708E-01  1.11124154E+00
  1.11125730E+00  1.12159267E+00  1.12160814E+00  1.38667874E+00  1.38669660E+00
  1.65959360E+00  1.65959429E+00  1.66237922E+00  1.66238230E+00  2.19032415E+00
  2.19032991E+00  2.31026337E+00  2.31028443E+00  2.47270515E+00  2.47270652E+00
  2.48703286E+00  2.48703423E+00  2.96647184E+00  2.96648744E+00  2.32723594E+01
  2.32723681E+01
Beta Orbital Energies                      R   N=          56
 -1.09067549E+01 -1.09067548E+01 -9.25221031E-01 -9.25220794E-01 -5.85159385E-01
 -5.85159368E-01 -2.79421387E-01 -2.79421333E-01 -2.63096210E-01 -2.63096150E-01
 -9.03592672E-02 -9.03590020E-02 -3.34253041E-02 -3.33312181E-02 -2.73472888E-02
 -2.73433001E-02 -1.80925369E-02 -1.80885995E-02  4.38406056E-02  4.38659904E-02
  3.01618514E-01  3.01684491E-01  4.05732206E-01  4.05735434E-01  4.08299463E-01
  4.08302498E-01  4.66388275E-01  4.66398691E-01  5.24713064E-01  5.24749801E-01
  9.97750483E-01  9.97750757E-01  1.00677854E+00  1.00677883E+00  1.14387390E+00
  1.14387394E+00  1.14397637E+00  1.14397640E+00  1.39069263E+00  1.39070974E+00
  1.67676200E+00  1.67676272E+00  1.68353090E+00  1.68353162E+00  2.34857559E+00
  2.34859521E+00  2.35769788E+00  2.35770134E+00  2.49881392E+00  2.49881529E+00
  2.52237042E+00  2.52237176E+00  3.05998219E+00  3.06000149E+00  2.32854834E+01
  2.32854920E+01
Alpha MO coefficients                      R   N=        3136
  4.77352280E-01  3.93277465E-01 -1.71813250E-03  3.44246361E-16 -7.00339055E-16
  7.91044000E-03 -1.00182526E-03  3.61740852E-16  7.21449014E-16 -3.35436647E-03
 -6.23002407E-05 -2.58446805E-16 -7.04980555E-16  3.66844956E-04  5.46406813E-04
  4.44251807E-16  1.49138564E-16 -4.20227147E-04 -3.36601923E-16  1.08907548E-05
  7.00618335E-04  9.29241952E-16  3.00423132E-01  2.47510386E-01  1.08130817E-03
  2.45548923E-16  6.80532364E-16  4.97843647E-03  6.30519720E-04 -3.30143096E-15
 -1.76980970E-15 -2.11093516E-03  3.92032056E-05  1.16998640E-15  7.48210249E-16
  2.30950915E-04 -3.43800948E-04 -6.68992798E-16 -3.22085879E-16 -2.64434965E-04
  2.01014716E-15  6.82818397E-06  4.40938466E-04  5.09560172E-15  3.12014571E-04
 -2.22453658E-03  1.84998163E-03 -1.56455515E-03 -1.12978607E-15  1.33878831E-15
  1.96359295E-04 -1.40000239E-03  1.16414460E-03  9.84665751E-04  1.01168993E-16
  1.80830501E-16 -3.00423147E-01 -2.47510402E-01  1.08132103E-03 -1.07710574E-15
 -3.21253894E-16 -4.97852732E-03  6.30476052E-04  1.13904923E-15  9.41392641E-16
  2.11141550E-03  3.92215905E-05 -1.30061954E-15 -7.29041331E-16 -2.30694040E-04
 -3.44074252E-04  8.51999569E-16  3.92672077E-16  2.64559046E-04  2.21654633E-16
 -6.91408843E-06 -4.40938202E-04 -6.07661215E-16  4.77352288E-01  3.93277473E-01
  1.71814073E-03  1.77172190E-15  8.90656602E-16  7.91050979E-03  1.00181272E-03
 -6.79614207E-15 -2.62393115E-15 -3.35466643E-03  6.23115168E-05  2.46969864E-15
  9.70069739E-16  3.66678013E-04 -5.46580892E-04 -1.04957074E-15 -4.41069217E-16
 -4.20308971E-04  2.81482041E-15  1.09447973E-05  7.00624732E-04  8.12386846E-15
 -1.96383549E-04  1.40007902E-03 -1.16464380E-03  9.84650946E-04  7.58576404E-16
 -6.90924050E-16  3.12027551E-04 -2.22460559E-03  1.85030745E-03  1.56455742E-03
  1.85532302E-16  6.84598835E-16 -7.93441841E-02 -1.29533512E-01 -5.61085456E-02
  1.62133176E-14  1.78734443E-15  3.81987194E-01 -8.60727225E-02  4.71817291E-14
 -1.52922289E-14  2.41323385E-01 -3.20702059E-02  2.97273859E-14 -1.81667786E-14
 -5.42164226E-03 -2.28575315E-03 -6.86830365E-15  7.29533047E-15 -4.00005128E-03
  8.48223043E-15 -2.32759407E-04  7.51170367E-03  1.32468653E-16 -8.01467889E-02
 -1.30843805E-01  5.66762877E-02 -2.35079360E-13 -8.02029184E-14  3.85851191E-01
  8.69435953E-02 -5.03623194E-13 -1.52634881E-13  2.43764124E-01  3.23945857E-02
 -1.51072655E-13 -6.45421669E-14 -5.47667583E-03  2.30887477E-03  4.98968246E-15
  8.16115703E-15 -4.04058529E-03  4.48581221E-14 -2.35074356E-04  7.58771251E-03
  1.12994350E-13  9.80125728E-02  1.21838216E-01 -2.07922544E-03  1.67815955E-02
 -5.59023421E-14  4.88589434E-14  9.90042282E-02  1.23070953E-01 -2.10013011E-03
 -1.69513791E-02  1.41503682E-13  4.88116768E-14 -8.01460461E-02 -1.30842836E-01
 -5.66820426E-02  1.65761566E-14  6.88646581E-16  3.85854868E-01 -8.69513598E-02
  4.70467627E-14 -1.50546640E-14  2.43741022E-01 -3.23904869E-02  3.03277358E-14
 -1.94132245E-14 -5.49630853E-03 -2.30865769E-03 -6.63072029E-15  7.58378065E-15
 -4.04650311E-03  8.73463604E-15 -2.31035995E-04  7.58784853E-03  1.73280981E-16
  7.93433965E-02  1.29532465E-01 -5.61145564E-02  2.31741185E-13  7.88301772E-14
 -3.81990606E-01 -8.60807596E-02  4.99028290E-13  1.52467966E-13 -2.41299634E-01
 -3.20660758E-02  1.48844938E-13  6.37668231E-14  5.44145304E-03 -2.28553697E-03
 -4.84069925E-15 -7.95833508E-15  4.00604889E-03 -4.41741129E-14  2.28683074E-04
 -7.51188156E-03 -1.11657744E-13  9.90084856E-02  1.23086090E-01 -2.08570796E-03
  1.69528561E-02 -5.63455139E-14  4.95391200E-14 -9.80171404E-02 -1.21853684E-01
  2.06469348E-03  1.67831054E-02 -1.40648547E-13 -4.86706562E-14 -4.26385874E-02
 -7.10866025E-02  1.66008410E-01  2.19461622E-13 -1.48644288E-13  2.20316195E-01
  2.45592863E-01  2.82881675E-13 -1.64034714E-13  2.63257329E-01  1.40741624E-01
  2.53384686E-13 -1.80574735E-13  1.80360485E-02 -2.08426171E-03 -2.12071742E-14
  2.31992900E-14  1.48730772E-02 -1.09181032E-14 -4.67328161E-06 -2.57492749E-02
  1.71966394E-14 -4.27665794E-02 -7.12999915E-02 -1.66506592E-01 -1.71500682E-12
 -6.43577257E-13  2.20977548E-01 -2.46329825E-01 -2.67246873E-12 -1.00308371E-12
  2.64047638E-01 -1.41163904E-01 -1.84292356E-12 -7.02568496E-13  1.80901326E-02
  2.09052125E-03  4.50639441E-15  1.33873226E-14  1.49177017E-02  2.51025318E-14
 -4.67840001E-06 -2.58265541E-02  1.06830704E-13 -9.52630439E-02 -1.71578142E-01
 -7.84064070E-02 -7.88441157E-03  9.47449243E-15 -2.88377098E-15 -9.55488703E-02
 -1.72092907E-01 -7.86416611E-02  7.90805532E-03 -1.58407617E-13 -4.29283001E-14
 -4.27707357E-02 -7.13070355E-02  1.66505121E-01  2.20059155E-13 -1.48646654E-13
  2.21004281E-01  2.46328098E-01  2.84361807E-13 -1.65842952E-13  2.64047531E-01
  1.41172118E-01  2.53600485E-13 -1.81255409E-13  1.80678446E-02 -2.08984648E-03
 -2.07700849E-14  2.30665035E-14  1.49133645E-02 -1.06988960E-14 -1.54090692E-06
 -2.58269002E-02  1.70083016E-14  4.26428104E-02  7.10937616E-02  1.66006972E-01
  1.70857850E-12  6.42151832E-13 -2.20343279E-01  2.45591087E-01  2.66547586E-12
  9.99030926E-13 -2.63257843E-01  1.40749682E-01  1.83650948E-12  7.00487758E-13
 -1.80137483E-02 -2.08359887E-03 -4.62119513E-15 -1.33450135E-14 -1.48687381E-02
 -2.47540507E-14  1.52742089E-06  2.57496385E-02 -1.06641327E-13 -9.55442713E-02
 -1.72080848E-01 -7.86292753E-02 -7.90640342E-03  9.77287370E-15 -2.84314206E-15
  9.52583701E-02  1.71565887E-01  7.83939938E-02 -7.88273223E-03  1.57687175E-13
  4.33188256E-14 -3.46422358E-14 -3.60995489E-14  2.07800930E-14 -6.88340734E-02
  1.96516845E-01 -2.06258781E-13  4.53325642E-13 -1.08361423E-01  3.09364966E-01
  2.38877208E-12 -1.38487245E-12 -9.80189249E-02  2.79836164E-01  2.78024279E-12
 -1.62815984E-12 -8.09841867E-03  2.31203293E-02  2.48013030E-14 -1.78440946E-02
  2.07113683E-14 -4.69151706E-14  6.25014624E-03 -2.68351991E-15  2.24210351E-15
 -1.36729504E-14 -6.88341276E-02  1.96516838E-01 -7.96401216E-14 -1.76537680E-13
 -1.08361513E-01  3.09364965E-01  4.46236316E-13  2.20128981E-13 -9.80190066E-02
  2.79836167E-01  7.44709942E-13  4.55290798E-13 -8.09842469E-03  2.31203274E-02
 -6.77804597E-14  1.78441110E-02 -1.31294315E-13 -9.16035230E-14 -6.25015715E-03
 -2.40245778E-13  8.53285171E-13 -6.18062054E-12  1.65395326E-14 -5.39972655E-03
  1.54157314E-02 -8.64453810E-14  4.94662174E-13 -1.61977377E-12 -2.25721106E-14
 -5.39973545E-03  1.54157441E-02 -3.49667174E-14 -3.67225709E-14  1.94154457E-14
 -6.88279257E-02  1.96499713E-01 -2.02911966E-13  4.52897235E-13 -1.08349413E-01
  3.09331355E-01  2.38914800E-12 -1.38976996E-12 -9.80104520E-02  2.79812618E-01
  2.79749765E-12 -1.63056225E-12 -8.11431548E-03  2.31658120E-02  2.50691356E-14
 -1.80831941E-02  2.06131969E-14 -4.75780254E-14  6.33388357E-03  2.79026214E-15
 -2.07854583E-15  1.28956721E-14  6.88279659E-02 -1.96499665E-01  7.93205461E-14
  1.76210836E-13  1.08349481E-01 -3.09331292E-01 -4.48341268E-13 -2.22094030E-13
  9.80105139E-02 -2.79812563E-01 -7.49344039E-13 -4.53923488E-13  8.11431986E-03
 -2.31658053E-02  6.83882576E-14 -1.80832068E-02  1.31507199E-13  9.11498179E-14
  6.33389324E-03 -2.41088740E-13  8.60130630E-13 -6.20658640E-12  1.69394824E-14
 -5.44062105E-03  1.55325173E-02  8.71504456E-14 -4.95477050E-13  1.62650888E-12
  2.21584412E-14  5.44062888E-03 -1.55325268E-02  3.19418987E-14  4.03836326E-14
 -2.88235242E-14  1.99698020E-01  6.99486178E-02  7.41639062E-14 -2.81531527E-13
  3.22665484E-01  1.13020690E-01 -1.52620973E-12  8.14333281E-13  3.08184793E-01
  1.07947892E-01 -1.77879085E-12  1.00150102E-12  5.84195959E-02  2.04626472E-02
 -3.47346558E-14 -6.34289429E-03 -2.92805480E-15  1.49334601E-14 -1.81081482E-02
 -3.48729020E-13 -5.62359294E-13 -8.10783203E-13  1.68046752E-01  5.88621390E-02
  1.24392013E-12 -1.31709410E-12  2.71524422E-01  9.51075242E-02  4.63580789E-12
  4.75662053E-13  2.59338840E-01  9.08387290E-02  2.65769247E-12  8.80583416E-13
  4.91604724E-02  1.72194687E-02  1.21972237E-13  5.33758389E-03 -9.43131243E-14
  2.54044455E-14  1.52380968E-02  1.57294770E-13 -4.58738267E-13  3.82474972E-12
 -8.81721532E-15  1.76087048E-02  6.16778286E-03 -6.75002406E-13 -1.26627127E-12
 -5.61478484E-12  6.48617683E-14  1.48178137E-02  5.19022659E-03 -2.70321117E-14
 -3.42964431E-14  2.43307269E-14 -1.68046921E-01 -5.88619825E-02 -6.05608197E-14
  2.36513595E-13 -2.71524615E-01 -9.51072500E-02  1.28186622E-12 -6.83830756E-13
 -2.59339241E-01 -9.08385567E-02  1.49619846E-12 -8.41508784E-13 -4.91596905E-02
 -1.72191606E-02  2.96239870E-14  5.33756524E-03  2.42016605E-15 -1.24782637E-14
  1.52381030E-02 -4.14475219E-13 -6.68362840E-13 -9.63374257E-13  1.99698112E-01
  6.99485671E-02  1.47832939E-12 -1.56476076E-12  3.22665572E-01  1.13020593E-01
  5.51055611E-12  5.65234115E-13  3.08185094E-01  1.07947886E-01  3.15756737E-12
  1.04724402E-12  5.84189402E-02  2.04624176E-02  1.45195380E-13  6.34289427E-03
 -1.12104069E-13  2.96950469E-14  1.81081726E-02 -1.32761490E-13  3.86329746E-13
 -3.21645571E-12  7.57720668E-15 -1.48178160E-02 -5.19020941E-03 -8.02315422E-13
 -1.50430849E-12 -6.67436867E-12  7.69207496E-14  1.76087266E-02  6.16778403E-03
  2.56381586E-02  4.29502364E-02  4.90656307E-02  1.01136761E-14 -2.53322693E-15
 -1.25631036E-01  1.03710224E-01 -8.35686060E-14  9.10745248E-14 -5.16539718E-01
  1.24893595E-01  7.58312736E-14 -5.84901536E-14  9.55930077E-01 -3.76746267E-01
  3.51407963E-14 -3.24880102E-14  7.68436620E-03 -1.68689165E-14 -1.17373718E-03
 -1.03702427E-02  1.80765463E-14  2.55466409E-02  4.27969311E-02 -4.88903392E-02
  5.19142339E-14 -4.03814844E-16 -1.25182744E-01 -1.03339890E-01 -3.17398387E-14
  6.17365712E-14 -5.14695169E-01 -1.24447210E-01  2.73478352E-13 -4.59643136E-14
  9.52519472E-01  3.75403008E-01 -3.33666443E-13 -3.25490464E-14  7.65699510E-03
  1.04485464E-14 -1.16956328E-03 -1.03332906E-02 -7.33359645E-15 -5.40159303E-04
  1.31919429E-01 -9.02631166E-02 -4.39228676E-03  1.01078948E-13 -9.73310242E-14
 -5.38413734E-04  1.31448507E-01 -8.99433493E-02  4.37655991E-03 -8.27234322E-14
 -5.80475308E-14 -2.55471383E-02 -4.27968708E-02 -4.88928990E-02 -9.44904179E-15
  1.43111205E-15  1.25163510E-01 -1.03355281E-01  8.35421557E-14 -9.12103109E-14
  5.14849699E-01 -1.24453175E-01 -7.51945174E-14  5.71807219E-14 -9.52502609E-01
  3.75191000E-01 -3.77082197E-14  3.67833914E-14 -7.65000948E-03  1.65607740E-14
  1.16560533E-03  1.03311012E-02 -1.79334662E-14  2.56386169E-02  4.29501262E-02
 -4.90678257E-02  5.21323714E-14 -7.89062971E-16 -1.25611852E-01 -1.03725243E-01
 -3.19660728E-14  6.09019095E-14 -5.16692544E-01 -1.24898246E-01  2.73551145E-13
 -4.48504617E-14  9.55914989E-01  3.76536053E-01 -3.35091046E-13 -3.09604402E-14
  7.67746162E-03  1.06031015E-14 -1.16979503E-03 -1.03681603E-02 -7.06045349E-15
  5.27572082E-04 -1.31450908E-01  8.97134797E-02  4.37469405E-03 -1.00597118E-13
  9.69143591E-14 -5.29644481E-04  1.31921582E-01 -9.00371681E-02  4.39031049E-03
 -8.25712263E-14 -5.77955975E-14  1.88473887E-14  3.67478486E-14 -3.30669877E-13
 -8.14673721E-02 -2.85376223E-02 -1.97809843E-13 -2.52988256E-13 -9.16713086E-02
 -3.21117731E-02  5.52534886E-13 -1.82448031E-12 -2.91663184E-01 -1.02168154E-01
  3.17359302E-12  1.33870055E-12  7.97807148E-01  2.79469615E-01  1.56544562E-14
  2.33776206E-03 -2.33253939E-16 -6.97461272E-15  6.67356407E-03 -5.02911188E-13
 -8.54381191E-13 -3.46129222E-12 -8.11884067E-02 -2.84399256E-02  2.93529368E-12
 -3.00878908E-12 -9.13573954E-02 -3.20018380E-02  5.56074445E-12 -1.67153810E-11
 -2.90664507E-01 -1.01818406E-01 -2.86937760E-11  3.17510921E-11  7.95075310E-01
  2.78512889E-01  9.69611813E-14 -2.32976250E-03  6.31129709E-14 -3.25266329E-13
 -6.65072239E-03 -7.75550489E-14 -1.66997400E-14 -3.59060529E-12  7.67936808E-14
  2.69303389E-03  9.43418536E-04 -9.78624718E-14  1.49798483E-12  1.45220830E-11
  5.64972910E-13  2.68380010E-03  9.40184545E-04 -4.83531634E-14 -8.55078408E-14
  4.61763361E-13  8.11890858E-02  2.84401369E-02  3.36546515E-13  3.63851444E-13
  9.13609432E-02  3.20030503E-02  1.56004152E-14  2.39630557E-12  2.90659320E-01
  1.01816498E-01 -4.15463571E-12 -3.01839780E-12 -7.95076110E-01 -2.78512927E-01
 -6.69542375E-15 -2.32976192E-03  1.85461191E-15 -1.21945511E-14 -6.65072709E-03
 -5.07959512E-13 -8.62801635E-13 -3.48815389E-12 -8.14680270E-02 -2.85378723E-02
  2.96122363E-12 -3.03243247E-12 -9.16748248E-02 -3.21130273E-02  5.64282627E-12
 -1.68359089E-11 -2.91657991E-01 -1.02166412E-01 -2.89030369E-11  3.20474979E-11
  7.97807812E-01  2.79470066E-01  9.82413485E-14 -2.33777185E-03  6.34798589E-14
 -3.28500305E-13 -6.67358736E-03  4.67463521E-14  6.61347604E-14  3.52049650E-12
 -9.70110036E-14 -2.68374067E-03 -9.40163057E-04 -1.01492730E-13  1.50877700E-12
  1.45651976E-11  5.69239269E-13  2.69294901E-03  9.43389687E-04 -3.74901019E-13
 -6.29566523E-13  2.13260657E-12  2.62593495E-02 -7.49625170E-02  1.94356181E-12
  1.78457303E-12  2.48329684E-02 -7.08898378E-02  5.60459505E-12  9.86878153E-12
  9.89793416E-02 -2.82556315E-01 -1.69964213E-11 -2.18774864E-11 -2.80779836E-01
  8.01547266E-01  8.74406178E-14  5.87267024E-03  1.36129271E-14 -1.96679605E-13
 -2.05715464E-03 -5.64970294E-14 -9.21784968E-14 -1.55736698E-13  2.61797893E-02
 -7.47353346E-02  2.25380592E-13 -1.16414586E-13  2.47577191E-02 -7.06749677E-02
  1.52255503E-12 -4.53343501E-13  9.86795059E-02 -2.81700140E-01 -9.46196739E-13
  3.16485529E-12 -2.79929308E-01  7.99118586E-01  3.91005332E-14 -5.85487923E-03
  3.54680476E-14 -1.83586055E-14  2.05092427E-03 -2.23560473E-13  5.60113877E-13
  5.66108409E-12 -3.84888110E-13 -1.47450345E-03  4.20944948E-03 -8.98324094E-14
 -2.17901176E-14 -1.51913142E-12  4.03723363E-14 -1.47003446E-03  4.19668781E-03
  3.74633067E-13  6.29107059E-13 -2.13072714E-12 -2.61843311E-02  7.47483662E-02
 -1.94216454E-12 -1.78351514E-12 -2.47656991E-02  7.06978120E-02 -5.60076654E-12
 -9.85974934E-12 -9.86838214E-02  2.81712706E-01  1.69821450E-11  2.18576792E-11
  2.79928856E-01 -7.99117989E-01 -8.76030016E-14 -5.85710112E-03 -1.31441878E-14