 Entering Gaussian System, Link 0=g16
 Initial command:
 /home/szhao/Apps/g16/l1.exe "/home/szhao/tmp/Gau-151875.inp" -scrdir="/home/szhao/tmp/"
 Default is to use a total of  16 processors:
                               16 via shared-memory
                                1 via Linda
 Entering Link 1 = /home/szhao/Apps/g16/l1.exe PID=    151876.
  
 Copyright (c) 1988,1990,1992,1993,1995,1998,2003,2009,2016,
            Gaussian, Inc.  All Rights Reserved.
  
 This is part of the Gaussian(R) 16 program.  It is based on
 the Gaussian(R) 09 system (copyright 2009, Gaussian, Inc.),
 the Gaussian(R) 03 system (copyright 2003, Gaussian, Inc.),
 the Gaussian(R) 98 system (copyright 1998, Gaussian, Inc.),
 the Gaussian(R) 94 system (copyright 1995, Gaussian, Inc.),
 the Gaussian 92(TM) system (copyright 1992, Gaussian, Inc.),
 the Gaussian 90(TM) system (copyright 1990, Gaussian, Inc.),
 the Gaussian 88(TM) system (copyright 1988, Gaussian, Inc.),
 the Gaussian 86(TM) system (copyright 1986, Carnegie Mellon
 University), and the Gaussian 82(TM) system (copyright 1983,
 Carnegie Mellon University). Gaussian is a federally registered
 trademark of Gaussian, Inc.
  
 This software contains proprietary and confidential information,
 including trade secrets, belonging to Gaussian, Inc.
  
 This software is provided under written license and may be
 used, copied, transmitted, or stored only in accord with that
 written license.
  
 The following legend is applicable only to US Government
 contracts under FAR:
  
                    RESTRICTED RIGHTS LEGEND
  
 Use, reproduction and disclosure by the US Government is
 subject to restrictions as set forth in subparagraphs (a)
 and (c) of the Commercial Computer Software - Restricted
 Rights clause in FAR 52.227-19.
  
 Gaussian, Inc.
 340 Quinnipiac St., Bldg. 40, Wallingford CT 06492
  
  
 ---------------------------------------------------------------
 Warning -- This program may not be used in any manner that
 competes with the business of Gaussian, Inc. or will provide
 assistance to any competitor of Gaussian, Inc.  The licensee
 of this program is prohibited from giving any competitor of
 Gaussian, Inc. access to this program.  By using this program,
 the user acknowledges that Gaussian, Inc. is engaged in the
 business of creating and licensing software in the field of
 computational chemistry and represents and warrants to the
 licensee that it is not a competitor of Gaussian, Inc. and that
 it will not use this program in any manner prohibited above.
 ---------------------------------------------------------------
  

 Cite this work as:
 Gaussian 16, Revision A.03,
 M. J. Frisch, G. W. Trucks, H. B. Schlegel, G. E. Scuseria, 
 M. A. Robb, J. R. Cheeseman, G. Scalmani, V. Barone, 
 G. A. Petersson, H. Nakatsuji, X. Li, M. Caricato, A. V. Marenich, 
 J. Bloino, B. G. Janesko, R. Gomperts, B. Mennucci, H. P. Hratchian, 
 J. V. Ortiz, A. F. Izmaylov, J. L. Sonnenberg, D. Williams-Young, 
 F. Ding, F. Lipparini, F. Egidi, J. Goings, B. Peng, A. Petrone, 
 T. Henderson, D. Ranasinghe, V. G. Zakrzewski, J. Gao, N. Rega, 
 G. Zheng, W. Liang, M. Hada, M. Ehara, K. Toyota, R. Fukuda, 
 J. Hasegawa, M. Ishida, T. Nakajima, Y. Honda, O. Kitao, H. Nakai, 
 T. Vreven, K. Throssell, J. A. Montgomery, Jr., J. E. Peralta, 
 F. Ogliaro, M. J. Bearpark, J. J. Heyd, E. N. Brothers, K. N. Kudin, 
 V. N. Staroverov, T. A. Keith, R. Kobayashi, J. Normand, 
 K. Raghavachari, A. P. Rendell, J. C. Burant, S. S. Iyengar, 
 J. Tomasi, M. Cossi, J. M. Millam, M. Klene, C. Adamo, R. Cammi, 
 J. W. Ochterski, R. L. Martin, K. Morokuma, O. Farkas, 
 J. B. Foresman, and D. J. Fox, Gaussian, Inc., Wallingford CT, 2016.
 
 ******************************************
 Gaussian 16:  ES64L-G16RevA.03 25-Dec-2016
                21-Apr-2025 
 ******************************************
 %chk=opt.chk
 %mem=4GB
 %nprocshared=8
 Will use up to    8 processors via shared memory.
 --------------------------------------------
 #p opt UM062X/6-311+G** nosymm int=superfine
 --------------------------------------------
 1/18=20,19=15,26=5,38=1/1,3;
 2/9=110,12=2,15=1,17=6,18=5,40=1/2;
 3/5=4,6=6,7=111,11=2,25=1,30=1,71=1,74=-55,75=-7,116=2/1,2,3;
 4//1;
 5/5=2,38=5/2;
 6/7=2,8=2,9=2,10=2,28=1/1;
 7/30=1/1,2,3,16;
 1/18=20,19=15,26=5/3(2);
 2/9=110,15=1/2;
 99//99;
 2/9=110,15=1/2;
 3/5=4,6=6,7=111,11=2,25=1,30=1,71=1,74=-55,75=-7,116=2/1,2,3;
 4/5=5,16=3,69=1/1;
 5/5=2,38=5/2;
 7/30=1/1,2,3,16;
 1/18=20,19=15,26=5/3(-5);
 2/9=110,15=1/2;
 6/7=2,8=2,9=2,10=2,19=2,28=1/1;
 99/9=1/99;
 Leave Link    1 at Mon Apr 21 18:40:44 2025, MaxMem=   536870912 cpu:               3.2 elap:               0.4
 (Enter /home/szhao/Apps/g16/l101.exe)
 -------------------
 Title Card Required
 -------------------
 Symbolic Z-matrix:
 Charge =  0 Multiplicity = 1
 C                    -1   -1.3822    0.        0. 
 O                    -1    1.3822    0.        0. 
 H                    0     1.69239  -0.90717   0. 
 H                    0    -1.79314  -0.48457   0.89177 
 H                    0    -1.69812   1.0422   -0.00092 
 H                    0    -1.79253  -0.48604  -0.89118 
 
 Add virtual bond connecting atoms O2         and C1         Dist= 5.22D+00.
 ITRead=  2  2  0  0  0  0
 MicOpt= -2 -2 -1 -1 -1 -1
 NAtoms=      6 NQM=        4 NQMF=       2 NMMI=      0 NMMIF=      0
                NMic=       0 NMicF=      0.
                    Isotopes and Nuclear Properties:
 (Nuclear quadrupole moments (NQMom) in fm**2, nuclear magnetic moments (NMagM)
  in nuclear magnetons)

  Atom         1           2           3           4           5           6
 IAtWgt=          12          16           1           1           1           1
 AtmWgt=  12.0000000  15.9949146   1.0078250   1.0078250   1.0078250   1.0078250
 NucSpn=           0           0           1           1           1           1
 AtZEff=  -0.0000000  -0.0000000  -0.0000000  -0.0000000  -0.0000000  -0.0000000
 NQMom=    0.0000000   0.0000000   0.0000000   0.0000000   0.0000000   0.0000000
 NMagM=    0.0000000   0.0000000   2.7928460   2.7928460   2.7928460   2.7928460
 AtZNuc=   6.0000000   8.0000000   1.0000000   1.0000000   1.0000000   1.0000000
 Leave Link  101 at Mon Apr 21 18:40:44 2025, MaxMem=   536870912 cpu:               2.4 elap:               0.3
 (Enter /home/szhao/Apps/g16/l103.exe)

 GradGradGradGradGradGradGradGradGradGradGradGradGradGradGradGradGradGrad
 Berny optimization.
 Initialization pass.
                           ----------------------------
                           !    Initial Parameters    !
                           ! (Angstroms and Degrees)  !
 --------------------------                            --------------------------
 ! Name  Definition              Value          Derivative Info.                !
 --------------------------------------------------------------------------------
 ! X1    R(1,-1)                -1.3822         Frozen                          !
 ! Y1    R(1,-2)                 0.0            Frozen                          !
 ! Z1    R(1,-3)                 0.0            Frozen                          !
 ! X2    R(2,-1)                 1.3822         Frozen                          !
 ! Y2    R(2,-2)                 0.0            Frozen                          !
 ! Z2    R(2,-3)                 0.0            Frozen                          !
 ! R1    R(1,4)                  1.095          estimate D2E/DX2                !
 ! R2    R(1,5)                  1.089          estimate D2E/DX2                !
 ! R3    R(1,6)                  1.0949         estimate D2E/DX2                !
 ! R4    R(2,3)                  0.9587         estimate D2E/DX2                !
 ! A1    A(2,1,4)              112.043          estimate D2E/DX2                !
 ! A2    A(2,1,5)              106.8632         estimate D2E/DX2                !
 ! A3    A(2,1,6)              112.0097         estimate D2E/DX2                !
 ! A4    A(4,1,5)              108.381          estimate D2E/DX2                !
 ! A5    A(4,1,6)              109.0137         estimate D2E/DX2                !
 ! A6    A(5,1,6)              108.3865         estimate D2E/DX2                !
 ! A7    A(1,2,3)              108.8771         estimate D2E/DX2                !
 ! D1    D(4,1,2,3)             61.4811         estimate D2E/DX2                !
 ! D2    D(5,1,2,3)           -179.9495         estimate D2E/DX2                !
 ! D3    D(6,1,2,3)            -61.3923         estimate D2E/DX2                !
 --------------------------------------------------------------------------------
 Trust Radius=3.00D-01 FncErr=1.00D-07 GrdErr=1.00D-07 EigMax=2.50D+02 EigMin=1.00D-04
 Number of steps in this run=     30 maximum allowed number of steps=    100.
 GradGradGradGradGradGradGradGradGradGradGradGradGradGradGradGradGradGrad

 Leave Link  103 at Mon Apr 21 18:40:45 2025, MaxMem=   536870912 cpu:               0.3 elap:               0.4
 (Enter /home/szhao/Apps/g16/l202.exe)
                          Input orientation:                          
 ---------------------------------------------------------------------
 Center     Atomic      Atomic             Coordinates (Angstroms)
 Number     Number       Type             X           Y           Z
 ---------------------------------------------------------------------
      1          6           0       -1.382203    0.000000    0.000000
      2          8           0        1.382203    0.000000    0.000000
      3          1           0        1.692391   -0.907170    0.000000
      4          1           0       -1.793141   -0.484570    0.891766
      5          1           0       -1.698117    1.042202   -0.000918
      6          1           0       -1.792532   -0.486043   -0.891183
 ---------------------------------------------------------------------
                    Distance matrix (angstroms):
                    1          2          3          4          5
     1  C    0.000000
     2  O    2.764405   0.000000
     3  H    3.205633   0.958736   0.000000
     4  H    1.094954   3.333596   3.622536   0.000000
     5  H    1.089031   3.251854   3.910959   1.771143   0.000000
     6  H    1.094904   3.333075   3.621635   1.782949   1.771164
                    6
     6  H    0.000000
 Symmetry turned off by external request.
 Stoichiometry    CH4O
 Framework group  C1[X(CH4O)]
 Deg. of freedom    12
 Full point group                 C1      NOp   1
 Rotational constants (GHZ):         128.2127672           7.5114468           7.4299551
 Leave Link  202 at Mon Apr 21 18:40:45 2025, MaxMem=   536870912 cpu:               0.1 elap:               0.1
 (Enter /home/szhao/Apps/g16/l301.exe)
 Standard basis: 6-311+G(d,p) (5D, 7F)
 Ernie: Thresh=  0.10000D-02 Tol=  0.10000D-05 Strict=F.
    68 basis functions,   104 primitive gaussians,    70 cartesian basis functions
     9 alpha electrons        9 beta electrons
       nuclear repulsion energy        28.4733226298 Hartrees.
 IExCor= 4336 DFT=T Ex+Corr=M062X ExCW=0 ScaHFX=  0.540000
 ScaDFX=  1.000000  1.000000  1.000000  1.000000 ScalE2=  1.000000  1.000000
 IRadAn=      7 IRanWt=     -1 IRanGd=            0 ICorTp=0 IEmpDi=  4
 NAtoms=    6 NActive=    6 NUniq=    6 SFac= 1.00D+00 NAtFMM=   60 NAOKFM=F Big=F
 Integral buffers will be    131072 words long.
 Raffenetti 2 integral format.
 Two-electron integral symmetry is turned off.
 Leave Link  301 at Mon Apr 21 18:40:46 2025, MaxMem=   536870912 cpu:               0.5 elap:               0.1
 (Enter /home/szhao/Apps/g16/l302.exe)
 NPDir=0 NMtPBC=     1 NCelOv=     1 NCel=       1 NClECP=     1 NCelD=      1
         NCelK=      1 NCelE2=     1 NClLst=     1 CellRange=     0.0.
 One-electron integrals computed using PRISM.
 NBasis=    68 RedAO= T EigKep=  5.67D-03  NBF=    68
 NBsUse=    68 1.00D-06 EigRej= -1.00D+00 NBFU=    68
 Precomputing XC quadrature grid using
 IXCGrd= 4 IRadAn=           7 IRanWt=          -1 IRanGd=           0 AccXCQ= 0.00D+00.
 Generated NRdTot=       0 NPtTot=           0 NUsed=           0 NTot=          32
 NSgBfM=    70    70    70    70    70 MxSgAt=     6 MxSgA2=     6.
 Leave Link  302 at Mon Apr 21 18:40:46 2025, MaxMem=   536870912 cpu:               1.6 elap:               0.2
 (Enter /home/szhao/Apps/g16/l303.exe)
 DipDrv:  MaxL=1.
 Leave Link  303 at Mon Apr 21 18:40:46 2025, MaxMem=   536870912 cpu:               0.4 elap:               0.1
 (Enter /home/szhao/Apps/g16/l401.exe)
 ExpMin= 4.38D-02 ExpMax= 8.59D+03 ExpMxC= 1.30D+03 IAcc=3 IRadAn=         7 AccDes= 0.00D+00
 Harris functional with IExCor= 1009 and IRadAn=       7 diagonalized for initial guess.
 HarFok:  IExCor= 1009 AccDes= 0.00D+00 IRadAn=         7 IDoV= 1 UseB2=F ITyADJ=14
 ICtDFT=  3500011 ScaDFX=  1.000000  1.000000  1.000000  1.000000
 FoFCou: FMM=F IPFlag=           0 FMFlag=      100000 FMFlg1=           0
         NFxFlg=           0 DoJE=T BraDBF=F KetDBF=T FulRan=T
         wScrn=  0.000000 ICntrl=       500 IOpCl=  0 I1Cent=   200000004 NGrid=           0
         NMat0=    1 NMatS0=      1 NMatT0=    0 NMatD0=    1 NMtDS0=    0 NMtDT0=    0
 Symmetry not used in FoFCou.
 Harris En= -115.526692642074    
 JPrj=0 DoOrth=F DoCkMO=F.
 Initial guess <Sx>= 0.0000 <Sy>= 0.0000 <Sz>= 0.0000 <S**2>=-0.0000 S=-0.0000
 Leave Link  401 at Mon Apr 21 18:40:47 2025, MaxMem=   536870912 cpu:               3.3 elap:               0.5
 (Enter /home/szhao/Apps/g16/l502.exe)
 Keep R1 and R2 ints in memory in canonical form, NReq=12681626.
 FoFCou: FMM=F IPFlag=           0 FMFlag=           0 FMFlg1=           0
         NFxFlg=           0 DoJE=F BraDBF=F KetDBF=F FulRan=T
         wScrn=  0.000000 ICntrl=       600 IOpCl=  0 I1Cent=           0 NGrid=           0
         NMat0=    1 NMatS0=   2346 NMatT0=    0 NMatD0=    1 NMtDS0=    0 NMtDT0=    0
 Symmetry not used in FoFCou.
 Two-electron integral symmetry not used.
 UHF open shell SCF:
 Using DIIS extrapolation, IDIIS=  1040.
 NGot=   536870912 LenX=   531353782 LenY=   531348441
 Requested convergence on RMS density matrix=1.00D-08 within 128 cycles.
 Requested convergence on MAX density matrix=1.00D-06.
 Requested convergence on             energy=1.00D-06.
 No special actions if energy rises.

 Cycle   1  Pass 1  IDiag  1:
 E= -115.301673411007    
 DIIS: error= 7.20D-02 at cycle   1 NSaved=   1.
 NSaved= 1 IEnMin= 1 EnMin= -115.301673411007     IErMin= 1 ErrMin= 7.20D-02
 ErrMax= 7.20D-02  0.00D+00 EMaxC= 1.00D-01 BMatC= 8.77D-01 BMatP= 8.77D-01
 IDIUse=3 WtCom= 2.80D-01 WtEn= 7.20D-01
 Coeff-Com:  0.100D+01
 Coeff-En:   0.100D+01
 Coeff:      0.100D+01
 Gap=    -0.195 Goal=   None    Shift=    0.000
 Gap=    -0.195 Goal=   None    Shift=    0.000
 GapD=   -0.195 DampG=0.250 DampE=0.500 DampFc=0.2500 IDamp=-1.
 Damping current iteration by 2.50D-01
 RMSDP=5.92D-02 MaxDP=2.89D+00              OVMax= 9.62D-01

 Cycle   2  Pass 1  IDiag  1:
 E= -115.218943617005     Delta-E=        0.082729794002 Rises=F Damp=T
 DIIS: error= 1.96D-02 at cycle   2 NSaved=   2.
 NSaved= 2 IEnMin= 1 EnMin= -115.301673411007     IErMin= 2 ErrMin= 1.96D-02
 ErrMax= 1.96D-02  0.00D+00 EMaxC= 1.00D-01 BMatC= 1.08D-01 BMatP= 8.77D-01
 IDIUse=3 WtCom= 8.04D-01 WtEn= 1.96D-01
 Coeff-Com:  0.856D-01 0.914D+00
 Coeff-En:   0.654D+00 0.346D+00
 Coeff:      0.197D+00 0.803D+00
 Gap=    -0.256 Goal=   None    Shift=    0.000
 Gap=    -0.256 Goal=   None    Shift=    0.000
 RMSDP=1.47D-02 MaxDP=7.23D-01 DE= 8.27D-02 OVMax= 1.00D+00

 Cycle   3  Pass 1  IDiag  1:
 E= -115.425317740179     Delta-E=       -0.206374123174 Rises=F Damp=F
 DIIS: error= 3.18D-02 at cycle   3 NSaved=   3.
 NSaved= 3 IEnMin= 3 EnMin= -115.425317740179     IErMin= 2 ErrMin= 1.96D-02
 ErrMax= 3.18D-02  0.00D+00 EMaxC= 1.00D-01 BMatC= 1.64D-01 BMatP= 1.08D-01
 IDIUse=2 WtCom= 0.00D+00 WtEn= 1.00D+00
 Coeff-En:   0.000D+00 0.000D+00 0.100D+01
 Coeff:      0.000D+00 0.000D+00 0.100D+01
 Gap=    -0.064 Goal=   None    Shift=    0.000
 Gap=    -0.064 Goal=   None    Shift=    0.000
 RMSDP=8.73D-03 MaxDP=1.35D-01 DE=-2.06D-01 OVMax= 5.89D-01

 Cycle   4  Pass 1  IDiag  1:
 E= -114.752503942956     Delta-E=        0.672813797223 Rises=F Damp=F
 DIIS: error= 1.14D-01 at cycle   4 NSaved=   4.
 NSaved= 4 IEnMin= 3 EnMin= -115.425317740179     IErMin= 2 ErrMin= 1.96D-02
 ErrMax= 1.14D-01  0.00D+00 EMaxC= 1.00D-01 BMatC= 2.52D+00 BMatP= 1.08D-01
 IDIUse=2 WtCom= 0.00D+00 WtEn= 1.00D+00
 Coeff-En:   0.000D+00 0.000D+00 0.845D+00 0.155D+00
 Coeff:      0.000D+00 0.000D+00 0.845D+00 0.155D+00
 Gap=     0.099 Goal=   None    Shift=    0.000
 Gap=     0.099 Goal=   None    Shift=    0.000
 RMSDP=4.88D-03 MaxDP=7.59D-02 DE= 6.73D-01 OVMax= 4.02D-01

 Cycle   5  Pass 1  IDiag  1:
 E= -115.422894795703     Delta-E=       -0.670390852747 Rises=F Damp=F
 DIIS: error= 4.43D-02 at cycle   5 NSaved=   5.
 NSaved= 5 IEnMin= 3 EnMin= -115.425317740179     IErMin= 2 ErrMin= 1.96D-02
 ErrMax= 4.43D-02  0.00D+00 EMaxC= 1.00D-01 BMatC= 3.23D-01 BMatP= 1.08D-01
 IDIUse=2 WtCom= 0.00D+00 WtEn= 1.00D+00
 Coeff-En:   0.000D+00 0.000D+00 0.506D+00 0.000D+00 0.494D+00
 Coeff:      0.000D+00 0.000D+00 0.506D+00 0.000D+00 0.494D+00
 Gap=     0.186 Goal=   None    Shift=    0.000
 Gap=     0.186 Goal=   None    Shift=    0.000
 RMSDP=2.63D-03 MaxDP=4.35D-02 DE=-6.70D-01 OVMax= 2.32D-01

 Cycle   6  Pass 1  IDiag  1:
 E= -115.497772694964     Delta-E=       -0.074877899261 Rises=F Damp=F
 DIIS: error= 9.42D-03 at cycle   6 NSaved=   6.
 NSaved= 6 IEnMin= 6 EnMin= -115.497772694964     IErMin= 6 ErrMin= 9.42D-03
 ErrMax= 9.42D-03  0.00D+00 EMaxC= 1.00D-01 BMatC= 1.65D-02 BMatP= 1.08D-01
 IDIUse=3 WtCom= 9.06D-01 WtEn= 9.42D-02
 Coeff-Com: -0.486D-01 0.552D-01 0.110D+00-0.400D-01 0.247D+00 0.676D+00
 Coeff-En:   0.000D+00 0.000D+00 0.000D+00 0.000D+00 0.943D-01 0.906D+00
 Coeff:     -0.440D-01 0.500D-01 0.995D-01-0.362D-01 0.233D+00 0.698D+00
 Gap=     0.176 Goal=   None    Shift=    0.000
 Gap=     0.176 Goal=   None    Shift=    0.000
 RMSDP=7.13D-04 MaxDP=1.35D-02 DE=-7.49D-02 OVMax= 6.47D-02

 Cycle   7  Pass 1  IDiag  1:
 E= -115.501881724678     Delta-E=       -0.004109029714 Rises=F Damp=F
 DIIS: error= 3.40D-03 at cycle   7 NSaved=   7.
 NSaved= 7 IEnMin= 7 EnMin= -115.501881724678     IErMin= 7 ErrMin= 3.40D-03
 ErrMax= 3.40D-03  0.00D+00 EMaxC= 1.00D-01 BMatC= 2.96D-03 BMatP= 1.65D-02
 IDIUse=3 WtCom= 9.66D-01 WtEn= 3.40D-02
 Coeff-Com: -0.186D-01 0.275D-01 0.418D-01-0.229D-01 0.355D-01 0.206D+00
 Coeff-Com:  0.731D+00
 Coeff-En:   0.000D+00 0.000D+00 0.000D+00 0.000D+00 0.000D+00 0.135D+00
 Coeff-En:   0.865D+00
 Coeff:     -0.180D-01 0.265D-01 0.404D-01-0.221D-01 0.343D-01 0.204D+00
 Coeff:      0.735D+00
 Gap=     0.181 Goal=   None    Shift=    0.000
 Gap=     0.181 Goal=   None    Shift=    0.000
 RMSDP=1.22D-04 MaxDP=2.98D-03 DE=-4.11D-03 OVMax= 3.70D-03

 Cycle   8  Pass 1  IDiag  1:
 E= -115.502355299492     Delta-E=       -0.000473574814 Rises=F Damp=F
 DIIS: error= 2.04D-03 at cycle   8 NSaved=   8.
 NSaved= 8 IEnMin= 8 EnMin= -115.502355299492     IErMin= 8 ErrMin= 2.04D-03
 ErrMax= 2.04D-03  0.00D+00 EMaxC= 1.00D-01 BMatC= 8.88D-04 BMatP= 2.96D-03
 IDIUse=3 WtCom= 9.80D-01 WtEn= 2.04D-02
 Coeff-Com:  0.612D-02-0.136D-02 0.550D-02-0.278D-02-0.213D-01 0.816D-03
 Coeff-Com: -0.284D+00 0.130D+01
 Coeff-En:   0.000D+00 0.000D+00 0.000D+00 0.000D+00 0.000D+00 0.000D+00
 Coeff-En:   0.000D+00 0.100D+01
 Coeff:      0.600D-02-0.134D-02 0.539D-02-0.273D-02-0.209D-01 0.799D-03
 Coeff:     -0.278D+00 0.129D+01
 Gap=     0.183 Goal=   None    Shift=    0.000
 Gap=     0.183 Goal=   None    Shift=    0.000
 RMSDP=9.62D-05 MaxDP=1.31D-03 DE=-4.74D-04 OVMax= 3.40D-03

 Cycle   9  Pass 1  IDiag  1:
 E= -115.502518732590     Delta-E=       -0.000163433097 Rises=F Damp=F
 DIIS: error= 8.95D-04 at cycle   9 NSaved=   9.
 NSaved= 9 IEnMin= 9 EnMin= -115.502518732590     IErMin= 9 ErrMin= 8.95D-04
 ErrMax= 8.95D-04  0.00D+00 EMaxC= 1.00D-01 BMatC= 1.54D-04 BMatP= 8.88D-04
 IDIUse=3 WtCom= 9.91D-01 WtEn= 8.95D-03
 Coeff-Com: -0.173D-02 0.252D-02 0.596D-02-0.439D-03-0.632D-02 0.273D-01
 Coeff-Com:  0.355D-01-0.310D+00 0.125D+01
 Coeff-En:   0.000D+00 0.000D+00 0.000D+00 0.000D+00 0.000D+00 0.000D+00
 Coeff-En:   0.000D+00 0.000D+00 0.100D+01
 Coeff:     -0.171D-02 0.250D-02 0.591D-02-0.435D-03-0.627D-02 0.271D-01
 Coeff:      0.351D-01-0.307D+00 0.124D+01
 Gap=     0.184 Goal=   None    Shift=    0.000
 Gap=     0.184 Goal=   None    Shift=    0.000
 RMSDP=5.54D-05 MaxDP=8.14D-04 DE=-1.63D-04 OVMax= 4.23D-03

 Cycle  10  Pass 1  IDiag  1:
 E= -115.502555933747     Delta-E=       -0.000037201157 Rises=F Damp=F
 DIIS: error= 1.24D-04 at cycle  10 NSaved=  10.
 NSaved=10 IEnMin=10 EnMin= -115.502555933747     IErMin=10 ErrMin= 1.24D-04
 ErrMax= 1.24D-04  0.00D+00 EMaxC= 1.00D-01 BMatC= 1.74D-06 BMatP= 1.54D-04
 IDIUse=3 WtCom= 9.99D-01 WtEn= 1.24D-03
 Coeff-Com: -0.433D-03 0.435D-03 0.892D-03-0.279D-03 0.191D-02-0.276D-02
 Coeff-Com: -0.146D-01-0.585D-01 0.194D+00 0.879D+00
 Coeff-En:   0.000D+00 0.000D+00 0.000D+00 0.000D+00 0.000D+00 0.000D+00
 Coeff-En:   0.000D+00 0.000D+00 0.000D+00 0.100D+01
 Coeff:     -0.433D-03 0.434D-03 0.891D-03-0.278D-03 0.191D-02-0.276D-02
 Coeff:     -0.146D-01-0.584D-01 0.194D+00 0.880D+00
 Gap=     0.184 Goal=   None    Shift=    0.000
 Gap=     0.184 Goal=   None    Shift=    0.000
 RMSDP=1.01D-05 MaxDP=1.78D-04 DE=-3.72D-05 OVMax= 9.03D-04

 Cycle  11  Pass 1  IDiag  1:
 E= -115.502556756843     Delta-E=       -0.000000823096 Rises=F Damp=F
 DIIS: error= 1.51D-05 at cycle  11 NSaved=  11.
 NSaved=11 IEnMin=11 EnMin= -115.502556756843     IErMin=11 ErrMin= 1.51D-05
 ErrMax= 1.51D-05  0.00D+00 EMaxC= 1.00D-01 BMatC= 5.16D-08 BMatP= 1.74D-06
 IDIUse=1 WtCom= 1.00D+00 WtEn= 0.00D+00
 Coeff-Com: -0.170D-04 0.278D-04-0.420D-04-0.190D-04 0.206D-03 0.105D-02
 Coeff-Com: -0.110D-02 0.222D-02-0.325D-01-0.147D+00 0.118D+01
 Coeff:     -0.170D-04 0.278D-04-0.420D-04-0.190D-04 0.206D-03 0.105D-02
 Coeff:     -0.110D-02 0.222D-02-0.325D-01-0.147D+00 0.118D+01
 Gap=     0.184 Goal=   None    Shift=    0.000
 Gap=     0.184 Goal=   None    Shift=    0.000
 RMSDP=1.37D-06 MaxDP=2.23D-05 DE=-8.23D-07 OVMax= 5.02D-05

 Cycle  12  Pass 1  IDiag  1:
 E= -115.502556771651     Delta-E=       -0.000000014808 Rises=F Damp=F
 DIIS: error= 1.53D-06 at cycle  12 NSaved=  12.
 NSaved=12 IEnMin=12 EnMin= -115.502556771651     IErMin=12 ErrMin= 1.53D-06
 ErrMax= 1.53D-06  0.00D+00 EMaxC= 1.00D-01 BMatC= 3.57D-10 BMatP= 5.16D-08
 IDIUse=1 WtCom= 1.00D+00 WtEn= 0.00D+00
 Coeff-Com:  0.252D-04-0.264D-04-0.277D-05 0.958D-05-0.961D-04-0.836D-04
 Coeff-Com:  0.566D-03 0.151D-02-0.342D-03-0.105D-01-0.205D+00 0.121D+01
 Coeff:      0.252D-04-0.264D-04-0.277D-05 0.958D-05-0.961D-04-0.836D-04
 Coeff:      0.566D-03 0.151D-02-0.342D-03-0.105D-01-0.205D+00 0.121D+01
 Gap=     0.184 Goal=   None    Shift=    0.000
 Gap=     0.184 Goal=   None    Shift=    0.000
 RMSDP=3.15D-07 MaxDP=3.22D-06 DE=-1.48D-08 OVMax= 2.08D-05

 Cycle  13  Pass 1  IDiag  1:
 E= -115.502556771948     Delta-E=       -0.000000000297 Rises=F Damp=F
 DIIS: error= 1.86D-06 at cycle  13 NSaved=  13.
 NSaved=13 IEnMin=13 EnMin= -115.502556771948     IErMin=12 ErrMin= 1.53D-06
 ErrMax= 1.86D-06  0.00D+00 EMaxC= 1.00D-01 BMatC= 3.49D-10 BMatP= 3.57D-10
 IDIUse=1 WtCom= 1.00D+00 WtEn= 0.00D+00
 Coeff-Com:  0.804D-05-0.100D-04 0.552D-05 0.471D-05-0.459D-04-0.119D-03
 Coeff-Com:  0.241D-03 0.496D-03 0.101D-02 0.163D-01-0.133D+00-0.237D-01
 Coeff-Com:  0.114D+01
 Coeff:      0.804D-05-0.100D-04 0.552D-05 0.471D-05-0.459D-04-0.119D-03
 Coeff:      0.241D-03 0.496D-03 0.101D-02 0.163D-01-0.133D+00-0.237D-01
 Coeff:      0.114D+01
 Gap=     0.184 Goal=   None    Shift=    0.000
 Gap=     0.184 Goal=   None    Shift=    0.000
 RMSDP=1.16D-07 MaxDP=1.65D-06 DE=-2.97D-10 OVMax= 9.07D-06

 Cycle  14  Pass 1  IDiag  1:
 E= -115.502556772084     Delta-E=       -0.000000000135 Rises=F Damp=F
 DIIS: error= 4.61D-07 at cycle  14 NSaved=  14.
 NSaved=14 IEnMin=14 EnMin= -115.502556772084     IErMin=14 ErrMin= 4.61D-07
 ErrMax= 4.61D-07  0.00D+00 EMaxC= 1.00D-01 BMatC= 2.04D-11 BMatP= 3.49D-10
 IDIUse=1 WtCom= 1.00D+00 WtEn= 0.00D+00
 Coeff-Com: -0.259D-06 0.544D-07-0.173D-06-0.206D-06 0.112D-05 0.121D-04
 Coeff-Com: -0.258D-04 0.263D-04-0.431D-03 0.446D-03 0.219D-01-0.542D-01
 Coeff-Com: -0.634D-01 0.110D+01
 Coeff:     -0.259D-06 0.544D-07-0.173D-06-0.206D-06 0.112D-05 0.121D-04
 Coeff:     -0.258D-04 0.263D-04-0.431D-03 0.446D-03 0.219D-01-0.542D-01
 Coeff:     -0.634D-01 0.110D+01
 Gap=     0.184 Goal=   None    Shift=    0.000
 Gap=     0.184 Goal=   None    Shift=    0.000
 RMSDP=3.25D-08 MaxDP=5.70D-07 DE=-1.35D-10 OVMax= 2.79D-06

 Cycle  15  Pass 1  IDiag  1:
 E= -115.502556772092     Delta-E=       -0.000000000009 Rises=F Damp=F
 DIIS: error= 9.14D-09 at cycle  15 NSaved=  15.
 NSaved=15 IEnMin=15 EnMin= -115.502556772092     IErMin=15 ErrMin= 9.14D-09
 ErrMax= 9.14D-09  0.00D+00 EMaxC= 1.00D-01 BMatC= 2.16D-14 BMatP= 2.04D-11
 IDIUse=1 WtCom= 1.00D+00 WtEn= 0.00D+00
 Coeff-Com:  0.304D-07-0.160D-07-0.418D-06-0.835D-07 0.102D-05 0.141D-05
 Coeff-Com: -0.513D-05-0.372D-05-0.426D-04-0.391D-03 0.266D-02-0.127D-02
 Coeff-Com: -0.306D-01 0.146D-01 0.102D+01
 Coeff:      0.304D-07-0.160D-07-0.418D-06-0.835D-07 0.102D-05 0.141D-05
 Coeff:     -0.513D-05-0.372D-05-0.426D-04-0.391D-03 0.266D-02-0.127D-02
 Coeff:     -0.306D-01 0.146D-01 0.102D+01
 Gap=     0.184 Goal=   None    Shift=    0.000
 Gap=     0.184 Goal=   None    Shift=    0.000
 RMSDP=2.61D-09 MaxDP=2.58D-08 DE=-8.81D-12 OVMax= 1.51D-07

 SCF Done:  E(UM062X) =  -115.502556772     A.U. after   15 cycles
            NFock= 15  Conv=0.26D-08     -V/T= 2.0057
 <Sx>= 0.0000 <Sy>= 0.0000 <Sz>= 0.0000 <S**2>=-0.0000 S=-0.0000
 <L.S>=  0.00000000000    
 KE= 1.148486709886D+02 PE=-3.280975054362D+02 EE= 6.927295504571D+01
 Annihilation of the first spin contaminant:
 S**2 before annihilation    -0.0000,   after    -0.0000
 Leave Link  502 at Mon Apr 21 18:40:57 2025, MaxMem=   536870912 cpu:              73.7 elap:               9.7
 (Enter /home/szhao/Apps/g16/l601.exe)
 Copying SCF densities to generalized density rwf, IOpCl= 1 IROHF=0.

 **********************************************************************

            Population analysis using the SCF density.

 **********************************************************************

 Alpha  occ. eigenvalues --  -19.61695 -10.65050  -1.03818  -0.82618  -0.52221
 Alpha  occ. eigenvalues --   -0.52140  -0.48106  -0.34962  -0.32691
 Alpha virt. eigenvalues --   -0.14313   0.00809   0.04864   0.05402   0.06843
 Alpha virt. eigenvalues --    0.14214   0.15672   0.15956   0.20706   0.22835
 Alpha virt. eigenvalues --    0.23386   0.24020   0.30937   0.41169   0.41394
 Alpha virt. eigenvalues --    0.50238   0.57570   0.60506   0.60874   0.62573
 Alpha virt. eigenvalues --    0.80277   1.01923   1.03048   1.08054   1.11837
 Alpha virt. eigenvalues --    1.12519   1.33398   1.43388   1.45477   1.46499
 Alpha virt. eigenvalues --    1.48862   1.52474   1.53414   1.66460   1.66698
 Alpha virt. eigenvalues --    1.97014   2.11947   2.14215   2.14629   2.34327
 Alpha virt. eigenvalues --    2.43795   2.44614   2.49128   2.49695   2.52050
 Alpha virt. eigenvalues --    2.68988   2.87445   2.94374   3.00343   3.23176
 Alpha virt. eigenvalues --    3.24634   3.70081   3.70155   3.90666   5.10036
 Alpha virt. eigenvalues --    5.10349   5.59982  23.87985  49.94338
  Beta  occ. eigenvalues --  -19.61695 -10.65050  -1.03818  -0.82618  -0.52221
  Beta  occ. eigenvalues --   -0.52140  -0.48106  -0.34962  -0.32691
  Beta virt. eigenvalues --   -0.14313   0.00809   0.04864   0.05402   0.06843
  Beta virt. eigenvalues --    0.14214   0.15672   0.15956   0.20706   0.22835
  Beta virt. eigenvalues --    0.23386   0.24020   0.30937   0.41169   0.41394
  Beta virt. eigenvalues --    0.50238   0.57570   0.60506   0.60874   0.62573
  Beta virt. eigenvalues --    0.80277   1.01923   1.03048   1.08054   1.11837
  Beta virt. eigenvalues --    1.12519   1.33398   1.43388   1.45477   1.46499
  Beta virt. eigenvalues --    1.48862   1.52474   1.53414   1.66460   1.66698
  Beta virt. eigenvalues --    1.97014   2.11947   2.14215   2.14629   2.34327
  Beta virt. eigenvalues --    2.43795   2.44614   2.49128   2.49695   2.52050
  Beta virt. eigenvalues --    2.68988   2.87445   2.94374   3.00343   3.23176
  Beta virt. eigenvalues --    3.24634   3.70081   3.70155   3.90666   5.10036
  Beta virt. eigenvalues --    5.10349   5.59982  23.87985  49.94338
          Condensed to atoms (all electrons):
               1          2          3          4          5          6
     1  C    5.012473   0.128470   0.000908   0.375758   0.387295   0.375768
     2  O    0.128470   8.152905   0.246938  -0.005953  -0.003352  -0.005964
     3  H    0.000908   0.246938   0.519659   0.000118  -0.000103   0.000119
     4  H    0.375758  -0.005953   0.000118   0.503090  -0.028906  -0.029093
     5  H    0.387295  -0.003352  -0.000103  -0.028906   0.482601  -0.028899
     6  H    0.375768  -0.005964   0.000119  -0.029093  -0.028899   0.503068
          Atomic-Atomic Spin Densities.
               1          2          3          4          5          6
     1  C   -0.000000  -0.000000  -0.000000   0.000000   0.000000   0.000000
     2  O   -0.000000   0.000000   0.000000  -0.000000   0.000000  -0.000000
     3  H   -0.000000   0.000000  -0.000000   0.000000   0.000000   0.000000
     4  H    0.000000  -0.000000   0.000000   0.000000  -0.000000  -0.000000
     5  H    0.000000   0.000000   0.000000  -0.000000   0.000000  -0.000000
     6  H    0.000000  -0.000000   0.000000  -0.000000  -0.000000   0.000000
 Mulliken charges and spin densities:
               1          2
     1  C   -0.280671  -0.000000
     2  O   -0.513043   0.000000
     3  H    0.232362  -0.000000
     4  H    0.184986   0.000000
     5  H    0.191365   0.000000
     6  H    0.185002   0.000000
 Sum of Mulliken charges =  -0.00000   0.00000
 Mulliken charges and spin densities with hydrogens summed into heavy atoms:
               1          2
     1  C    0.280682  -0.000000
     2  O   -0.280682   0.000000
 Electronic spatial extent (au):  <R**2>=            179.9467
 Charge=             -0.0000 electrons
 Dipole moment (field-independent basis, Debye):
    X=             -3.9905    Y=             -1.4435    Z=             -0.0003  Tot=              4.2436
 Quadrupole moment (field-independent basis, Debye-Ang):
   XX=             -9.5922   YY=            -12.1150   ZZ=            -14.3047
   XY=             -2.9906   XZ=             -0.0001   YZ=              0.0001
 Traceless Quadrupole moment (field-independent basis, Debye-Ang):
   XX=              2.4118   YY=             -0.1110   ZZ=             -2.3007
   XY=             -2.9906   XZ=             -0.0001   YZ=              0.0001
 Octapole moment (field-independent basis, Debye-Ang**2):
  XXX=             -2.4089  YYY=              1.0398  ZZZ=              0.0017  XYY=              2.4389
  XXY=             -4.5840  XXZ=              0.0009  XZZ=             -1.2493  YZZ=             -0.3858
  YYZ=             -0.0023  XYZ=             -0.0000
 Hexadecapole moment (field-independent basis, Debye-Ang**3):
 XXXX=           -170.0374 YYYY=            -20.1011 ZZZZ=            -20.9172 XXXY=             -6.5982
 XXXZ=             -0.0039 YYYX=             -2.3617 YYYZ=             -0.0003 ZZZX=             -0.0031
 ZZZY=              0.0007 XXYY=            -28.1347 XXZZ=            -33.2599 YYZZ=             -7.1748
 XXYZ=             -0.0005 YYXZ=              0.0044 ZZXY=              2.2030
 N-N= 2.847332262984D+01 E-N=-3.280975054026D+02  KE= 1.148486709886D+02
                          Isotropic Fermi Contact Couplings
        Atom                 a.u.       MegaHertz       Gauss      10(-4) cm-1
     1  C(13)             -0.00000      -0.00000      -0.00000      -0.00000
     2  O(17)              0.00000      -0.00000      -0.00000      -0.00000
     3  H(1)              -0.00000      -0.00000      -0.00000      -0.00000
     4  H(1)              -0.00000      -0.00000      -0.00000      -0.00000
     5  H(1)              -0.00000      -0.00000      -0.00000      -0.00000
     6  H(1)              -0.00000      -0.00000      -0.00000      -0.00000
 --------------------------------------------------------
       Center         ----  Spin Dipole Couplings  ----
                      3XX-RR        3YY-RR        3ZZ-RR
 --------------------------------------------------------
     1   Atom        0.000000      0.000000      0.000000
     2   Atom        0.000000      0.000000      0.000000
     3   Atom        0.000000      0.000000      0.000000
     4   Atom        0.000000      0.000000      0.000000
     5   Atom        0.000000      0.000000      0.000000
     6   Atom        0.000000      0.000000      0.000000
 --------------------------------------------------------
                        XY            XZ            YZ
 --------------------------------------------------------
     1   Atom        0.000000      0.000000      0.000000
     2   Atom        0.000000      0.000000      0.000000
     3   Atom        0.000000      0.000000      0.000000
     4   Atom        0.000000      0.000000      0.000000
     5   Atom        0.000000      0.000000      0.000000
     6   Atom        0.000000      0.000000      0.000000
 --------------------------------------------------------


 ---------------------------------------------------------------------------------
              Anisotropic Spin Dipole Couplings in Principal Axis System
 ---------------------------------------------------------------------------------

       Atom             a.u.   MegaHertz   Gauss  10(-4) cm-1        Axes

              Baa     0.0000     0.000     0.000     0.000  1.0000  0.0000  0.0000
     1 C(13)  Bbb     0.0000     0.000     0.000     0.000 -0.0000  1.0000  0.0000
              Bcc     0.0000     0.000     0.000     0.000  0.0000  0.0000  1.0000
 
              Baa     0.0000    -0.000    -0.000    -0.000  1.0000  0.0000  0.0000
     2 O(17)  Bbb     0.0000    -0.000    -0.000    -0.000 -0.0000  1.0000  0.0000
              Bcc     0.0000    -0.000    -0.000    -0.000  0.0000  0.0000  1.0000
 
              Baa     0.0000     0.000     0.000     0.000  1.0000  0.0000  0.0000
     3 H(1)   Bbb     0.0000     0.000     0.000     0.000 -0.0000  1.0000  0.0000
              Bcc     0.0000     0.000     0.000     0.000  0.0000  0.0000  1.0000
 
              Baa     0.0000     0.000     0.000     0.000  1.0000  0.0000  0.0000
     4 H(1)   Bbb     0.0000     0.000     0.000     0.000 -0.0000  1.0000  0.0000
              Bcc     0.0000     0.000     0.000     0.000  0.0000  0.0000  1.0000
 
              Baa     0.0000     0.000     0.000     0.000  1.0000  0.0000  0.0000
     5 H(1)   Bbb     0.0000     0.000     0.000     0.000 -0.0000  1.0000  0.0000
              Bcc     0.0000     0.000     0.000     0.000  0.0000  0.0000  1.0000
 
              Baa     0.0000     0.000     0.000     0.000  1.0000  0.0000  0.0000
     6 H(1)   Bbb     0.0000     0.000     0.000     0.000 -0.0000  1.0000  0.0000
              Bcc     0.0000     0.000     0.000     0.000  0.0000  0.0000  1.0000
 

 ---------------------------------------------------------------------------------

 No NMR shielding tensors so no spin-rotation constants.
 Leave Link  601 at Mon Apr 21 18:40:57 2025, MaxMem=   536870912 cpu:               1.1 elap:               0.2
 (Enter /home/szhao/Apps/g16/l701.exe)
 ... and contract with generalized density number  0.
 Compute integral first derivatives.
 Leave Link  701 at Mon Apr 21 18:40:58 2025, MaxMem=   536870912 cpu:               1.4 elap:               0.2
 (Enter /home/szhao/Apps/g16/l702.exe)
 L702 exits ... SP integral derivatives will be done elsewhere.
 Leave Link  702 at Mon Apr 21 18:40:58 2025, MaxMem=   536870912 cpu:               0.7 elap:               0.2
 (Enter /home/szhao/Apps/g16/l703.exe)
 Integral derivatives from FoFJK, PRISM(SPDF).
 Compute integral first derivatives, UseDBF=F ICtDFT=           0.
 Calling FoFJK, ICntrl=      2127 FMM=F ISym2X=0 I1Cent= 0 IOpClX= 1 NMat=1 NMatS=1 NMatT=0.
 FoFJK:  IHMeth= 1 ICntrl=    2127 DoSepK=F KAlg= 0 I1Cent=           0 FoldK=F
 IRaf=         0 NMat=       1 IRICut=       1 DoRegI=T DoRafI=F ISym2E= 0 IDoP0=0 IntGTp=1.
 FoFCou: FMM=F IPFlag=           0 FMFlag=      100000 FMFlg1=         800
         NFxFlg=           0 DoJE=F BraDBF=F KetDBF=F FulRan=T
         wScrn=  0.000000 ICntrl=      2127 IOpCl=  1 I1Cent=           0 NGrid=           0
         NMat0=    1 NMatS0=      1 NMatT0=    0 NMatD0=    1 NMtDS0=    0 NMtDT0=    0
 Symmetry not used in FoFCou.
 Leave Link  703 at Mon Apr 21 18:40:59 2025, MaxMem=   536870912 cpu:               8.7 elap:               1.1
 (Enter /home/szhao/Apps/g16/l716.exe)
 Dipole        =-1.57000138D+00-5.67913470D-01-1.23477787D-04
 -------------------------------------------------------------------
 Center     Atomic                   Forces (Hartrees/Bohr)
 Number     Number              X              Y              Z
 -------------------------------------------------------------------
      1        6          -0.000000000   -0.000000000   -0.000000000
      2        8          -0.000000000   -0.000000000   -0.000000000
      3        1          -0.006060900   -0.011091274    0.000001219
      4        1           0.024275250   -0.004030408    0.003480077
      5        1           0.024941041    0.006544269   -0.000003042
      6        1           0.024255236   -0.004040956   -0.003480709
 -------------------------------------------------------------------
 Cartesian Forces:  Max     0.024941041 RMS     0.010695373
 Leave Link  716 at Mon Apr 21 18:41:00 2025, MaxMem=   536870912 cpu:               0.5 elap:               0.1
 (Enter /home/szhao/Apps/g16/l103.exe)

 GradGradGradGradGradGradGradGradGradGradGradGradGradGradGradGradGradGrad
 Berny optimization.
 FormGI is forming the generalized inverse of G from B-inverse, IUseBI=4.
 Internal  Forces:  Max     0.073471527 RMS     0.022245006
 Search for a local minimum.
 Step number   1 out of a maximum of   30
 All quantities printed in internal units (Hartrees-Bohrs-Radians)
 RMS Force = .17402D-01 SwitMx=.10000D-02 MixMth= 1
 Mixed Optimization -- RFO/linear search
 Second derivative matrix not updated -- first step.
 The second derivative matrix:
                          X1        Y1        Z1        X2        Y2
           X1           0.50000
           Y1           0.00000   0.50000
           Z1           0.00000   0.00000   0.50000
           X2           0.00000   0.00000   0.00000   0.50000
           Y2           0.00000   0.00000   0.00000   0.00000   0.50000
           Z2           0.00000   0.00000   0.00000   0.00000   0.00000
           R1           0.00000   0.00000   0.00000   0.00000   0.00000
           R2           0.00000   0.00000   0.00000   0.00000   0.00000
           R3           0.00000   0.00000   0.00000   0.00000   0.00000
           R4           0.00000   0.00000   0.00000   0.00000   0.00000
           A1           0.00000   0.00000   0.00000   0.00000   0.00000
           A2           0.00000   0.00000   0.00000   0.00000   0.00000
           A3           0.00000   0.00000   0.00000   0.00000   0.00000
           A4           0.00000   0.00000   0.00000   0.00000   0.00000
           A5           0.00000   0.00000   0.00000   0.00000   0.00000
           A6           0.00000   0.00000   0.00000   0.00000   0.00000
           A7           0.00000   0.00000   0.00000   0.00000   0.00000
           D1           0.00000   0.00000   0.00000   0.00000   0.00000
           D2           0.00000   0.00000   0.00000   0.00000   0.00000
           D3           0.00000   0.00000   0.00000   0.00000   0.00000
                          Z2        R1        R2        R3        R4
           Z2           0.50000
           R1           0.00000   0.34246
           R2           0.00000   0.00000   0.34925
           R3           0.00000   0.00000   0.00000   0.34252
           R4           0.00000   0.00000   0.00000   0.00000   0.55746
           A1           0.00000   0.00000   0.00000   0.00000   0.00000
           A2           0.00000   0.00000   0.00000   0.00000   0.00000
           A3           0.00000   0.00000   0.00000   0.00000   0.00000
           A4           0.00000   0.00000   0.00000   0.00000   0.00000
           A5           0.00000   0.00000   0.00000   0.00000   0.00000
           A6           0.00000   0.00000   0.00000   0.00000   0.00000
           A7           0.00000   0.00000   0.00000   0.00000   0.00000
           D1           0.00000   0.00000   0.00000   0.00000   0.00000
           D2           0.00000   0.00000   0.00000   0.00000   0.00000
           D3           0.00000   0.00000   0.00000   0.00000   0.00000
                          A1        A2        A3        A4        A5
           A1           0.16000
           A2           0.00000   0.16000
           A3           0.00000   0.00000   0.16000
           A4           0.00000   0.00000   0.00000   0.16000
           A5           0.00000   0.00000   0.00000   0.00000   0.16000
           A6           0.00000   0.00000   0.00000   0.00000   0.00000
           A7           0.00000   0.00000   0.00000   0.00000   0.00000
           D1           0.00000   0.00000   0.00000   0.00000   0.00000
           D2           0.00000   0.00000   0.00000   0.00000   0.00000
           D3           0.00000   0.00000   0.00000   0.00000   0.00000
                          A6        A7        D1        D2        D3
           A6           0.16000
           A7           0.00000   0.16000
           D1           0.00000   0.00000   0.00230
           D2           0.00000   0.00000   0.00000   0.00230
           D3           0.00000   0.00000   0.00000   0.00000   0.00230
 ITU=  0
     Eigenvalues ---    0.00230   0.09412   0.10080   0.16000   0.16000
     Eigenvalues ---    0.16000   0.16000   0.34246   0.34252   0.34925
     Eigenvalues ---    0.557461000.000001000.000001000.000001000.00000
     Eigenvalues --- 1000.000001000.000001000.000001000.000001000.00000
 RFO step:  Lambda=-2.28354342D-02 EMin= 2.30000000D-03
 Linear search not attempted -- first point.
 Maximum step size (   0.300) exceeded in Quadratic search.
    -- Step size scaled by   0.852
 Iteration  1 RMS(Cart)=  0.09835220 RMS(Int)=  0.00810100
 Iteration  2 RMS(Cart)=  0.00813059 RMS(Int)=  0.00470021
 Iteration  3 RMS(Cart)=  0.00011339 RMS(Int)=  0.00469969
 Iteration  4 RMS(Cart)=  0.00000190 RMS(Int)=  0.00469969
 Iteration  5 RMS(Cart)=  0.00000003 RMS(Int)=  0.00469969
 ITry= 1 IFail=0 DXMaxC= 2.55D-01 DCOld= 1.00D+10 DXMaxT= 3.00D-01 DXLimC= 3.00D+00 Rises=F
 Variable       Old X    -DE/DX   Delta X   Delta X   Delta X     New X
                                 (Linear)    (Quad)   (Total)
    X1       -2.61198   0.07347   0.00000   0.00000   0.00000  -2.61198
    Y1        0.00000   0.00214   0.00000   0.00000   0.00000   0.00000
    Z1        0.00000  -0.00000   0.00000   0.00000   0.00000   0.00000
    X2        2.61198  -0.00606   0.00000   0.00000   0.00000   2.61198
    Y2        0.00000  -0.01476   0.00000   0.00000   0.00000   0.00000
    Z2        0.00000  -0.00000   0.00000   0.00000   0.00000   0.00000
    R1        2.06916  -0.00449   0.00000  -0.01047  -0.01047   2.05869
    R2        2.05797  -0.00097   0.00000  -0.00223  -0.00223   2.05575
    R3        2.06907  -0.00446   0.00000  -0.01040  -0.01040   2.05867
    R4        1.81175   0.00853   0.00000   0.01252   0.01252   1.82427
    A1        1.95552  -0.02413   0.00000  -0.11374  -0.12099   1.83453
    A2        1.86511  -0.02637   0.00000  -0.12027  -0.12741   1.73771
    A3        1.95494  -0.02411   0.00000  -0.11362  -0.12086   1.83407
    A4        1.89161   0.02596   0.00000   0.12338   0.11371   2.00532
    A5        1.90265   0.02512   0.00000   0.11261   0.10266   2.00531
    A6        1.89170   0.02594   0.00000   0.12335   0.11369   2.00539
    A7        1.90026  -0.01689   0.00000  -0.07868  -0.07868   1.82158
    D1        1.07305  -0.00147   0.00000  -0.01073  -0.01088   1.06217
    D2       -3.14071  -0.00001   0.00000  -0.00007  -0.00007  -3.14078
    D3       -1.07150   0.00148   0.00000   0.01073   0.01088  -1.06062
         Item               Value     Threshold  Converged?
 Maximum Force            0.026367     0.000450     NO 
 RMS     Force            0.017402     0.000300     NO 
 Maximum Displacement     0.255459     0.001800     NO 
 RMS     Displacement     0.103621     0.001200     NO 
 Predicted change in Energy=-1.210794D-02
 Lowest energy point so far.  Saving SCF results.
 GradGradGradGradGradGradGradGradGradGradGradGradGradGradGradGradGradGrad

 Leave Link  103 at Mon Apr 21 18:41:00 2025, MaxMem=   536870912 cpu:               0.3 elap:               0.1
 (Enter /home/szhao/Apps/g16/l202.exe)
                          Input orientation:                          
 ---------------------------------------------------------------------
 Center     Atomic      Atomic             Coordinates (Angstroms)
 Number     Number       Type             X           Y           Z
 ---------------------------------------------------------------------
      1          6           0       -1.382203    0.000000    0.000000
      2          8           0        1.382203    0.000000    0.000000
      3          1           0        1.621770   -0.935165    0.000013
      4          1           0       -1.666199   -0.512165    0.918613
      5          1           0       -1.562934    1.072735   -0.000887
      6          1           0       -1.665714   -0.513668   -0.917909
 ---------------------------------------------------------------------
                    Distance matrix (angstroms):
                    1          2          3          4          5
     1  C    0.000000
     2  O    2.764405   0.000000
     3  H    3.146170   0.965364   0.000000
     4  H    1.089412   3.224735   3.439985   0.000000
     5  H    1.087853   3.134420   3.764838   1.835225   0.000000
     6  H    1.089399   3.224315   3.439155   1.836523   1.835257
                    6
     6  H    0.000000
 Symmetry turned off by external request.
 Stoichiometry    CH4O
 Framework group  C1[X(CH4O)]
 Deg. of freedom    12
 Full point group                 C1      NOp   1
 Rotational constants (GHZ):         119.9685091           7.6841059           7.5902352
 Leave Link  202 at Mon Apr 21 18:41:00 2025, MaxMem=   536870912 cpu:               0.2 elap:               0.1
 (Enter /home/szhao/Apps/g16/l301.exe)
 Standard basis: 6-311+G(d,p) (5D, 7F)
 Ernie: Thresh=  0.10000D-02 Tol=  0.10000D-05 Strict=F.
    68 basis functions,   104 primitive gaussians,    70 cartesian basis functions
     9 alpha electrons        9 beta electrons
       nuclear repulsion energy        28.6200103487 Hartrees.
 IExCor= 4336 DFT=T Ex+Corr=M062X ExCW=0 ScaHFX=  0.540000
 ScaDFX=  1.000000  1.000000  1.000000  1.000000 ScalE2=  1.000000  1.000000
 IRadAn=      7 IRanWt=     -1 IRanGd=            0 ICorTp=0 IEmpDi=  4
 NAtoms=    6 NActive=    6 NUniq=    6 SFac= 1.00D+00 NAtFMM=   60 NAOKFM=F Big=F
 Integral buffers will be    131072 words long.
 Raffenetti 2 integral format.
 Two-electron integral symmetry is turned off.
 Leave Link  301 at Mon Apr 21 18:41:00 2025, MaxMem=   536870912 cpu:               0.7 elap:               0.1
 (Enter /home/szhao/Apps/g16/l302.exe)
 NPDir=0 NMtPBC=     1 NCelOv=     1 NCel=       1 NClECP=     1 NCelD=      1
         NCelK=      1 NCelE2=     1 NClLst=     1 CellRange=     0.0.
 One-electron integrals computed using PRISM.
 NBasis=    68 RedAO= T EigKep=  5.74D-03  NBF=    68
 NBsUse=    68 1.00D-06 EigRej= -1.00D+00 NBFU=    68
 Precomputing XC quadrature grid using
 IXCGrd= 4 IRadAn=           7 IRanWt=          -1 IRanGd=           0 AccXCQ= 0.00D+00.
 Generated NRdTot=       0 NPtTot=           0 NUsed=           0 NTot=          32
 NSgBfM=    70    70    70    70    70 MxSgAt=     6 MxSgA2=     6.
 Leave Link  302 at Mon Apr 21 18:41:01 2025, MaxMem=   536870912 cpu:               2.0 elap:               0.3
 (Enter /home/szhao/Apps/g16/l303.exe)
 DipDrv:  MaxL=1.
 Leave Link  303 at Mon Apr 21 18:41:01 2025, MaxMem=   536870912 cpu:               0.9 elap:               0.2
 (Enter /home/szhao/Apps/g16/l401.exe)
 Initial guess from the checkpoint file:  "opt.chk"
 B after Tr=     0.033634   -0.005744    0.000017
         Rot=    0.999999   -0.000002   -0.000004    0.001224 Ang=  -0.14 deg.
 Guess basis will be translated and rotated to current coordinates.
 JPrj=2 DoOrth=T DoCkMO=T.
 Initial guess <Sx>= 0.0000 <Sy>= 0.0000 <Sz>= 0.0000 <S**2>=-0.0000 S=-0.0000
 Generating alternative initial guess.
 ExpMin= 4.38D-02 ExpMax= 8.59D+03 ExpMxC= 1.30D+03 IAcc=3 IRadAn=         5 AccDes= 0.00D+00
 Harris functional with IExCor= 1009 and IRadAn=       5 diagonalized for initial guess.
 HarFok:  IExCor= 1009 AccDes= 0.00D+00 IRadAn=         5 IDoV= 1 UseB2=F ITyADJ=14
 ICtDFT=  3500011 ScaDFX=  1.000000  1.000000  1.000000  1.000000
 FoFCou: FMM=F IPFlag=           0 FMFlag=      100000 FMFlg1=           0
         NFxFlg=           0 DoJE=T BraDBF=F KetDBF=T FulRan=T
         wScrn=  0.000000 ICntrl=       500 IOpCl=  0 I1Cent=   200000004 NGrid=           0
         NMat0=    1 NMatS0=      1 NMatT0=    0 NMatD0=    1 NMtDS0=    0 NMtDT0=    0
 Symmetry not used in FoFCou.
 Harris En= -115.545535212603    
 Leave Link  401 at Mon Apr 21 18:41:02 2025, MaxMem=   536870912 cpu:               2.7 elap:               0.4
 (Enter /home/szhao/Apps/g16/l502.exe)
 Keep R1 and R2 ints in memory in canonical form, NReq=12681626.
 FoFCou: FMM=F IPFlag=           0 FMFlag=           0 FMFlg1=           0
         NFxFlg=           0 DoJE=F BraDBF=F KetDBF=F FulRan=T
         wScrn=  0.000000 ICntrl=       600 IOpCl=  0 I1Cent=           0 NGrid=           0
         NMat0=    1 NMatS0=   2346 NMatT0=    0 NMatD0=    1 NMtDS0=    0 NMtDT0=    0
 Symmetry not used in FoFCou.
 Two-electron integral symmetry not used.
 UHF open shell SCF:
 Using DIIS extrapolation, IDIIS=  1040.
 NGot=   536870912 LenX=   531353782 LenY=   531348441
 Requested convergence on RMS density matrix=1.00D-08 within 128 cycles.
 Requested convergence on MAX density matrix=1.00D-06.
 Requested convergence on             energy=1.00D-06.
 No special actions if energy rises.

 Cycle   1  Pass 1  IDiag  1:
 E= -115.515218511923    
 DIIS: error= 5.89D-03 at cycle   1 NSaved=   1.
 NSaved= 1 IEnMin= 1 EnMin= -115.515218511923     IErMin= 1 ErrMin= 5.89D-03
 ErrMax= 5.89D-03  0.00D+00 EMaxC= 1.00D-01 BMatC= 8.35D-03 BMatP= 8.35D-03
 IDIUse=3 WtCom= 9.41D-01 WtEn= 5.89D-02
 Coeff-Com:  0.100D+01
 Coeff-En:   0.100D+01
 Coeff:      0.100D+01
 Gap=     0.520 Goal=   None    Shift=    0.000
 Gap=     0.520 Goal=   None    Shift=    0.000
 GapD=    0.520 DampG=2.000 DampE=1.000 DampFc=2.0000 IDamp=-1.
 RMSDP=5.99D-04 MaxDP=6.18D-03              OVMax= 2.18D-02

 Cycle   2  Pass 1  IDiag  1:
 E= -115.518130117051     Delta-E=       -0.002911605128 Rises=F Damp=F
 DIIS: error= 1.48D-03 at cycle   2 NSaved=   2.
 NSaved= 2 IEnMin= 2 EnMin= -115.518130117051     IErMin= 2 ErrMin= 1.48D-03
 ErrMax= 1.48D-03  0.00D+00 EMaxC= 1.00D-01 BMatC= 4.70D-04 BMatP= 8.35D-03
 IDIUse=3 WtCom= 9.85D-01 WtEn= 1.48D-02
 Coeff-Com:  0.691D-02 0.993D+00
 Coeff-En:   0.000D+00 0.100D+01
 Coeff:      0.681D-02 0.993D+00
 Gap=     0.187 Goal=   None    Shift=    0.000
 Gap=     0.187 Goal=   None    Shift=    0.000
 RMSDP=2.92D-04 MaxDP=3.64D-03 DE=-2.91D-03 OVMax= 2.16D-02

 Cycle   3  Pass 1  IDiag  1:
 E= -115.517905986046     Delta-E=        0.000224131004 Rises=F Damp=F
 DIIS: error= 3.13D-03 at cycle   3 NSaved=   3.
 NSaved= 3 IEnMin= 2 EnMin= -115.518130117051     IErMin= 2 ErrMin= 1.48D-03
 ErrMax= 3.13D-03  0.00D+00 EMaxC= 1.00D-01 BMatC= 1.77D-03 BMatP= 4.70D-04
 IDIUse=3 WtCom= 1.52D-01 WtEn= 8.48D-01
 Coeff-Com: -0.537D-01 0.728D+00 0.326D+00
 Coeff-En:   0.000D+00 0.709D+00 0.291D+00
 Coeff:     -0.814D-02 0.712D+00 0.296D+00
 Gap=     0.184 Goal=   None    Shift=    0.000
 Gap=     0.184 Goal=   None    Shift=    0.000
 RMSDP=1.82D-04 MaxDP=3.30D-03 DE= 2.24D-04 OVMax= 1.60D-02

 Cycle   4  Pass 1  IDiag  1:
 E= -115.518310140464     Delta-E=       -0.000404154418 Rises=F Damp=F
 DIIS: error= 6.25D-04 at cycle   4 NSaved=   4.
 NSaved= 4 IEnMin= 4 EnMin= -115.518310140464     IErMin= 4 ErrMin= 6.25D-04
 ErrMax= 6.25D-04  0.00D+00 EMaxC= 1.00D-01 BMatC= 8.34D-05 BMatP= 4.70D-04
 IDIUse=3 WtCom= 9.94D-01 WtEn= 6.25D-03
 Coeff-Com: -0.266D-01 0.828D-01 0.182D+00 0.761D+00
 Coeff-En:   0.000D+00 0.000D+00 0.522D-01 0.948D+00
 Coeff:     -0.265D-01 0.823D-01 0.182D+00 0.763D+00
 Gap=     0.185 Goal=   None    Shift=    0.000
 Gap=     0.185 Goal=   None    Shift=    0.000
 RMSDP=5.13D-05 MaxDP=6.39D-04 DE=-4.04D-04 OVMax= 3.68D-03

 Cycle   5  Pass 1  IDiag  1:
 E= -115.518336789353     Delta-E=       -0.000026648889 Rises=F Damp=F
 DIIS: error= 1.35D-04 at cycle   5 NSaved=   5.
 NSaved= 5 IEnMin= 5 EnMin= -115.518336789353     IErMin= 5 ErrMin= 1.35D-04
 ErrMax= 1.35D-04  0.00D+00 EMaxC= 1.00D-01 BMatC= 3.70D-06 BMatP= 8.34D-05
 IDIUse=3 WtCom= 9.99D-01 WtEn= 1.35D-03
 Coeff-Com: -0.168D-02-0.366D-01 0.627D-02 0.176D+00 0.855D+00
 Coeff-En:   0.000D+00 0.000D+00 0.000D+00 0.000D+00 0.100D+01
 Coeff:     -0.168D-02-0.365D-01 0.627D-02 0.176D+00 0.856D+00
 Gap=     0.185 Goal=   None    Shift=    0.000
 Gap=     0.185 Goal=   None    Shift=    0.000
 RMSDP=1.79D-05 MaxDP=1.98D-04 DE=-2.66D-05 OVMax= 1.05D-03

 Cycle   6  Pass 1  IDiag  1:
 E= -115.518338328285     Delta-E=       -0.000001538932 Rises=F Damp=F
 DIIS: error= 1.17D-04 at cycle   6 NSaved=   6.
 NSaved= 6 IEnMin= 6 EnMin= -115.518338328285     IErMin= 6 ErrMin= 1.17D-04
 ErrMax= 1.17D-04  0.00D+00 EMaxC= 1.00D-01 BMatC= 1.77D-06 BMatP= 3.70D-06
 IDIUse=3 WtCom= 9.99D-01 WtEn= 1.17D-03
 Coeff-Com:  0.423D-02-0.294D-01-0.508D-01-0.624D-01 0.225D+00 0.913D+00
 Coeff-En:   0.000D+00 0.000D+00 0.000D+00 0.000D+00 0.000D+00 0.100D+01
 Coeff:      0.423D-02-0.293D-01-0.508D-01-0.623D-01 0.225D+00 0.913D+00
 Gap=     0.185 Goal=   None    Shift=    0.000
 Gap=     0.185 Goal=   None    Shift=    0.000
 RMSDP=9.32D-06 MaxDP=1.21D-04 DE=-1.54D-06 OVMax= 6.82D-04

 Cycle   7  Pass 1  IDiag  1:
 E= -115.518339056680     Delta-E=       -0.000000728395 Rises=F Damp=F
 DIIS: error= 1.33D-05 at cycle   7 NSaved=   7.
 NSaved= 7 IEnMin= 7 EnMin= -115.518339056680     IErMin= 7 ErrMin= 1.33D-05
 ErrMax= 1.33D-05  0.00D+00 EMaxC= 1.00D-01 BMatC= 2.52D-08 BMatP= 1.77D-06
 IDIUse=1 WtCom= 1.00D+00 WtEn= 0.00D+00
 Coeff-Com: -0.958D-03 0.114D-01 0.101D-01-0.209D-02-0.137D+00-0.211D+00
 Coeff-Com:  0.133D+01
 Coeff:     -0.958D-03 0.114D-01 0.101D-01-0.209D-02-0.137D+00-0.211D+00
 Coeff:      0.133D+01
 Gap=     0.185 Goal=   None    Shift=    0.000
 Gap=     0.185 Goal=   None    Shift=    0.000
 RMSDP=3.19D-06 MaxDP=3.28D-05 DE=-7.28D-07 OVMax= 2.45D-04

 Cycle   8  Pass 1  IDiag  1:
 E= -115.518339085989     Delta-E=       -0.000000029309 Rises=F Damp=F
 DIIS: error= 4.36D-06 at cycle   8 NSaved=   8.
 NSaved= 8 IEnMin= 8 EnMin= -115.518339085989     IErMin= 8 ErrMin= 4.36D-06
 ErrMax= 4.36D-06  0.00D+00 EMaxC= 1.00D-01 BMatC= 4.26D-09 BMatP= 2.52D-08
 IDIUse=1 WtCom= 1.00D+00 WtEn= 0.00D+00
 Coeff-Com: -0.252D-03 0.245D-02 0.370D-02 0.948D-03-0.204D-01-0.451D-01
 Coeff-Com:  0.168D+00 0.890D+00
 Coeff:     -0.252D-03 0.245D-02 0.370D-02 0.948D-03-0.204D-01-0.451D-01
 Coeff:      0.168D+00 0.890D+00
 Gap=     0.185 Goal=   None    Shift=    0.000
 Gap=     0.185 Goal=   None    Shift=    0.000
 RMSDP=4.26D-07 MaxDP=5.37D-06 DE=-2.93D-08 OVMax= 1.56D-05

 Cycle   9  Pass 1  IDiag  1:
 E= -115.518339087055     Delta-E=       -0.000000001065 Rises=F Damp=F
 DIIS: error= 9.08D-07 at cycle   9 NSaved=   9.
 NSaved= 9 IEnMin= 9 EnMin= -115.518339087055     IErMin= 9 ErrMin= 9.08D-07
 ErrMax= 9.08D-07  0.00D+00 EMaxC= 1.00D-01 BMatC= 1.76D-10 BMatP= 4.26D-09
 IDIUse=1 WtCom= 1.00D+00 WtEn= 0.00D+00
 Coeff-Com:  0.308D-04-0.418D-03-0.132D-03-0.186D-03 0.424D-02 0.755D-02
 Coeff-Com: -0.651D-01-0.451D-01 0.110D+01
 Coeff:      0.308D-04-0.418D-03-0.132D-03-0.186D-03 0.424D-02 0.755D-02
 Coeff:     -0.651D-01-0.451D-01 0.110D+01
 Gap=     0.185 Goal=   None    Shift=    0.000
 Gap=     0.185 Goal=   None    Shift=    0.000
 RMSDP=1.51D-07 MaxDP=1.89D-06 DE=-1.07D-09 OVMax= 5.99D-06

 Cycle  10  Pass 1  IDiag  1:
 E= -115.518339087122     Delta-E=       -0.000000000068 Rises=F Damp=F
 DIIS: error= 9.27D-08 at cycle  10 NSaved=  10.
 NSaved=10 IEnMin=10 EnMin= -115.518339087122     IErMin=10 ErrMin= 9.27D-08
 ErrMax= 9.27D-08  0.00D+00 EMaxC= 1.00D-01 BMatC= 2.05D-12 BMatP= 1.76D-10
 IDIUse=1 WtCom= 1.00D+00 WtEn= 0.00D+00
 Coeff-Com:  0.272D-05-0.219D-04-0.780D-04 0.343D-04-0.179D-03 0.938D-03
 Coeff-Com:  0.363D-02-0.344D-01-0.889D-01 0.112D+01
 Coeff:      0.272D-05-0.219D-04-0.780D-04 0.343D-04-0.179D-03 0.938D-03
 Coeff:      0.363D-02-0.344D-01-0.889D-01 0.112D+01
 Gap=     0.185 Goal=   None    Shift=    0.000
 Gap=     0.185 Goal=   None    Shift=    0.000
 RMSDP=1.86D-08 MaxDP=2.39D-07 DE=-6.75D-11 OVMax= 6.28D-07

 Cycle  11  Pass 1  IDiag  1:
 E= -115.518339087123     Delta-E=       -0.000000000001 Rises=F Damp=F
 DIIS: error= 2.17D-08 at cycle  11 NSaved=  11.
 NSaved=11 IEnMin=11 EnMin= -115.518339087123     IErMin=11 ErrMin= 2.17D-08
 ErrMax= 2.17D-08  0.00D+00 EMaxC= 1.00D-01 BMatC= 4.47D-14 BMatP= 2.05D-12
 IDIUse=1 WtCom= 1.00D+00 WtEn= 0.00D+00
 Coeff-Com: -0.823D-06 0.968D-05 0.940D-05 0.227D-05-0.116D-03-0.249D-03
 Coeff-Com:  0.159D-02-0.435D-04-0.185D-01 0.270D-02 0.101D+01
 Coeff:     -0.823D-06 0.968D-05 0.940D-05 0.227D-05-0.116D-03-0.249D-03
 Coeff:      0.159D-02-0.435D-04-0.185D-01 0.270D-02 0.101D+01
 Gap=     0.185 Goal=   None    Shift=    0.000
 Gap=     0.185 Goal=   None    Shift=    0.000
 RMSDP=2.26D-09 MaxDP=2.47D-08 DE=-9.38D-13 OVMax= 1.31D-07

 SCF Done:  E(UM062X) =  -115.518339087     A.U. after   11 cycles
            NFock= 11  Conv=0.23D-08     -V/T= 2.0058
 <Sx>= 0.0000 <Sy>= 0.0000 <Sz>= 0.0000 <S**2>=-0.0000 S=-0.0000
 <L.S>=  0.00000000000    
 KE= 1.148534987051D+02 PE=-3.284535343176D+02 EE= 6.946168617670D+01
 Annihilation of the first spin contaminant:
 S**2 before annihilation    -0.0000,   after     0.0000
 Leave Link  502 at Mon Apr 21 18:41:10 2025, MaxMem=   536870912 cpu:              61.3 elap:               8.1
 (Enter /home/szhao/Apps/g16/l701.exe)
 ... and contract with generalized density number  0.
 Compute integral first derivatives.
 Leave Link  701 at Mon Apr 21 18:41:11 2025, MaxMem=   536870912 cpu:               0.9 elap:               0.2
 (Enter /home/szhao/Apps/g16/l702.exe)
 L702 exits ... SP integral derivatives will be done elsewhere.
 Leave Link  702 at Mon Apr 21 18:41:11 2025, MaxMem=   536870912 cpu:               0.5 elap:               0.1
 (Enter /home/szhao/Apps/g16/l703.exe)
 Integral derivatives from FoFJK, PRISM(SPDF).
 Compute integral first derivatives, UseDBF=F ICtDFT=           0.
 Calling FoFJK, ICntrl=      2127 FMM=F ISym2X=0 I1Cent= 0 IOpClX= 1 NMat=1 NMatS=1 NMatT=0.
 FoFJK:  IHMeth= 1 ICntrl=    2127 DoSepK=F KAlg= 0 I1Cent=           0 FoldK=F
 IRaf=         0 NMat=       1 IRICut=       1 DoRegI=T DoRafI=F ISym2E= 0 IDoP0=0 IntGTp=1.
 FoFCou: FMM=F IPFlag=           0 FMFlag=      100000 FMFlg1=         800
         NFxFlg=           0 DoJE=F BraDBF=F KetDBF=F FulRan=T
         wScrn=  0.000000 ICntrl=      2127 IOpCl=  1 I1Cent=           0 NGrid=           0
         NMat0=    1 NMatS0=      1 NMatT0=    0 NMatD0=    1 NMtDS0=    0 NMtDT0=    0
 Symmetry not used in FoFCou.
 Leave Link  703 at Mon Apr 21 18:41:12 2025, MaxMem=   536870912 cpu:               8.8 elap:               1.1
 (Enter /home/szhao/Apps/g16/l716.exe)
 Dipole        =-1.74950302D+00-5.84530885D-01-7.39226067D-05
 -------------------------------------------------------------------
 Center     Atomic                   Forces (Hartrees/Bohr)
 Number     Number              X              Y              Z
 -------------------------------------------------------------------
      1        6          -0.000000000   -0.000000000   -0.000000000
      2        8          -0.000000000   -0.000000000   -0.000000000
      3        1          -0.005936454   -0.002328746    0.000000963
      4        1           0.013775218   -0.000268731   -0.000511779
      5        1           0.014279238   -0.001002391   -0.000000102
      6        1           0.013763133   -0.000265090    0.000513648
 -------------------------------------------------------------------
 Cartesian Forces:  Max     0.014279238 RMS     0.005894511
 Leave Link  716 at Mon Apr 21 18:41:12 2025, MaxMem=   536870912 cpu:               0.4 elap:               0.1
 (Enter /home/szhao/Apps/g16/l103.exe)

 GradGradGradGradGradGradGradGradGradGradGradGradGradGradGradGradGradGrad
 Berny optimization.
 Using GEDIIS/GDIIS optimizer.
 FormGI is forming the generalized inverse of G from B-inverse, IUseBI=4.
 Internal  Forces:  Max     0.041817589 RMS     0.013175726
 Search for a local minimum.
 Step number   2 out of a maximum of   30
 All quantities printed in internal units (Hartrees-Bohrs-Radians)
 RMS Force = .10901D-01 SwitMx=.10000D-02 MixMth= 1
 Mixed Optimization -- RFO/linear search
 Update second derivatives using D2CorX and points    1    2
 DE= -1.58D-02 DEPred=-1.21D-02 R= 1.30D+00
 TightC=F SS=  1.41D+00  RLast= 2.98D-01 DXNew= 5.0454D-01 8.9338D-01
 Trust test= 1.30D+00 RLast= 2.98D-01 DXMaxT set to 5.05D-01
 The second derivative matrix:
                          X1        Y1        Z1        X2        Y2
           X1           0.63848
           Y1           0.00505   0.50018
           Z1          -0.00002  -0.00000   0.50000
           X2          -0.00054  -0.00002   0.00000   0.50000
           Y2          -0.04334  -0.00158   0.00001   0.00017   0.51356
           Z2          -0.00000  -0.00000   0.00000   0.00000   0.00000
           R1          -0.00261  -0.00010   0.00000   0.00001   0.00082
           R2           0.01045   0.00038  -0.00000  -0.00004  -0.00327
           R3          -0.00251  -0.00009   0.00000   0.00001   0.00079
           R4           0.03391   0.00124  -0.00001  -0.00013  -0.01061
           A1          -0.02947  -0.00107   0.00000   0.00012   0.00922
           A2          -0.03260  -0.00119   0.00001   0.00013   0.01020
           A3          -0.02945  -0.00107   0.00000   0.00012   0.00922
           A4           0.05616   0.00205  -0.00001  -0.00022  -0.01758
           A5           0.05104   0.00186  -0.00001  -0.00020  -0.01597
           A6           0.05614   0.00205  -0.00001  -0.00022  -0.01757
           A7          -0.02339  -0.00085   0.00000   0.00009   0.00732
           D1          -0.00333  -0.00012   0.00000   0.00001   0.00104
           D2          -0.00002  -0.00000   0.00000   0.00000   0.00001
           D3           0.00334   0.00012  -0.00000  -0.00001  -0.00105
                          Z2        R1        R2        R3        R4
           Z2           0.50000
           R1           0.00000   0.34161
           R2          -0.00000  -0.00039   0.34999
           R3           0.00000  -0.00085  -0.00038   0.34167
           R4          -0.00000   0.00112   0.00294   0.00113   0.56235
           A1           0.00000  -0.00432  -0.00328  -0.00431   0.00227
           A2           0.00000  -0.00452  -0.00357  -0.00451   0.00200
           A3           0.00000  -0.00431  -0.00328  -0.00430   0.00226
           A4          -0.00000   0.00352   0.00523   0.00353   0.00484
           A5          -0.00000   0.00317   0.00475   0.00318   0.00445
           A6          -0.00000   0.00352   0.00523   0.00353   0.00484
           A7           0.00000  -0.00273  -0.00245  -0.00272   0.00044
           D1           0.00000   0.00006  -0.00025   0.00005  -0.00080
           D2           0.00000   0.00000  -0.00000   0.00000  -0.00000
           D3          -0.00000  -0.00006   0.00025  -0.00005   0.00081
                          A1        A2        A3        A4        A5
           A1           0.13998
           A2          -0.02075   0.13852
           A3          -0.02000  -0.02072   0.14003
           A4           0.01276   0.01280   0.01274   0.15956
           A5           0.01145   0.01148   0.01143  -0.00026   0.15988
           A6           0.01276   0.01280   0.01274  -0.00045  -0.00027
           A7          -0.01212  -0.01250  -0.01211   0.00658   0.00589
           D1           0.00067   0.00075   0.00067  -0.00132  -0.00120
           D2           0.00000   0.00000   0.00000  -0.00001  -0.00001
           D3          -0.00068  -0.00075  -0.00068   0.00132   0.00120
                          A6        A7        D1        D2        D3
           A6           0.15955
           A7           0.00658   0.15283
           D1          -0.00132   0.00054   0.00238
           D2          -0.00001   0.00000   0.00000   0.00230
           D3           0.00132  -0.00054  -0.00008  -0.00000   0.00238
 ITU=  1  0
 Use linear search instead of GDIIS.
     Eigenvalues ---    0.00230   0.07618   0.10789   0.11209   0.16000
     Eigenvalues ---    0.16000   0.16020   0.34153   0.34249   0.35034
     Eigenvalues ---    0.562411000.000001000.000001000.000001000.00000
     Eigenvalues --- 1000.000001000.000001000.000001000.000001000.00000
 RFO step:  Lambda=-4.20389802D-04 EMin= 2.30000001D-03
 Quartic linear search produced a step of  1.24542.
 Iteration  1 RMS(Cart)=  0.14680676 RMS(Int)=  0.02684998
 Iteration  2 RMS(Cart)=  0.01247654 RMS(Int)=  0.02378135
 Iteration  3 RMS(Cart)=  0.00011367 RMS(Int)=  0.02378129
 Iteration  4 RMS(Cart)=  0.00002234 RMS(Int)=  0.02378129
 Iteration  5 RMS(Cart)=  0.00000442 RMS(Int)=  0.02378129
 Iteration  6 RMS(Cart)=  0.00000087 RMS(Int)=  0.02378129
 ITry= 1 IFail=0 DXMaxC= 3.75D-01 DCOld= 1.00D+10 DXMaxT= 5.05D-01 DXLimC= 3.00D+00 Rises=F
 Variable       Old X    -DE/DX   Delta X   Delta X   Delta X     New X
                                 (Linear)    (Quad)   (Total)
    X1       -2.61198   0.04182   0.00000   0.00000   0.00000  -2.61198
    Y1        0.00000   0.00099   0.00000   0.00000   0.00000   0.00000
    Z1        0.00000   0.00000   0.00000   0.00000   0.00000   0.00000
    X2        2.61198  -0.00594   0.00000   0.00000   0.00000   2.61198
    Y2        0.00000  -0.00485   0.00000   0.00000   0.00000   0.00000
    Z2        0.00000  -0.00000   0.00000   0.00000   0.00000   0.00000
    R1        2.05869  -0.00390  -0.01304  -0.00887  -0.02192   2.03677
    R2        2.05575  -0.00336  -0.00277  -0.01841  -0.02118   2.03456
    R3        2.05867  -0.00389  -0.01296  -0.00894  -0.02190   2.03677
    R4        1.82427   0.00078   0.01560  -0.01640  -0.00080   1.82347
    A1        1.83453  -0.01739  -0.15068  -0.00754  -0.17000   1.66453
    A2        1.73771  -0.01892  -0.15868  -0.01295  -0.18348   1.55422
    A3        1.83407  -0.01737  -0.15053  -0.00747  -0.16977   1.66430
    A4        2.00532   0.01312   0.14162   0.00029   0.08146   2.08677
    A5        2.00531   0.01345   0.12785   0.01946   0.08744   2.09275
    A6        2.00539   0.01311   0.14159   0.00024   0.08140   2.08679
    A7        1.82158  -0.01155  -0.09799  -0.01822  -0.11621   1.70537
    D1        1.06217  -0.00071  -0.01355   0.00768  -0.00720   1.05497
    D2       -3.14078  -0.00000  -0.00009   0.00019   0.00012  -3.14066
    D3       -1.06062   0.00071   0.01355  -0.00732   0.00753  -1.05309
         Item               Value     Threshold  Converged?
 Maximum Force            0.018916     0.000450     NO 
 RMS     Force            0.010901     0.000300     NO 
 Maximum Displacement     0.375251     0.001800     NO 
 RMS     Displacement     0.146388     0.001200     NO 
 Predicted change in Energy=-9.594839D-03
 Lowest energy point so far.  Saving SCF results.
 GradGradGradGradGradGradGradGradGradGradGradGradGradGradGradGradGradGrad

 Leave Link  103 at Mon Apr 21 18:41:13 2025, MaxMem=   536870912 cpu:               1.1 elap:               0.2
 (Enter /home/szhao/Apps/g16/l202.exe)
                          Input orientation:                          
 ---------------------------------------------------------------------
 Center     Atomic      Atomic             Coordinates (Angstroms)
 Number     Number       Type             X           Y           Z
 ---------------------------------------------------------------------
      1          6           0       -1.382203    0.000000    0.000000
      2          8           0        1.382203    0.000000    0.000000
      3          1           0        1.511667   -0.956216   -0.000099
      4          1           0       -1.483086   -0.529402    0.933402
      5          1           0       -1.364360    1.076497   -0.000894
      6          1           0       -1.482833   -0.530971   -0.932535
 ---------------------------------------------------------------------
                    Distance matrix (angstroms):
                    1          2          3          4          5
     1  C    0.000000
     2  O    2.764405   0.000000
     3  H    3.047758   0.964941   0.000000
     4  H    1.077814   3.059638   3.165776   0.000000
     5  H    1.076645   2.949992   3.521854   1.861697   0.000000
     6  H    1.077812   3.059409   3.165012   1.865938   1.861705
                    6
     6  H    0.000000
 Symmetry turned off by external request.
 Stoichiometry    CH4O
 Framework group  C1[X(CH4O)]
 Deg. of freedom    12
 Full point group                 C1      NOp   1
 Rotational constants (GHZ):         116.0421710           7.9395908           7.8354314
 Leave Link  202 at Mon Apr 21 18:41:13 2025, MaxMem=   536870912 cpu:               0.2 elap:               0.1
 (Enter /home/szhao/Apps/g16/l301.exe)
 Standard basis: 6-311+G(d,p) (5D, 7F)
 Ernie: Thresh=  0.10000D-02 Tol=  0.10000D-05 Strict=F.
    68 basis functions,   104 primitive gaussians,    70 cartesian basis functions
     9 alpha electrons        9 beta electrons
       nuclear repulsion energy        28.9972528681 Hartrees.
 IExCor= 4336 DFT=T Ex+Corr=M062X ExCW=0 ScaHFX=  0.540000
 ScaDFX=  1.000000  1.000000  1.000000  1.000000 ScalE2=  1.000000  1.000000
 IRadAn=      7 IRanWt=     -1 IRanGd=            0 ICorTp=0 IEmpDi=  4
 NAtoms=    6 NActive=    6 NUniq=    6 SFac= 1.00D+00 NAtFMM=   60 NAOKFM=F Big=F
 Integral buffers will be    131072 words long.
 Raffenetti 2 integral format.
 Two-electron integral symmetry is turned off.
 Leave Link  301 at Mon Apr 21 18:41:13 2025, MaxMem=   536870912 cpu:               0.5 elap:               0.1
 (Enter /home/szhao/Apps/g16/l302.exe)
 NPDir=0 NMtPBC=     1 NCelOv=     1 NCel=       1 NClECP=     1 NCelD=      1
         NCelK=      1 NCelE2=     1 NClLst=     1 CellRange=     0.0.
 One-electron integrals computed using PRISM.
 NBasis=    68 RedAO= T EigKep=  5.58D-03  NBF=    68
 NBsUse=    68 1.00D-06 EigRej= -1.00D+00 NBFU=    68
 Precomputing XC quadrature grid using
 IXCGrd= 4 IRadAn=           7 IRanWt=          -1 IRanGd=           0 AccXCQ= 0.00D+00.
 Generated NRdTot=       0 NPtTot=           0 NUsed=           0 NTot=          32
 NSgBfM=    70    70    70    70    70 MxSgAt=     6 MxSgA2=     6.
 Leave Link  302 at Mon Apr 21 18:41:14 2025, MaxMem=   536870912 cpu:               1.6 elap:               0.2
 (Enter /home/szhao/Apps/g16/l303.exe)
 DipDrv:  MaxL=1.
 Leave Link  303 at Mon Apr 21 18:41:14 2025, MaxMem=   536870912 cpu:               0.6 elap:               0.1
 (Enter /home/szhao/Apps/g16/l401.exe)
 Initial guess from the checkpoint file:  "opt.chk"
 B after Tr=     0.048035   -0.005627    0.000003
         Rot=    0.999998    0.000003   -0.000008    0.001734 Ang=   0.20 deg.
 Guess basis will be translated and rotated to current coordinates.
 JPrj=2 DoOrth=T DoCkMO=T.
 Initial guess <Sx>= 0.0000 <Sy>= 0.0000 <Sz>= 0.0000 <S**2>= 0.0000 S= 0.0000
 Generating alternative initial guess.
 ExpMin= 4.38D-02 ExpMax= 8.59D+03 ExpMxC= 1.30D+03 IAcc=3 IRadAn=         5 AccDes= 0.00D+00
 Harris functional with IExCor= 1009 and IRadAn=       5 diagonalized for initial guess.
 HarFok:  IExCor= 1009 AccDes= 0.00D+00 IRadAn=         5 IDoV= 1 UseB2=F ITyADJ=14
 ICtDFT=  3500011 ScaDFX=  1.000000  1.000000  1.000000  1.000000
 FoFCou: FMM=F IPFlag=           0 FMFlag=      100000 FMFlg1=           0
         NFxFlg=           0 DoJE=T BraDBF=F KetDBF=T FulRan=T
         wScrn=  0.000000 ICntrl=       500 IOpCl=  0 I1Cent=   200000004 NGrid=           0
         NMat0=    1 NMatS0=      1 NMatT0=    0 NMatD0=    1 NMtDS0=    0 NMtDT0=    0
 Symmetry not used in FoFCou.
 Harris En= -115.557484988534    
 Leave Link  401 at Mon Apr 21 18:41:14 2025, MaxMem=   536870912 cpu:               2.6 elap:               0.4
 (Enter /home/szhao/Apps/g16/l502.exe)
 Keep R1 and R2 ints in memory in canonical form, NReq=12681626.
 FoFCou: FMM=F IPFlag=           0 FMFlag=           0 FMFlg1=           0
         NFxFlg=           0 DoJE=F BraDBF=F KetDBF=F FulRan=T
         wScrn=  0.000000 ICntrl=       600 IOpCl=  0 I1Cent=           0 NGrid=           0
         NMat0=    1 NMatS0=   2346 NMatT0=    0 NMatD0=    1 NMtDS0=    0 NMtDT0=    0
 Symmetry not used in FoFCou.
 Two-electron integral symmetry not used.
 UHF open shell SCF:
 Using DIIS extrapolation, IDIIS=  1040.
 NGot=   536870912 LenX=   531353782 LenY=   531348441
 Requested convergence on RMS density matrix=1.00D-08 within 128 cycles.
 Requested convergence on MAX density matrix=1.00D-06.
 Requested convergence on             energy=1.00D-06.
 No special actions if energy rises.

 Cycle   1  Pass 1  IDiag  1:
 E= -115.519745976778    
 DIIS: error= 8.13D-03 at cycle   1 NSaved=   1.
 NSaved= 1 IEnMin= 1 EnMin= -115.519745976778     IErMin= 1 ErrMin= 8.13D-03
 ErrMax= 8.13D-03  0.00D+00 EMaxC= 1.00D-01 BMatC= 1.77D-02 BMatP= 1.77D-02
 IDIUse=3 WtCom= 9.19D-01 WtEn= 8.13D-02
 Coeff-Com:  0.100D+01
 Coeff-En:   0.100D+01
 Coeff:      0.100D+01
 Gap=     0.509 Goal=   None    Shift=    0.000
 Gap=     0.509 Goal=   None    Shift=    0.000
 GapD=    0.509 DampG=2.000 DampE=1.000 DampFc=2.0000 IDamp=-1.
 RMSDP=9.28D-04 MaxDP=9.64D-03              OVMax= 3.42D-02

 Cycle   2  Pass 1  IDiag  1:
 E= -115.525742632471     Delta-E=       -0.005996655693 Rises=F Damp=F
 DIIS: error= 2.65D-03 at cycle   2 NSaved=   2.
 NSaved= 2 IEnMin= 2 EnMin= -115.525742632471     IErMin= 2 ErrMin= 2.65D-03
 ErrMax= 2.65D-03  0.00D+00 EMaxC= 1.00D-01 BMatC= 1.86D-03 BMatP= 1.77D-02
 IDIUse=3 WtCom= 9.73D-01 WtEn= 2.65D-02
 Coeff-Com:  0.667D-01 0.933D+00
 Coeff-En:   0.000D+00 0.100D+01
 Coeff:      0.649D-01 0.935D+00
 Gap=     0.187 Goal=   None    Shift=    0.000
 Gap=     0.187 Goal=   None    Shift=    0.000
 RMSDP=5.74D-04 MaxDP=9.27D-03 DE=-6.00D-03 OVMax= 4.72D-02

 Cycle   3  Pass 1  IDiag  1:
 E= -115.523988281491     Delta-E=        0.001754350980 Rises=F Damp=F
 DIIS: error= 7.59D-03 at cycle   3 NSaved=   3.
 NSaved= 3 IEnMin= 2 EnMin= -115.525742632471     IErMin= 2 ErrMin= 2.65D-03
 ErrMax= 7.59D-03  0.00D+00 EMaxC= 1.00D-01 BMatC= 1.01D-02 BMatP= 1.86D-03
 IDIUse=3 WtCom= 1.03D-01 WtEn= 8.97D-01
 Coeff-Com: -0.545D-01 0.752D+00 0.302D+00
 Coeff-En:   0.000D+00 0.770D+00 0.230D+00
 Coeff:     -0.562D-02 0.768D+00 0.238D+00
 Gap=     0.182 Goal=   None    Shift=    0.000
 Gap=     0.182 Goal=   None    Shift=    0.000
 RMSDP=3.18D-04 MaxDP=5.86D-03 DE= 1.75D-03 OVMax= 2.79D-02

 Cycle   4  Pass 1  IDiag  1:
 E= -115.526319566293     Delta-E=       -0.002331284802 Rises=F Damp=F
 DIIS: error= 1.05D-03 at cycle   4 NSaved=   4.
 NSaved= 4 IEnMin= 4 EnMin= -115.526319566293     IErMin= 4 ErrMin= 1.05D-03
 ErrMax= 1.05D-03  0.00D+00 EMaxC= 1.00D-01 BMatC= 2.03D-04 BMatP= 1.86D-03
 IDIUse=3 WtCom= 9.89D-01 WtEn= 1.05D-02
 Coeff-Com: -0.263D-01 0.782D-01-0.105D+00 0.105D+01
 Coeff-En:   0.000D+00 0.000D+00 0.000D+00 0.100D+01
 Coeff:     -0.261D-01 0.774D-01-0.103D+00 0.105D+01
 Gap=     0.181 Goal=   None    Shift=    0.000
 Gap=     0.181 Goal=   None    Shift=    0.000
 RMSDP=7.91D-05 MaxDP=1.04D-03 DE=-2.33D-03 OVMax= 3.77D-03

 Cycle   5  Pass 1  IDiag  1:
 E= -115.526378950936     Delta-E=       -0.000059384643 Rises=F Damp=F
 DIIS: error= 1.20D-04 at cycle   5 NSaved=   5.
 NSaved= 5 IEnMin= 5 EnMin= -115.526378950936     IErMin= 5 ErrMin= 1.20D-04
 ErrMax= 1.20D-04  0.00D+00 EMaxC= 1.00D-01 BMatC= 3.40D-06 BMatP= 2.03D-04
 IDIUse=3 WtCom= 9.99D-01 WtEn= 1.20D-03
 Coeff-Com:  0.612D-04-0.349D-01-0.301D-01 0.116D+00 0.949D+00
 Coeff-En:   0.000D+00 0.000D+00 0.000D+00 0.000D+00 0.100D+01
 Coeff:      0.611D-04-0.348D-01-0.300D-01 0.116D+00 0.949D+00
 Gap=     0.181 Goal=   None    Shift=    0.000
 Gap=     0.181 Goal=   None    Shift=    0.000
 RMSDP=2.63D-05 MaxDP=3.09D-04 DE=-5.94D-05 OVMax= 1.36D-03

 Cycle   6  Pass 1  IDiag  1:
 E= -115.526381122435     Delta-E=       -0.000002171499 Rises=F Damp=F
 DIIS: error= 1.37D-04 at cycle   6 NSaved=   6.
 NSaved= 6 IEnMin= 6 EnMin= -115.526381122435     IErMin= 5 ErrMin= 1.20D-04
 ErrMax= 1.37D-04  0.00D+00 EMaxC= 1.00D-01 BMatC= 2.40D-06 BMatP= 3.40D-06
 IDIUse=3 WtCom= 9.99D-01 WtEn= 1.20D-03
 Coeff-Com:  0.384D-02-0.264D-01-0.724D-02-0.996D-01 0.342D+00 0.787D+00
 Coeff-En:   0.000D+00 0.000D+00 0.000D+00 0.000D+00 0.000D+00 0.100D+01
 Coeff:      0.383D-02-0.264D-01-0.723D-02-0.995D-01 0.342D+00 0.788D+00
 Gap=     0.181 Goal=   None    Shift=    0.000
 Gap=     0.181 Goal=   None    Shift=    0.000
 RMSDP=1.04D-05 MaxDP=1.52D-04 DE=-2.17D-06 OVMax= 6.49D-04

 Cycle   7  Pass 1  IDiag  1:
 E= -115.526382033017     Delta-E=       -0.000000910581 Rises=F Damp=F
 DIIS: error= 1.78D-05 at cycle   7 NSaved=   7.
 NSaved= 7 IEnMin= 7 EnMin= -115.526382033017     IErMin= 7 ErrMin= 1.78D-05
 ErrMax= 1.78D-05  0.00D+00 EMaxC= 1.00D-01 BMatC= 4.60D-08 BMatP= 2.40D-06
 IDIUse=1 WtCom= 1.00D+00 WtEn= 0.00D+00
 Coeff-Com: -0.800D-03 0.953D-02 0.447D-02 0.293D-02-0.168D+00-0.177D+00
 Coeff-Com:  0.133D+01
 Coeff:     -0.800D-03 0.953D-02 0.447D-02 0.293D-02-0.168D+00-0.177D+00
 Coeff:      0.133D+01
 Gap=     0.181 Goal=   None    Shift=    0.000
 Gap=     0.181 Goal=   None    Shift=    0.000
 RMSDP=3.90D-06 MaxDP=4.50D-05 DE=-9.11D-07 OVMax= 3.07D-04

 Cycle   8  Pass 1  IDiag  1:
 E= -115.526382082077     Delta-E=       -0.000000049060 Rises=F Damp=F
 DIIS: error= 3.33D-06 at cycle   8 NSaved=   8.
 NSaved= 8 IEnMin= 8 EnMin= -115.526382082077     IErMin= 8 ErrMin= 3.33D-06
 ErrMax= 3.33D-06  0.00D+00 EMaxC= 1.00D-01 BMatC= 2.76D-09 BMatP= 4.60D-08
 IDIUse=1 WtCom= 1.00D+00 WtEn= 0.00D+00
 Coeff-Com: -0.285D-03 0.269D-02 0.112D-02 0.536D-02-0.356D-01-0.523D-01
 Coeff-Com:  0.226D+00 0.853D+00
 Coeff:     -0.285D-03 0.269D-02 0.112D-02 0.536D-02-0.356D-01-0.523D-01
 Coeff:      0.226D+00 0.853D+00
 Gap=     0.181 Goal=   None    Shift=    0.000
 Gap=     0.181 Goal=   None    Shift=    0.000
 RMSDP=6.76D-07 MaxDP=8.52D-06 DE=-4.91D-08 OVMax= 1.89D-05

 Cycle   9  Pass 1  IDiag  1:
 E= -115.526382082932     Delta-E=       -0.000000000855 Rises=F Damp=F
 DIIS: error= 1.23D-06 at cycle   9 NSaved=   9.
 NSaved= 9 IEnMin= 9 EnMin= -115.526382082932     IErMin= 9 ErrMin= 1.23D-06
 ErrMax= 1.23D-06  0.00D+00 EMaxC= 1.00D-01 BMatC= 3.38D-10 BMatP= 2.76D-09
 IDIUse=1 WtCom= 1.00D+00 WtEn= 0.00D+00
 Coeff-Com:  0.468D-04-0.562D-03-0.722D-04-0.450D-03 0.754D-02 0.108D-01
 Coeff-Com: -0.806D-01-0.117D+00 0.118D+01
 Coeff:      0.468D-04-0.562D-03-0.722D-04-0.450D-03 0.754D-02 0.108D-01
 Coeff:     -0.806D-01-0.117D+00 0.118D+01
 Gap=     0.181 Goal=   None    Shift=    0.000
 Gap=     0.181 Goal=   None    Shift=    0.000
 RMSDP=2.74D-07 MaxDP=3.43D-06 DE=-8.55D-10 OVMax= 8.54D-06

 Cycle  10  Pass 1  IDiag  1:
 E= -115.526382083071     Delta-E=       -0.000000000139 Rises=F Damp=F
 DIIS: error= 2.19D-07 at cycle  10 NSaved=  10.
[...]
           A3           0.00001  -0.00157   0.00147  -0.00155   0.00242
           A4          -0.00000   0.00139   0.00349   0.00140   0.00589
           A5           0.00001  -0.01066  -0.01267  -0.01065   0.00232
           A6          -0.00000   0.00150   0.00364   0.00152   0.00591
           A7           0.00001  -0.00590  -0.00852  -0.00590  -0.00061
           D1           0.00000   0.00751   0.01017   0.00752   0.00159
           D2           0.00000   0.00008   0.00010   0.00008   0.00002
           D3          -0.00000  -0.00760  -0.01028  -0.00761  -0.00161
                          A1        A2        A3        A4        A5
           A1           0.12521
           A2           0.02671   0.05542
           A3          -0.03456   0.02634   0.12566
           A4           0.00275   0.00274   0.00274   0.16867
           A5           0.00670   0.00909   0.00668   0.01038   0.16501
           A6           0.00269   0.00270   0.00267   0.00865   0.01042
           A7          -0.00481   0.00515  -0.00449   0.00143   0.00030
           D1           0.00279  -0.00056   0.00282  -0.00379   0.00062
           D2           0.00003  -0.00004   0.00003  -0.00002   0.00000
           D3          -0.00275   0.00050  -0.00278   0.00380  -0.00062
                          A6        A7        D1        D2        D3
           A6           0.16863
           A7           0.00150   0.04854
           D1          -0.00383  -0.00248   0.00341
           D2          -0.00002  -0.00002   0.00001   0.00230
           D3           0.00385   0.00246  -0.00111  -0.00001   0.00342
 ITU=  0  0  0  1  1  1  1  1  1  0
     Eigenvalues ---    0.00230   0.02868   0.05117   0.10992   0.12025
     Eigenvalues ---    0.12410   0.16000   0.34249   0.34654   0.42136
     Eigenvalues ---    0.563251000.000001000.000001000.000001000.00000
     Eigenvalues --- 1000.000001000.000001000.000001000.000001000.00000
 En-DIIS/RFO-DIIS/Sim-DIIS IScMMF=       -3 using points:    10    9    8    7    6    5    4
 RFO step:  Lambda=-2.25437267D-08.
 NNeg= 0 NGDIIS= 7 SimSw=  2.50D-01 Rises=F DC= -9.34D-08 SmlDif=  1.00D-05
 NRisDI= 0 DoIntr=F SqrtH=F CThrHd= 10.0 CDAdj=  3.0
 RMS Error=  0.8809027330D-04 NUsed= 7 OKEnD=F EnDIS=F
 InvSVX:  RCond= 9.07D-13 Info=           0 Equed=N FErr=  3.65D-09 BErr=  8.07D-17
 DIIS inversion failure, remove point   7.
 InvSVX:  RCond= 3.80D-11 Info=           0 Equed=N FErr=  7.96D-11 BErr=  8.02D-17
 DIIS inversion failure, remove point   6.
 InvSVX:  RCond= 1.74D-10 Info=           0 Equed=N FErr=  1.79D-11 BErr=  1.10D-16
 DIIS inversion failure, remove point   5.
 InvSVX:  RCond= 2.53D-10 Info=           0 Equed=N FErr=  1.48D-11 BErr=  5.52D-17
 DIIS inversion failure, remove point   4.
 InvSVX:  RCond= 1.38D-08 Info=           0 Equed=N FErr=  5.49D-14 BErr=  6.03D-17
 DIIS inversion failure, remove point   3.
 InvSVX:  RCond= 6.96D-07 Info=           0 Equed=N FErr=  1.42D-15 BErr=  6.64D-17
 RFO-DIIS uses    2 points instead of    7
 DidBck=F Rises=F RFO-DIIS coefs:    1.16150   -0.16150    0.00000    0.00000    0.00000
                  RFO-DIIS coefs:    0.00000    0.00000
 Iteration  1 RMS(Cart)=  0.00013127 RMS(Int)=  0.00000003
 Iteration  2 RMS(Cart)=  0.00000001 RMS(Int)=  0.00000003
 ITry= 1 IFail=0 DXMaxC= 3.16D-04 DCOld= 1.00D+10 DXMaxT= 8.49D-01 DXLimC= 3.00D+00 Rises=F
 Variable       Old X    -DE/DX   Delta X   Delta X   Delta X     New X
                                 (Linear)    (Quad)   (Total)
    X1       -2.61198  -0.00000   0.00000   0.00000   0.00000  -2.61198
    Y1        0.00000   0.00005   0.00000   0.00000   0.00000   0.00000
    Z1        0.00000  -0.00000   0.00000   0.00000   0.00000   0.00000
    X2        2.61198  -0.00000   0.00000   0.00000   0.00000   2.61198
    Y2        0.00000  -0.00001   0.00000   0.00000   0.00000   0.00000
    Z2        0.00000  -0.00000   0.00000   0.00000   0.00000   0.00000
    R1        2.04265   0.00005   0.00002   0.00009   0.00011   2.04276
    R2        2.04202   0.00006   0.00003   0.00013   0.00016   2.04217
    R3        2.04265   0.00005   0.00002   0.00009   0.00011   2.04276
    R4        1.82467   0.00001   0.00000   0.00002   0.00002   1.82470
    A1        1.66347  -0.00001  -0.00012  -0.00001  -0.00013   1.66334
    A2        1.55502   0.00000   0.00020  -0.00005   0.00016   1.55517
    A3        1.66352  -0.00001  -0.00012  -0.00000  -0.00013   1.66339
    A4        2.08554  -0.00001  -0.00000  -0.00007  -0.00007   2.08547
    A5        2.09540   0.00002   0.00001   0.00014   0.00016   2.09556
    A6        2.08554  -0.00001  -0.00000  -0.00007  -0.00007   2.08547
    A7        1.61807  -0.00001   0.00000  -0.00010  -0.00010   1.61798
    D1        1.05567   0.00001  -0.00001   0.00008   0.00007   1.05575
    D2       -3.14115   0.00000   0.00001   0.00001   0.00002  -3.14114
    D3       -1.05479  -0.00001   0.00002  -0.00006  -0.00004  -1.05483
         Item               Value     Threshold  Converged?
 Maximum Force            0.000064     0.000450     YES
 RMS     Force            0.000025     0.000300     YES
 Maximum Displacement     0.000316     0.001800     YES
 RMS     Displacement     0.000131     0.001200     YES
 Predicted change in Energy=-1.364579D-08
 Optimization completed.
    -- Stationary point found.
                           ----------------------------
                           !   Optimized Parameters   !
                           ! (Angstroms and Degrees)  !
 --------------------------                            --------------------------
 ! Name  Definition              Value          Derivative Info.                !
 --------------------------------------------------------------------------------
 ! X1    R(1,-1)                -1.3822         -DE/DX =    0.0                 !
 ! Y1    R(1,-2)                 0.0            -DE/DX =    0.0                 !
 ! Z1    R(1,-3)                 0.0            -DE/DX =    0.0                 !
 ! X2    R(2,-1)                 1.3822         -DE/DX =    0.0                 !
 ! Y2    R(2,-2)                 0.0            -DE/DX =    0.0                 !
 ! Z2    R(2,-3)                 0.0            -DE/DX =    0.0                 !
 ! R1    R(1,4)                  1.0809         -DE/DX =    0.0                 !
 ! R2    R(1,5)                  1.0806         -DE/DX =    0.0001              !
 ! R3    R(1,6)                  1.0809         -DE/DX =    0.0                 !
 ! R4    R(2,3)                  0.9656         -DE/DX =    0.0                 !
 ! A1    A(2,1,4)               95.31           -DE/DX =    0.0                 !
 ! A2    A(2,1,5)               89.0959         -DE/DX =    0.0                 !
 ! A3    A(2,1,6)               95.3126         -DE/DX =    0.0                 !
 ! A4    A(4,1,5)              119.4925         -DE/DX =    0.0                 !
 ! A5    A(4,1,6)              120.0578         -DE/DX =    0.0                 !
 ! A6    A(5,1,6)              119.4927         -DE/DX =    0.0                 !
 ! A7    A(1,2,3)               92.7087         -DE/DX =    0.0                 !
 ! D1    D(4,1,2,3)             60.4855         -DE/DX =    0.0                 !
 ! D2    D(5,1,2,3)           -179.9748         -DE/DX =    0.0                 !
 ! D3    D(6,1,2,3)            -60.4347         -DE/DX =    0.0                 !
 --------------------------------------------------------------------------------
 Lowest energy point so far.  Saving SCF results.
 Largest change from initial coordinates is atom    5       0.317 Angstoms.
 GradGradGradGradGradGradGradGradGradGradGradGradGradGradGradGradGradGrad

 Leave Link  103 at Mon Apr 21 18:42:42 2025, MaxMem=   536870912 cpu:               0.5 elap:               0.1
 (Enter /home/szhao/Apps/g16/l202.exe)
                          Input orientation:                          
 ---------------------------------------------------------------------
 Center     Atomic      Atomic             Coordinates (Angstroms)
 Number     Number       Type             X           Y           Z
 ---------------------------------------------------------------------
      1          6           0       -1.382203    0.000000    0.000000
      2          8           0        1.382203    0.000000    0.000000
      3          1           0        1.427833   -0.964497    0.000264
      4          1           0       -1.482236   -0.529967    0.936762
      5          1           0       -1.365153    1.080454   -0.000772
      6          1           0       -1.482285   -0.531309   -0.935997
 ---------------------------------------------------------------------
                    Distance matrix (angstroms):
                    1          2          3          4          5
     1  C    0.000000
     2  O    2.764405   0.000000
     3  H    2.970952   0.965575   0.000000
     4  H    1.080923   3.059967   3.087774   0.000000
     5  H    1.080589   2.952176   3.461589   1.867120   0.000000
     6  H    1.080923   3.060011   3.087559   1.872759   1.867122
                    6
     6  H    0.000000
 Symmetry turned off by external request.
 Stoichiometry    CH4O
 Framework group  C1[X(CH4O)]
 Deg. of freedom    12
 Full point group                 C1      NOp   1
 Rotational constants (GHZ):         114.9707213           7.9678972           7.8611783
 Leave Link  202 at Mon Apr 21 18:42:42 2025, MaxMem=   536870912 cpu:               0.1 elap:               0.0
 (Enter /home/szhao/Apps/g16/l601.exe)
 Copying SCF densities to generalized density rwf, IOpCl= 1 IROHF=0.

 **********************************************************************

            Population analysis using the SCF density.

 **********************************************************************

 Alpha  occ. eigenvalues --  -19.59562 -10.65931  -1.01815  -0.83435  -0.55527
 Alpha  occ. eigenvalues --   -0.55261  -0.46261  -0.33214  -0.31140
 Alpha virt. eigenvalues --   -0.12924   0.00731   0.04155   0.04601   0.06493
 Alpha virt. eigenvalues --    0.14141   0.15798   0.16039   0.20146   0.22909
 Alpha virt. eigenvalues --    0.23052   0.24618   0.31525   0.39911   0.40367
 Alpha virt. eigenvalues --    0.46786   0.57971   0.59931   0.60853   0.61942
 Alpha virt. eigenvalues --    0.79852   1.05035   1.05723   1.09131   1.13698
 Alpha virt. eigenvalues --    1.15772   1.38805   1.39347   1.42039   1.43492
 Alpha virt. eigenvalues --    1.45579   1.47510   1.52257   1.74636   1.86911
 Alpha virt. eigenvalues --    1.86936   1.97015   1.97064   2.12948   2.39995
 Alpha virt. eigenvalues --    2.42909   2.43123   2.53994   2.61242   2.61539
 Alpha virt. eigenvalues --    2.72536   2.78060   2.96334   3.03509   3.24445
 Alpha virt. eigenvalues --    3.25628   3.70012   3.70540   3.91804   5.12233
 Alpha virt. eigenvalues --    5.14178   5.59908  23.89435  49.96197
  Beta  occ. eigenvalues --  -19.59562 -10.65931  -1.01815  -0.83435  -0.55527
  Beta  occ. eigenvalues --   -0.55261  -0.46261  -0.33214  -0.31140
  Beta virt. eigenvalues --   -0.12924   0.00731   0.04155   0.04601   0.06493
  Beta virt. eigenvalues --    0.14141   0.15798   0.16039   0.20146   0.22909
  Beta virt. eigenvalues --    0.23052   0.24618   0.31525   0.39911   0.40367
  Beta virt. eigenvalues --    0.46786   0.57971   0.59931   0.60853   0.61942
  Beta virt. eigenvalues --    0.79852   1.05035   1.05723   1.09131   1.13698
  Beta virt. eigenvalues --    1.15772   1.38805   1.39347   1.42039   1.43492
  Beta virt. eigenvalues --    1.45579   1.47510   1.52257   1.74636   1.86911
  Beta virt. eigenvalues --    1.86936   1.97015   1.97064   2.12948   2.39995
  Beta virt. eigenvalues --    2.42909   2.43123   2.53994   2.61242   2.61539
  Beta virt. eigenvalues --    2.72536   2.78060   2.96334   3.03509   3.24445
  Beta virt. eigenvalues --    3.25628   3.70012   3.70540   3.91804   5.12233
  Beta virt. eigenvalues --    5.14178   5.59908  23.89435  49.96197
          Condensed to atoms (all electrons):
               1          2          3          4          5          6
     1  C    5.010372   0.119209   0.003159   0.383439   0.389851   0.383437
     2  O    0.119209   8.220311   0.237842  -0.005114  -0.006231  -0.005113
     3  H    0.003159   0.237842   0.543555  -0.000327   0.000202  -0.000327
     4  H    0.383439  -0.005114  -0.000327   0.457384  -0.018994  -0.022256
     5  H    0.389851  -0.006231   0.000202  -0.018994   0.431414  -0.018996
     6  H    0.383437  -0.005113  -0.000327  -0.022256  -0.018996   0.457399
          Atomic-Atomic Spin Densities.
               1          2          3          4          5          6
     1  C   -0.000000  -0.000000  -0.000000   0.000000   0.000000   0.000000
     2  O   -0.000000   0.000000   0.000000  -0.000000  -0.000000  -0.000000
     3  H   -0.000000   0.000000  -0.000000   0.000000  -0.000000   0.000000
     4  H    0.000000  -0.000000   0.000000   0.000000  -0.000000  -0.000000
     5  H    0.000000  -0.000000  -0.000000  -0.000000   0.000000  -0.000000
     6  H    0.000000  -0.000000   0.000000  -0.000000  -0.000000   0.000000
 Mulliken charges and spin densities:
               1          2
     1  C   -0.289468  -0.000000
     2  O   -0.560905   0.000000
     3  H    0.215897  -0.000000
     4  H    0.205868   0.000000
     5  H    0.222753   0.000000
     6  H    0.205855   0.000000
 Sum of Mulliken charges =  -0.00000   0.00000
 Mulliken charges and spin densities with hydrogens summed into heavy atoms:
               1          2
     1  C    0.345008  -0.000000
     2  O   -0.345008   0.000000
 Electronic spatial extent (au):  <R**2>=            169.5337
 Charge=              0.0000 electrons
 Dipole moment (field-independent basis, Debye):
    X=             -4.8278    Y=             -1.5485    Z=              0.0004  Tot=              5.0700
 Quadrupole moment (field-independent basis, Debye-Ang):
   XX=            -13.2442   YY=            -11.4181   ZZ=            -13.8428
   XY=             -2.4216   XZ=              0.0006   YZ=             -0.0007
 Traceless Quadrupole moment (field-independent basis, Debye-Ang):
   XX=             -0.4092   YY=              1.4170   ZZ=             -1.0078
   XY=             -2.4216   XZ=              0.0006   YZ=             -0.0007
 Octapole moment (field-independent basis, Debye-Ang**2):
  XXX=             -5.5614  YYY=              1.2775  ZZZ=              0.0023  XYY=              1.2837
  XXY=             -3.4429  XXZ=              0.0010  XZZ=             -2.4016  YZZ=             -0.7605
  YYZ=             -0.0024  XYZ=             -0.0011
 Hexadecapole moment (field-independent basis, Debye-Ang**3):
 XXXX=           -177.7656 YYYY=            -19.2884 ZZZZ=            -20.2253 XXXY=             -3.0677
 XXXZ=              0.0008 YYYX=             -2.3453 YYYZ=             -0.0005 ZZZX=             -0.0043
 ZZZY=              0.0002 XXYY=            -27.8868 XXZZ=            -32.0709 YYZZ=             -6.9347
 XXYZ=             -0.0008 YYXZ=              0.0043 ZZXY=              2.3054
 N-N= 2.900045104904D+01 E-N=-3.292668690797D+02  KE= 1.148992530183D+02
                          Isotropic Fermi Contact Couplings
        Atom                 a.u.       MegaHertz       Gauss      10(-4) cm-1
     1  C(13)             -0.00000      -0.00000      -0.00000      -0.00000
     2  O(17)              0.00000      -0.00000      -0.00000      -0.00000
     3  H(1)              -0.00000      -0.00000      -0.00000      -0.00000
     4  H(1)               0.00000       0.00000       0.00000       0.00000
     5  H(1)               0.00000       0.00000       0.00000       0.00000
     6  H(1)               0.00000       0.00000       0.00000       0.00000
 --------------------------------------------------------
       Center         ----  Spin Dipole Couplings  ----
                      3XX-RR        3YY-RR        3ZZ-RR
 --------------------------------------------------------
     1   Atom       -0.000000      0.000000      0.000000
     2   Atom        0.000000     -0.000000     -0.000000
     3   Atom       -0.000000      0.000000     -0.000000
     4   Atom        0.000000      0.000000     -0.000000
     5   Atom        0.000000     -0.000000      0.000000
     6   Atom        0.000000      0.000000     -0.000000
 --------------------------------------------------------
                        XY            XZ            YZ
 --------------------------------------------------------
     1   Atom        0.000000     -0.000000      0.000000
     2   Atom        0.000000     -0.000000     -0.000000
     3   Atom       -0.000000     -0.000000     -0.000000
     4   Atom        0.000000      0.000000      0.000000
     5   Atom       -0.000000      0.000000      0.000000
     6   Atom        0.000000     -0.000000     -0.000000
 --------------------------------------------------------


 ---------------------------------------------------------------------------------
              Anisotropic Spin Dipole Couplings in Principal Axis System
 ---------------------------------------------------------------------------------

       Atom             a.u.   MegaHertz   Gauss  10(-4) cm-1        Axes

              Baa    -0.0000    -0.000    -0.000    -0.000  0.9978 -0.0664  0.0000
     1 C(13)  Bbb     0.0000     0.000     0.000     0.000  0.0000  0.0007  1.0000
              Bcc     0.0000     0.000     0.000     0.000  0.0664  0.9978 -0.0007
 
              Baa    -0.0000     0.000     0.000     0.000 -0.0348  0.9994 -0.0005
     2 O(17)  Bbb    -0.0000     0.000     0.000     0.000  0.0002  0.0005  1.0000
              Bcc     0.0000    -0.000    -0.000    -0.000  0.9994  0.0348 -0.0002
 
              Baa    -0.0000    -0.000    -0.000    -0.000  0.0002  0.0003  1.0000
     3 H(1)   Bbb    -0.0000    -0.000    -0.000    -0.000  0.9999  0.0115 -0.0002
              Bcc     0.0000     0.000     0.000     0.000 -0.0115  0.9999 -0.0003
 
              Baa    -0.0000    -0.000    -0.000    -0.000 -0.0031 -0.4942  0.8694
     4 H(1)   Bbb     0.0000     0.000     0.000     0.000  0.9970 -0.0689 -0.0356
              Bcc     0.0000     0.000     0.000     0.000  0.0775  0.8666  0.4929
 
              Baa    -0.0000    -0.000    -0.000    -0.000  0.0697  0.9976 -0.0007
     5 H(1)   Bbb     0.0000     0.000     0.000     0.000  0.9976 -0.0697  0.0000
              Bcc     0.0000     0.000     0.000     0.000  0.0000  0.0007  1.0000
 
              Baa    -0.0000    -0.000    -0.000    -0.000  0.0032  0.4954  0.8687
     6 H(1)   Bbb     0.0000     0.000     0.000     0.000  0.9970 -0.0689  0.0356
              Bcc     0.0000     0.000     0.000     0.000  0.0775  0.8659 -0.4941
 

 ---------------------------------------------------------------------------------

 No NMR shielding tensors so no spin-rotation constants.
 Leave Link  601 at Mon Apr 21 18:42:43 2025, MaxMem=   536870912 cpu:               2.3 elap:               0.4
 (Enter /home/szhao/Apps/g16/l9999.exe)
 1\1\GINC-NODE06\FOpt\UM062X\6-311+G(d,p)\C1H4O1\SZHAO\21-Apr-2025\0\\#
 p opt UM062X/6-311+G** nosymm int=superfine\\Title Card Required\\0,1\
 C,-1.38220268,0.,0.\O,1.38220268,0.,0.\H,1.4278331477,-0.9644966502,0.
 000264442\H,-1.4822359506,-0.5299674607,0.9367620442\H,-1.3651526771,1
 .0804542943,-0.0007722335\H,-1.4822848669,-0.531308847,-0.9359967322\\
 Version=ES64L-G16RevA.03\HF=-115.5265858\S2=0.\S2-1=0.\S2A=0.\RMSD=6.0
 95e-09\RMSF=2.236e-05\Dipole=-1.8993884,-0.6092434,0.0001667\Quadrupol
 e=-0.3042354,1.0534851,-0.7492497,-1.8004092,0.0004827,-0.0004971\PG=C
 01 [X(C1H4O1)]\\@


 The arm of the moral universe is long, but it bends toward justice.
 -- Martin Luther King, Jr.
 Job cpu time:       0 days  0 hours 12 minutes  9.0 seconds.
 Elapsed time:       0 days  0 hours  1 minutes 41.1 seconds.
 File lengths (MBytes):  RWF=     22 Int=      0 D2E=      0 Chk=      2 Scr=      2
 Normal termination of Gaussian 16 at Mon Apr 21 18:42:43 2025.
