Title Card Required                                                     
FOpt      UM062X                                                      6-311+G(d,p)        
Number of atoms                            I                4
Info1-9                                    I   N=           9
          13          13           0           0           0         110
           2          18        -502
Full Title                                 C   N=           2
Title Card Required     
Route                                      C   N=           4
#p opt UM062X/6-311+G** nosymm int=superfine    
Charge                                     I                0
Multiplicity                               I                1
Number of electrons                        I               26
Number of alpha electrons                  I               13
Number of beta electrons                   I               13
Number of basis functions                  I               64
Number of independent functions            I               64
Number of point charges in /Mol/           I                0
Number of translation vectors              I                0
Atomic numbers                             I   N=           4
           8          16           1           1
Nuclear charges                            R   N=           4
  8.00000000E+00  1.60000000E+01  1.00000000E+00  1.00000000E+00
Current cartesian coordinates              R   N=          12
 -3.42228078E+00 -2.34326039E-04  1.60626721E-04  3.42230724E+00  3.62827416E-04
 -3.42040429E-04 -3.35727266E+00  1.17465612E+00  1.40608424E+00  2.93982839E+00
 -1.03789815E+00 -2.27401140E+00
Number of symbols in /Mol/                 I                0
Force Field                                I                0
Atom Types                                 C   N=           4
                                                
Int Atom Types                             I   N=           4
           0           0           0           0
MM charges                                 R   N=           4
  0.00000000E+00  0.00000000E+00  0.00000000E+00  0.00000000E+00
Integer atomic weights                     I   N=           4
          16          32           1           1
Real atomic weights                        R   N=           4
  1.59949146E+01  3.19720718E+01  1.00782504E+00  1.00782504E+00
Atom fragment info                         I   N=           4
           0           0           0           0
Atom residue num                           I   N=           4
           0           0           0           0
Nuclear spins                              I   N=           4
           0           0           1           1
Nuclear ZEff                               R   N=           4
 -5.60000000E+00 -1.36000000E+01 -1.00000000E+00 -1.00000000E+00
Nuclear ZNuc                               R   N=           4
  8.00000000E+00  1.60000000E+01  1.00000000E+00  1.00000000E+00
Nuclear QMom                               R   N=           4
  0.00000000E+00  0.00000000E+00  0.00000000E+00  0.00000000E+00
Nuclear GFac                               R   N=           4
  0.00000000E+00  0.00000000E+00  2.79284600E+00  2.79284600E+00
MicOpt                                     I   N=           4
          -2          -2          -1          -1
Number of residues                         I                0
Number of secondary structures             I                0
Redundant internal dimensions              I   N=           4
          12          10           2           0
Redundant internal coordinate indices      I   N=          48
           1          -1           0           0           1          -2
           0           0           1          -3           0           0
           2          -1           0           0           2          -2
           0           0           2          -3           0           0
           1           3           0           0           1           4
           0           0           2           3           0           0
           2           4           0           0           3           1
           4           0           3           2           4           0
Redundant internal coordinates             R   N=          12
 -3.42228078E+00 -2.34326039E-04  1.60626721E-04  3.42230724E+00  3.62827416E-04
 -3.42040429E-04  1.83336162E+00  6.83557150E+00  7.02279881E+00  2.54565199E+00
  1.89590269E+00  1.63494104E+00
ZRed-IntVec                                I   N=          12
          -1          -1          -1          -1          -1          -1
           0           0           0           0           0           0
ZRed-FPVec                                 R   N=          12
  0.00000000E+00  0.00000000E+00  0.00000000E+00  0.00000000E+00  0.00000000E+00
  0.00000000E+00  0.00000000E+00  0.00000000E+00  0.00000000E+00  0.00000000E+00
  0.00000000E+00  0.00000000E+00
ZRed-Constraint1                           R   N=          12
 -3.42228078E+00 -2.34326039E-04  1.60626721E-04  3.42230724E+00  3.62827416E-04
 -3.42040429E-04  1.86769308E+00  6.84030788E+00  7.02313524E+00  2.54728704E+00
  1.88165574E+00  1.63457679E+00
ZRed-Constraint2                           R   N=          12
 -3.42228078E+00 -2.34326039E-04  1.60626721E-04  3.42230724E+00  3.62827416E-04
 -3.42040429E-04  0.00000000E+00  0.00000000E+00  0.00000000E+00  0.00000000E+00
  0.00000000E+00  0.00000000E+00
Number of contracted shells                I               27
Number of primitive shells                 I               49
Pure/Cartesian d shells                    I                0
Pure/Cartesian f shells                    I                0
Highest angular momentum                   I                2
Largest degree of contraction              I                6
Shell types                                I   N=          27
           0          -1          -1          -1          -1          -2
           0           0           0           0           0           0
          -1           1           1           1           1           1
          -2           0           0           0           1           0
           0           0           1
Number of primitives per shell             I   N=          27
           6           3           1           1           1           1
           6           3           1           1           1           1
           1           4           2           1           1           1
           1           3           1           1           1           3
           1           1           1
Shell to atom map                          I   N=          27
           1           1           1           1           1           1
           2           2           2           2           2           2
           2           2           2           2           2           2
           2           3           3           3           3           4
           4           4           4
Primitive exponents                        R   N=          49
  8.58850000E+03  1.29723000E+03  2.99296000E+02  8.73771000E+01  2.56789000E+01
  3.74004000E+00  4.21175000E+01  9.62837000E+00  2.85332000E+00  9.05661000E-01
  2.55611000E-01  8.45000000E-02  1.29200000E+00  9.34134000E+04  1.39617000E+04
  3.16991000E+03  9.02456000E+02  2.97158000E+02  1.08702000E+02  1.08702000E+02
  4.31553000E+01  1.81079000E+01  5.56009000E+00  2.13183000E+00  4.20403000E-01
  1.36045000E-01  4.05000000E-02  4.95040000E+02  1.17221000E+02  3.77749000E+01
  1.40584000E+01  5.56574000E+00  2.26297000E+00  8.07994000E-01  2.77460000E-01
  7.71410000E-02  6.50000000E-01  3.38650000E+01  5.09479000E+00  1.15879000E+00
  3.25840000E-01  1.02741000E-01  7.50000000E-01  3.38650000E+01  5.09479000E+00
  1.15879000E+00  3.25840000E-01  1.02741000E-01  7.50000000E-01
Contraction coefficients                   R   N=          49
  1.89515008E-03  1.43859006E-02  7.07320031E-02  2.40001011E-01  5.94797026E-01
  2.80802012E-01  1.13889012E-01  9.20811101E-01 -3.27447036E-03  1.00000000E+00
  1.00000000E+00  1.00000000E+00  1.00000000E+00  7.42999957E-04  5.79299966E-03
  2.99539983E-02  1.19027993E-01  3.68431979E-01  5.77298966E-01  1.43186060E-01
  6.24465262E-01  2.83366119E-01  1.00000000E+00  1.00000000E+00  1.00000000E+00
  1.00000000E+00  1.00000000E+00  8.30900251E-03  6.40240194E-02  2.77614084E-01
  7.45076225E-01  6.13711672E-01  4.43817763E-01  1.00000000E+00  1.00000000E+00
  1.00000000E+00  1.00000000E+00  2.54938145E-02  1.90373109E-01  8.52161486E-01
  1.00000000E+00  1.00000000E+00  1.00000000E+00  2.54938145E-02  1.90373109E-01
  8.52161486E-01  1.00000000E+00  1.00000000E+00  1.00000000E+00
P(S=P) Contraction coefficients            R   N=          49
  0.00000000E+00  0.00000000E+00  0.00000000E+00  0.00000000E+00  0.00000000E+00
  0.00000000E+00  3.65113974E-02  2.37152983E-01  8.19701941E-01  1.00000000E+00
  1.00000000E+00  1.00000000E+00  0.00000000E+00  0.00000000E+00  0.00000000E+00
  0.00000000E+00  0.00000000E+00  0.00000000E+00  0.00000000E+00  0.00000000E+00
  0.00000000E+00  0.00000000E+00  0.00000000E+00  0.00000000E+00  0.00000000E+00
  0.00000000E+00  1.00000000E+00  0.00000000E+00  0.00000000E+00  0.00000000E+00
  0.00000000E+00  0.00000000E+00  0.00000000E+00  0.00000000E+00  0.00000000E+00
  0.00000000E+00  0.00000000E+00  0.00000000E+00  0.00000000E+00  0.00000000E+00
  0.00000000E+00  0.00000000E+00  0.00000000E+00  0.00000000E+00  0.00000000E+00
  0.00000000E+00  0.00000000E+00  0.00000000E+00  0.00000000E+00
Coordinates of each shell                  R   N=          81
 -3.42228078E+00 -2.34326039E-04  1.60626721E-04 -3.42228078E+00 -2.34326039E-04
  1.60626721E-04 -3.42228078E+00 -2.34326039E-04  1.60626721E-04 -3.42228078E+00
 -2.34326039E-04  1.60626721E-04 -3.42228078E+00 -2.34326039E-04  1.60626721E-04
 -3.42228078E+00 -2.34326039E-04  1.60626721E-04  3.42230724E+00  3.62827416E-04
 -3.42040429E-04  3.42230724E+00  3.62827416E-04 -3.42040429E-04  3.42230724E+00
  3.62827416E-04 -3.42040429E-04  3.42230724E+00  3.62827416E-04 -3.42040429E-04
  3.42230724E+00  3.62827416E-04 -3.42040429E-04  3.42230724E+00  3.62827416E-04
 -3.42040429E-04  3.42230724E+00  3.62827416E-04 -3.42040429E-04  3.42230724E+00
  3.62827416E-04 -3.42040429E-04  3.42230724E+00  3.62827416E-04 -3.42040429E-04
  3.42230724E+00  3.62827416E-04 -3.42040429E-04  3.42230724E+00  3.62827416E-04
 -3.42040429E-04  3.42230724E+00  3.62827416E-04 -3.42040429E-04  3.42230724E+00
  3.62827416E-04 -3.42040429E-04 -3.35727266E+00  1.17465612E+00  1.40608424E+00
 -3.35727266E+00  1.17465612E+00  1.40608424E+00 -3.35727266E+00  1.17465612E+00
  1.40608424E+00 -3.35727266E+00  1.17465612E+00  1.40608424E+00  2.93982839E+00
 -1.03789815E+00 -2.27401140E+00  2.93982839E+00 -1.03789815E+00 -2.27401140E+00
  2.93982839E+00 -1.03789815E+00 -2.27401140E+00  2.93982839E+00 -1.03789815E+00
 -2.27401140E+00
Num ILSW                                   I              100
ILSW                                       I   N=         100
           1           0           0           1           2           0
           0           0           0           0        4336          -1
           7           0           0           0           2           0
           0           0           0           0           1           0
           1           1           0           0           0           0
           0           0      100000           0          -1           0
           0           0           0           0           0           0
           0           0           0           1           0           0
           0 -2000000000           1           0           0           0
           0           0           4          52           0           0
           0           0          55           0           0           0
           0           0           0           4           0           1
           0           0           0           0           0           0
           0           0           0           0           0           0
           0           0           0           0           0           0
           0           0           0           0           0           0
           0           0           0           0
Num RLSW                                   I               52
RLSW                                       R   N=          52
  1.00000000E+00  1.00000000E+00  1.00000000E+00  1.00000000E+00  5.40000000E-01
  0.00000000E+00  0.00000000E+00  1.00000000E+00  0.00000000E+00  0.00000000E+00
  0.00000000E+00  0.00000000E+00  1.00000000E+00  0.00000000E+00  0.00000000E+00
  0.00000000E+00  0.00000000E+00  1.00000000E+00  0.00000000E+00  0.00000000E+00
  0.00000000E+00  0.00000000E+00  1.00000000E+00  0.00000000E+00  0.00000000E+00
  0.00000000E+00  0.00000000E+00  1.00000000E+00  0.00000000E+00  0.00000000E+00
  0.00000000E+00  0.00000000E+00  1.00000000E+00  0.00000000E+00  0.00000000E+00
  0.00000000E+00  0.00000000E+00  0.00000000E+00  1.00000000E+00  1.00000000E+00
  0.00000000E+00  1.00000000E+00  0.00000000E+00  0.00000000E+00  0.00000000E+00
  0.00000000E+00  0.00000000E+00  0.00000000E+00  0.00000000E+00  0.00000000E+00
  0.00000000E+00  0.00000000E+00
MxBond                                     I                3
NBond                                      I   N=           4
           3           3           2           2
IBond                                      I   N=          12
           2           3           4           1           3           4
           1           2           0           1           2           0
RBond                                      R   N=          12
  1.00000000E-01  1.00000000E+00  1.00000000E-01  1.00000000E-01  1.00000000E-01
  1.00000000E+00  1.00000000E+00  1.00000000E-01  0.00000000E+00  1.00000000E-01
  1.00000000E+00  0.00000000E+00
Virial Ratio                               R      2.001655268983443E+00
SCF Energy                                 R     -4.743683763016086E+02
Total Energy                               R     -4.743683763016086E+02
S**2                                       R     -5.861977570020827E-14
S**2 after annihilation                    R      3.730349362740377E-14
RMS Force                                  R      6.792171726114091E-06
RMS Density                                R      7.547212470967464E-09
Job Status                                 I                1
Nuclear derivative order                   I                1
External E-field                           R   N=          35
  0.00000000E+00  0.00000000E+00  0.00000000E+00  0.00000000E+00  0.00000000E+00
  0.00000000E+00  0.00000000E+00  0.00000000E+00  0.00000000E+00  0.00000000E+00
  0.00000000E+00  0.00000000E+00  0.00000000E+00  0.00000000E+00  0.00000000E+00
  0.00000000E+00  0.00000000E+00  0.00000000E+00  0.00000000E+00  0.00000000E+00
  0.00000000E+00  0.00000000E+00  0.00000000E+00  0.00000000E+00  0.00000000E+00
  0.00000000E+00  0.00000000E+00  0.00000000E+00  0.00000000E+00  0.00000000E+00
  0.00000000E+00  0.00000000E+00  0.00000000E+00  0.00000000E+00  0.00000000E+00
IOpCl                                      I                1
IROHF                                      I                0
Alpha Orbital Energies                     R   N=          64
 -8.99782773E+01 -1.96718366E+01 -8.34001816E+00 -6.26210485E+00 -6.25848089E+00
 -6.25279351E+00 -1.08409390E+00 -8.39043549E-01 -5.24961804E-01 -4.97699775E-01
 -3.97213955E-01 -3.58135320E-01 -3.36233570E-01 -2.29621138E-01  1.57085023E-02
  3.86741002E-02  4.69076143E-02  5.37615465E-02  6.77743546E-02  1.31873761E-01
  1.92230979E-01  1.98285544E-01  2.11070679E-01  2.49457902E-01  3.07826758E-01
  3.39601989E-01  3.45530251E-01  3.90065627E-01  5.34331665E-01  5.88650376E-01
  6.97546867E-01  7.13835470E-01  7.84353866E-01  7.90149363E-01  9.68834664E-01
  1.03874390E+00  1.07928053E+00  1.09607119E+00  1.36690360E+00  1.39293071E+00
  1.39862373E+00  1.45710177E+00  1.45754200E+00  1.64014034E+00  1.66095762E+00
  1.67667412E+00  2.05741557E+00  2.08782551E+00  2.47717562E+00  2.52553318E+00
  2.87919799E+00  2.88676582E+00  3.16499787E+00  3.18797099E+00  3.84325233E+00
  5.03235515E+00  5.04282693E+00  5.51079970E+00  7.81201411E+00  1.74056959E+01
  1.74180898E+01  1.74525821E+01  4.98683257E+01  1.89071917E+02
Beta Orbital Energies                      R   N=          64
 -8.99782773E+01 -1.96718366E+01 -8.34001816E+00 -6.26210485E+00 -6.25848089E+00
 -6.25279351E+00 -1.08409390E+00 -8.39043549E-01 -5.24961804E-01 -4.97699775E-01
 -3.97213955E-01 -3.58135320E-01 -3.36233570E-01 -2.29621138E-01  1.57085023E-02
  3.86741003E-02  4.69076143E-02  5.37615465E-02  6.77743546E-02  1.31873761E-01
  1.92230980E-01  1.98285544E-01  2.11070678E-01  2.49457902E-01  3.07826758E-01
  3.39601989E-01  3.45530251E-01  3.90065627E-01  5.34331665E-01  5.88650376E-01
  6.97546867E-01  7.13835470E-01  7.84353866E-01  7.90149363E-01  9.68834664E-01
  1.03874390E+00  1.07928053E+00  1.09607119E+00  1.36690360E+00  1.39293071E+00
  1.39862373E+00  1.45710177E+00  1.45754200E+00  1.64014034E+00  1.66095762E+00
  1.67667412E+00  2.05741557E+00  2.08782551E+00  2.47717562E+00  2.52553318E+00
  2.87919799E+00  2.88676582E+00  3.16499787E+00  3.18797099E+00  3.84325233E+00
  5.03235515E+00  5.04282693E+00  5.51079970E+00  7.81201411E+00  1.74056959E+01
  1.74180898E+01  1.74525821E+01  4.98683257E+01  1.89071917E+02
Alpha MO coefficients                      R   N=        4096
  2.47427574E-07 -1.17047348E-06 -7.56976214E-07 -6.88338387E-08 -2.68216357E-07
  8.67391769E-06  2.83285667E-06  2.04073084E-07  8.42336374E-07 -3.64188682E-05
 -1.58580373E-05 -7.80918074E-06 -1.07102366E-05  1.59472981E-04  3.60719583E-05
  5.55944438E-05  6.79770655E-05 -6.46584928E-07  7.09920984E-07 -4.51679636E-07
  9.27760560E-07  6.30025387E-07  4.10786042E-01  6.54412278E-01  1.53469717E-02
 -4.34078756E-03  1.59871153E-03 -8.90374230E-04  1.39504806E-04 -2.36370293E-05
 -8.48101493E-06 -1.90006418E-05 -2.91631596E-05 -3.07387032E-05 -6.80352616E-05
  7.82745530E-06  1.01889150E-05  2.24922147E-05  2.39647820E-06  3.02152735E-06
  6.55980995E-06 -4.28638918E-05 -7.33358673E-05 -1.60743099E-04  7.13338593E-05
  7.31417712E-05  1.61375222E-04  6.19549671E-05  2.49130561E-05  5.82080631E-05
 -6.46528272E-06  1.15886384E-05 -1.48366746E-06  2.61753559E-05 -1.80493951E-04
 -3.96184710E-06 -7.36098546E-07 -1.08769824E-06  2.69814564E-05 -2.18775101E-04
  2.69388559E-04 -3.38507240E-05 -7.11269418E-05 -1.55596371E-04  5.52843293E-01
  4.69703269E-01  1.88075156E-04  7.97675022E-04  9.51770137E-04  8.01727035E-03
 -1.82051861E-05 -7.69001725E-05 -9.05446625E-05 -2.99750956E-03 -1.03945679E-04
  1.08263218E-04  1.27493369E-04  2.32769852E-03  2.92909150E-04  2.37273543E-04
  2.85667246E-04  6.10897783E-05  7.70900018E-06  1.12101387E-04 -6.53178034E-05
  7.13123748E-06  5.09074019E-08 -8.52629535E-07  7.14143423E-06 -1.66745723E-05
  4.48603456E-05 -3.56090006E-05 -4.03428552E-04  2.68434258E-04  1.30445145E-05
  1.34206970E-05 -1.79415398E-07 -9.89380572E-08 -2.63310359E-07  1.13306671E-05
 -2.45678057E-07 -6.96887704E-07 -3.44345535E-05  8.27128480E-08  5.84256652E-07
  3.00158639E-05  2.10352307E-06  4.04013838E-06  3.65812409E-05  5.08273698E-05
  1.21644651E-04  2.41442584E-06 -4.28840473E-06 -8.85585287E-06 -2.00698486E-05
 -1.88103785E-06  5.48143311E-05  1.97155042E-05 -1.06594684E-03  1.78080543E-05
  2.85866702E-04  3.41865816E-04  4.76527910E-06 -7.72107019E-06  2.49748146E-04
  1.34078349E-06  1.66247383E-06  4.64440212E-06 -1.44946752E-06 -7.39870282E-06
  1.32827959E-05 -1.97850139E-06 -3.71902630E-06  7.73188924E-05  2.03705900E-05
  6.42223017E-06  1.43513371E-05 -3.61119549E-04 -1.19796020E-04 -8.02523689E-05
 -1.12055818E-04  2.02088723E-03  4.22643597E-04  7.41516605E-04  9.05074781E-04
 -6.64208918E-06  9.77926986E-06  1.32670431E-06  1.17440134E-05  8.30889846E-06
 -1.19757645E-01 -3.20468079E-01  5.15933444E-01  5.99071149E-01  4.27976435E-02
 -1.47886232E-02  2.47439084E-03 -3.61260696E-04 -9.68669303E-05 -2.18730583E-04
 -7.55913991E-04 -7.60911354E-04 -1.68860964E-03 -1.73856645E-03 -1.72132621E-03
 -3.81965729E-03 -1.58282187E-04 -1.49597686E-04 -3.35962098E-04 -4.59628630E-04
 -7.91379485E-04 -1.73587233E-03  9.24123524E-04  9.22888485E-04  2.03843575E-03
  6.21842880E-04  1.69840652E-04  8.59690454E-04  4.17416297E-04  9.25872876E-05
 -1.85221534E-05  2.81819059E-04 -2.40207446E-03 -5.44257119E-05  2.34765090E-06
  7.08213425E-07  1.62528893E-04 -2.07642243E-03  3.43276388E-03 -3.25979598E-04
 -6.77222749E-04 -1.48139314E-03  2.09786825E-06  9.72792205E-06  1.87288332E-05
 -1.06574879E-06 -3.75875296E-07 -9.13383900E-05 -9.70455051E-05  6.31313442E-06
  3.60654540E-06  2.05493855E-04  2.00588528E-04  7.56977377E-05  1.00346128E-04
  3.07197913E-04  2.25816847E-04  1.27358630E-04  1.38968983E-04 -6.73513334E-07
  4.70398572E-06  2.48031554E-05  1.03830053E-05  3.71663443E-06 -1.27745967E-04
 -3.50887076E-04  6.61837419E-04  4.93163636E-04  8.05741695E-05 -3.04405766E-05
 -1.33105222E-04 -2.40898861E-03  1.89861018E-04  4.72490184E-04  3.69441983E-01
 -3.10835531E-02 -7.77164959E-02  6.91469876E-01 -5.81690551E-02 -1.45441415E-01
  5.36074310E-02 -4.50418690E-03 -1.12623560E-02 -7.47316190E-03  6.06390505E-04
  1.51767759E-03  4.62060408E-03 -3.36624626E-04 -8.42932589E-04  1.95416570E-04
 -4.26242823E-04  8.47207256E-05 -1.74389756E-04 -1.92446422E-04 -1.37138597E-05
 -1.49224584E-04 -4.44434651E-04 -1.58113125E-05  2.99099461E-05  3.47798701E-05
  1.38359386E-05 -9.73538951E-06  8.22324394E-05  6.37047413E-05 -2.09730077E-05
 -4.75458170E-05  4.02490534E-07  1.39146124E-06  4.86625039E-06 -3.19816692E-06
 -6.46059934E-06 -1.06661862E-05 -2.92810341E-05  1.51109193E-05  2.91867752E-05
  7.58712028E-06  6.86708975E-05 -2.12915045E-05 -5.31184448E-05  1.92153332E-04
  5.82582265E-05  7.89750589E-05  1.31035907E-04 -1.50817475E-06  6.94990866E-07
  3.11968747E-06  2.89016386E-06  1.52822758E-06 -7.73599419E-04 -2.09311550E-03
  3.70339858E-03  3.75633488E-03 -6.86499856E-04 -3.27723182E-04 -4.94926722E-04
 -4.10229427E-04 -8.21689447E-04 -1.79330396E-03  8.37328681E-02  1.54142292E-01
  3.36479067E-01  1.56450086E-01  2.87970056E-01  6.28612954E-01  1.19009843E-02
  2.18894701E-02  4.77823694E-02 -1.57753102E-03 -2.84471335E-03 -6.20803870E-03
  1.01251496E-03  1.80077021E-03  3.93207876E-03 -4.85883478E-04 -2.91063159E-04
 -4.65618542E-04  2.74524361E-05 -1.33368444E-04  7.23071653E-06 -1.76892756E-05
 -1.35956888E-04 -1.77469199E-05  7.66424249E-06  1.12639178E-05 -5.55816249E-04
 -1.01575463E-04  1.15316148E-03  1.06940228E-04  2.66908112E-04  5.83318542E-04
 -3.22994136E-08 -2.00271985E-07 -1.78744255E-07 -4.84328214E-06  1.99445088E-06
  1.85010028E-06  9.50999013E-07  2.08980298E-05 -8.19885865E-06 -2.13101071E-06
 -1.28467810E-07 -4.93499369E-05  1.93505362E-05 -1.45086764E-05 -3.45945524E-06
  6.11465569E-05 -3.59754889E-05  1.20069125E-06  1.72051733E-06 -7.97123234E-07
  8.24408710E-07 -2.00524267E-06  5.92640612E-06  1.60935616E-05 -2.89297710E-05
 -2.72957614E-05  3.53592980E-06 -2.27370518E-07  3.40657937E-06  2.46677199E-05
 -1.95025798E-03  8.87394758E-04 -4.02279096E-03  3.46074340E-01 -1.57536665E-01
 -7.50173309E-03  6.45423757E-01 -2.93803885E-01 -5.49866326E-04  4.72721201E-02
 -2.15188506E-02  7.58546798E-05 -6.35471801E-03  2.89306773E-03 -4.81508430E-05
  3.67673321E-03 -1.67464500E-03  2.73157315E-04  6.68921566E-05 -2.78364465E-04
  1.58666522E-04 -1.37134439E-04  2.48732104E-06  2.38753284E-06  1.58956281E-05
 -3.54923462E-06  6.50993239E-06 -3.36222589E-06  4.73520961E-07  1.40940515E-06
 -3.27586821E-06 -8.48112714E-07  8.63234011E-05 -3.89658073E-05 -1.18714911E-01
 -1.95671263E-01  1.86164631E-03  3.04214368E-02  3.63119378E-02  5.75232069E-01
  3.32081281E-03  4.86911448E-02  5.81252631E-02  4.18022549E-01  2.77505837E-03
  1.81703553E-02  2.15055657E-02 -1.79012589E-02 -4.14706410E-03 -3.71317802E-03
 -4.47819380E-03  1.87228346E-03  4.77905822E-04  1.07756945E-02  6.45535926E-04
  2.69036990E-04  2.38798368E-04  6.82726005E-04 -1.46605410E-03 -2.41295775E-03
  3.18921299E-03  5.02248284E-03  7.27613067E-03 -3.90665167E-03  4.63518704E-05
  1.08605748E-04  6.36447311E-04 -1.18673022E-05 -3.23869138E-05  1.16123207E-03
 -2.40006091E-05 -6.42448414E-05 -1.20038472E-03  7.27449444E-05  1.72146757E-04
 -4.40777458E-03 -4.54656513E-05 -1.50141601E-05 -3.24468413E-03 -9.98683391E-04
 -2.34247562E-03 -2.44323532E-04  1.08638248E-04  2.44098900E-04  8.42108228E-04
  4.70869176E-05  1.10620049E-01  8.99022072E-02  1.63910866E-02 -1.01311231E-03
 -1.68488569E-02 -2.01518951E-02  5.63822704E-04 -6.12279491E-05 -4.63176308E-03
 -1.52068516E-05 -3.62333748E-05 -7.63297574E-05  1.27454199E-03  2.13553575E-03
  3.86865572E-03 -7.53006615E-04 -8.80051036E-04 -6.95475196E-03  5.81207673E-03
 -1.14119160E-03 -1.35751638E-03 -2.19826688E-03  6.44277799E-03 -1.55251399E-04
 -5.35304607E-05 -8.38317484E-03 -1.12547838E-03 -3.20311683E-03 -3.94697894E-03
 -2.05204000E-04  1.39530545E-04 -1.11765046E-04  3.17443118E-04  1.12629401E-04
  3.34195473E-02  9.49584069E-02 -1.99229137E-01 -3.69058876E-01  6.69595156E-01
  4.06994956E-01 -1.08099400E-02 -1.63624057E-04 -6.34262934E-04 -1.02374399E-03
  2.55600964E-03  6.92182183E-03  1.52922996E-02  5.19824114E-03  1.38363766E-02
  3.05613522E-02 -7.70575959E-03 -1.93238707E-02 -4.26089153E-02 -6.48351099E-03
 -2.56202800E-02 -5.69640526E-02 -7.21214877E-04 -3.30979885E-03 -8.32608998E-03
  1.38620925E-02  3.69522376E-03  1.79666890E-02  7.22834370E-03  1.86907262E-03
 -1.63141343E-03 -2.92438475E-03  1.05189155E-02  7.37030950E-04  3.08516543E-04
  3.72792398E-04  1.01110876E-01  1.33988508E-01  2.47548965E-03  5.31202425E-03
  9.65877376E-03  2.11142836E-02 -3.93823034E-02 -6.59535725E-02 -8.49130976E-03
 -1.61109440E-01 -1.93167423E-01  2.01308195E-01 -1.21686153E-02 -2.32121016E-01
 -2.78316936E-01  2.86572403E-01 -7.24695593E-03 -1.55377503E-01 -1.86530401E-01
  6.05259334E-02 -1.25598265E-03 -1.60899052E-02 -1.95559693E-02 -7.88335834E-03
 -1.34871905E-03 -1.55050753E-02  8.10441750E-03 -1.16174110E-03 -6.36487786E-04
 -1.81422860E-03  3.86240141E-03  7.24436192E-03 -1.40215010E-02 -1.27297499E-02
 -6.12493280E-04  1.28447039E-03 -8.03948299E-05  2.41232495E-04  1.38673488E-03
  1.48286927E-03  2.76363926E-03  2.67957230E-03  2.88184007E-03  5.37354329E-03
 -3.72479764E-03 -4.14439456E-03 -7.71231140E-03 -7.50373628E-03 -7.41527432E-03
 -1.37413439E-02 -4.97274997E-03 -2.90697951E-03 -4.39449356E-03  1.22213013E-03
  1.15936166E-03  1.19699387E-03 -6.69435409E-05  6.79375670E-04 -1.66094738E-01
 -2.59461654E-01 -8.18922589E-02  7.15567048E-04  1.90856082E-02  2.28555198E-02
  6.16858319E-03  8.99061669E-03  6.48546882E-03 -1.49084045E-04  3.40345494E-04
  8.18228014E-04 -1.59837625E-03 -2.67432508E-03  2.65073124E-03 -8.49675415E-03
 -8.57235820E-03  8.05406816E-03  4.18907939E-03 -1.22302687E-02 -1.22225042E-02
  1.24185793E-02  3.66779439E-03 -8.68299174E-03 -8.56969736E-03  5.57657555E-03
  2.94063867E-03  7.21022313E-04  1.83029905E-03 -4.11322528E-04  1.88798819E-04
 -7.66960603E-04  5.28200359E-04  9.84202835E-05  1.22148614E-02  3.48955794E-02
 -7.49870208E-02 -1.37187828E-01  2.52268593E-01  2.98386083E-01  2.55403691E-02
 -5.72296072E-03 -1.00622726E-02 -2.18082548E-02 -1.59009788E-02 -3.38479208E-02
 -7.39074085E-02 -3.09644670E-02 -6.59022546E-02 -1.43903782E-01  4.51385767E-02
  9.58914144E-02  2.09444425E-01  7.94201908E-02  1.68166818E-01  3.66941557E-01
  2.17832288E-02  4.51657267E-02  9.77976631E-02 -3.73725485E-02 -1.60169717E-02
 -3.09833684E-02  1.07143893E-02 -7.20707492E-03 -7.85049488E-03 -1.26355804E-02
 -6.66039338E-03  7.33283888E-04  8.26030173E-04  1.19934317E-03 -1.57485214E-01
 -2.84971711E-01 -1.33230890E-01 -6.50515823E-03 -1.08362415E-02 -2.35924763E-02
  8.89382882E-05  1.49617922E-04  3.77469427E-03  2.33822213E-01 -1.95377191E-01
 -4.99356830E-04  5.55992073E-03  3.42885006E-01 -2.86508693E-01 -5.67152538E-04
  5.01224648E-03  3.09201303E-01 -2.58293515E-01  1.25032970E-03  1.34648571E-03
  6.73647894E-02 -5.60313711E-02 -1.23260305E-02 -5.98230279E-04  2.53461221E-03
 -7.12778865E-03  1.00337083E-03  3.79448062E-05  1.09091615E-04 -2.40618516E-04
 -4.10957194E-04  6.65221621E-04  1.48647542E-03  8.05253751E-04 -1.54495604E-04
 -2.59717181E-04 -9.45645320E-04  6.70874601E-05 -4.46459934E-03  1.51659554E-03
  1.27658476E-04 -8.60012331E-03  2.90842513E-03 -1.62909575E-04  1.25499382E-02
 -4.20654409E-03 -4.53794565E-04  2.56277595E-02 -8.96881201E-03 -3.74944118E-04
  1.32678685E-02 -5.77410586E-03  1.87824641E-04  5.12790999E-04 -6.97951974E-04
  3.73760224E-04 -7.74677949E-04  5.55694894E-05 -1.69728414E-05 -7.20614456E-04
  4.40518639E-04  2.76787513E-02 -2.31030411E-02 -9.24511335E-04 -1.57226094E-03
 -1.65564156E-03 -2.06506646E-04  8.45322357E-04 -5.51876327E-04 -3.62237255E-05
 -6.14867514E-05  2.56233026E-03 -1.38339989E-02  9.97902919E-03  1.98531630E-04
  3.89092406E-03 -2.00689402E-02  1.45320215E-02  2.44000390E-04  3.50253304E-03
 -1.90737944E-02  1.37994313E-02  1.04375237E-03  9.50214623E-04 -2.06608105E-03
  2.91114884E-03  6.32248253E-04  3.26162350E-05 -2.33975039E-04  4.77666165E-04
  2.67948763E-04 -6.47670579E-05 -1.83945208E-04  3.85988543E-04  7.87837625E-04
 -1.90728813E-03 -4.48195062E-04  2.45175550E-03  7.52852389E-04 -5.50035305E-02
  2.51765993E-02  2.08212782E-03 -9.40643463E-02  4.26520252E-02  4.02056612E-03
 -1.81187970E-01  8.21540856E-02 -5.78300307E-03  2.66832980E-01 -1.21008112E-01
 -1.21760233E-02  5.49972821E-01 -2.49415195E-01 -7.50689213E-03  3.02974386E-01
 -1.38077175E-01  1.06710372E-02  1.20445939E-03 -1.10180734E-02  6.20373119E-03
 -1.85141782E-03 -6.86382978E-04 -7.14540985E-04 -1.34596375E-03  4.76308627E-04
 -1.31578118E-03  1.28511734E-03  8.27065628E-05  1.23504689E-04 -1.41763033E-03
 -3.96292235E-04  1.97235707E-02 -8.97607661E-03 -2.91902150E-03 -4.89812415E-03