 Entering Gaussian System, Link 0=g16
 Initial command:
 /home/szhao/Apps/g16/l1.exe "/home/szhao/tmp/Gau-64009.inp" -scrdir="/home/szhao/tmp/"
 Default is to use a total of  16 processors:
                               16 via shared-memory
                                1 via Linda
 Entering Link 1 = /home/szhao/Apps/g16/l1.exe PID=     64011.
  
 Copyright (c) 1988,1990,1992,1993,1995,1998,2003,2009,2016,
            Gaussian, Inc.  All Rights Reserved.
  
 This is part of the Gaussian(R) 16 program.  It is based on
 the Gaussian(R) 09 system (copyright 2009, Gaussian, Inc.),
 the Gaussian(R) 03 system (copyright 2003, Gaussian, Inc.),
 the Gaussian(R) 98 system (copyright 1998, Gaussian, Inc.),
 the Gaussian(R) 94 system (copyright 1995, Gaussian, Inc.),
 the Gaussian 92(TM) system (copyright 1992, Gaussian, Inc.),
 the Gaussian 90(TM) system (copyright 1990, Gaussian, Inc.),
 the Gaussian 88(TM) system (copyright 1988, Gaussian, Inc.),
 the Gaussian 86(TM) system (copyright 1986, Carnegie Mellon
 University), and the Gaussian 82(TM) system (copyright 1983,
 Carnegie Mellon University). Gaussian is a federally registered
 trademark of Gaussian, Inc.
  
 This software contains proprietary and confidential information,
 including trade secrets, belonging to Gaussian, Inc.
  
 This software is provided under written license and may be
 used, copied, transmitted, or stored only in accord with that
 written license.
  
 The following legend is applicable only to US Government
 contracts under FAR:
  
                    RESTRICTED RIGHTS LEGEND
  
 Use, reproduction and disclosure by the US Government is
 subject to restrictions as set forth in subparagraphs (a)
 and (c) of the Commercial Computer Software - Restricted
 Rights clause in FAR 52.227-19.
  
 Gaussian, Inc.
 340 Quinnipiac St., Bldg. 40, Wallingford CT 06492
  
  
 ---------------------------------------------------------------
 Warning -- This program may not be used in any manner that
 competes with the business of Gaussian, Inc. or will provide
 assistance to any competitor of Gaussian, Inc.  The licensee
 of this program is prohibited from giving any competitor of
 Gaussian, Inc. access to this program.  By using this program,
 the user acknowledges that Gaussian, Inc. is engaged in the
 business of creating and licensing software in the field of
 computational chemistry and represents and warrants to the
 licensee that it is not a competitor of Gaussian, Inc. and that
 it will not use this program in any manner prohibited above.
 ---------------------------------------------------------------
  

 Cite this work as:
 Gaussian 16, Revision A.03,
 M. J. Frisch, G. W. Trucks, H. B. Schlegel, G. E. Scuseria, 
 M. A. Robb, J. R. Cheeseman, G. Scalmani, V. Barone, 
 G. A. Petersson, H. Nakatsuji, X. Li, M. Caricato, A. V. Marenich, 
 J. Bloino, B. G. Janesko, R. Gomperts, B. Mennucci, H. P. Hratchian, 
 J. V. Ortiz, A. F. Izmaylov, J. L. Sonnenberg, D. Williams-Young, 
 F. Ding, F. Lipparini, F. Egidi, J. Goings, B. Peng, A. Petrone, 
 T. Henderson, D. Ranasinghe, V. G. Zakrzewski, J. Gao, N. Rega, 
 G. Zheng, W. Liang, M. Hada, M. Ehara, K. Toyota, R. Fukuda, 
 J. Hasegawa, M. Ishida, T. Nakajima, Y. Honda, O. Kitao, H. Nakai, 
 T. Vreven, K. Throssell, J. A. Montgomery, Jr., J. E. Peralta, 
 F. Ogliaro, M. J. Bearpark, J. J. Heyd, E. N. Brothers, K. N. Kudin, 
 V. N. Staroverov, T. A. Keith, R. Kobayashi, J. Normand, 
 K. Raghavachari, A. P. Rendell, J. C. Burant, S. S. Iyengar, 
 J. Tomasi, M. Cossi, J. M. Millam, M. Klene, C. Adamo, R. Cammi, 
 J. W. Ochterski, R. L. Martin, K. Morokuma, O. Farkas, 
 J. B. Foresman, and D. J. Fox, Gaussian, Inc., Wallingford CT, 2016.
 
 ******************************************
 Gaussian 16:  ES64L-G16RevA.03 25-Dec-2016
                19-Nov-2024 
 ******************************************
 %chk=opt.chk
 %mem=4GB
 %nprocshared=8
 Will use up to    8 processors via shared memory.
 ---------------------------------------
 #p UM062X/6-311+G** force int=superfine
 ---------------------------------------
 1/10=7,30=1,38=1/1,3;
 2/12=2,17=6,18=5,40=1/2;
 3/5=4,6=6,7=111,11=2,25=1,30=1,71=1,74=-55,75=-7,116=2/1,2,3;
 4//1;
 5/5=2,38=5/2;
 6/7=2,8=2,9=2,10=2,28=1/1;
 7/29=1/1,2,3,16;
 1/10=7,30=1/3;
 99//99;
 Leave Link    1 at Tue Nov 19 11:52:21 2024, MaxMem=   536870912 cpu:               0.3 elap:               0.0
 (Enter /home/szhao/Apps/g16/l101.exe)
 -------------------
 Title Card Required
 -------------------
 Symbolic Z-matrix:
 Charge =  1 Multiplicity = 2
 C                    -0.49482   0.        0. 
 C                     0.49482   0.        0. 
 H                    -1.27419  -0.82303   0. 
 H                    -1.26694   0.83199   0. 
 H                     1.27419   0.82303   0. 
 H                     1.26694  -0.83199   0. 
 
 ITRead=  0  0  0  0  0  0
 MicOpt= -1 -1 -1 -1 -1 -1
 NAtoms=      6 NQM=        6 NQMF=       0 NMMI=      0 NMMIF=      0
                NMic=       0 NMicF=      0.
                    Isotopes and Nuclear Properties:
 (Nuclear quadrupole moments (NQMom) in fm**2, nuclear magnetic moments (NMagM)
  in nuclear magnetons)

  Atom         1           2           3           4           5           6
 IAtWgt=          12          12           1           1           1           1
 AtmWgt=  12.0000000  12.0000000   1.0078250   1.0078250   1.0078250   1.0078250
 NucSpn=           0           0           1           1           1           1
 AtZEff=  -0.0000000  -0.0000000  -0.0000000  -0.0000000  -0.0000000  -0.0000000
 NQMom=    0.0000000   0.0000000   0.0000000   0.0000000   0.0000000   0.0000000
 NMagM=    0.0000000   0.0000000   2.7928460   2.7928460   2.7928460   2.7928460
 AtZNuc=   6.0000000   6.0000000   1.0000000   1.0000000   1.0000000   1.0000000
 Leave Link  101 at Tue Nov 19 11:52:22 2024, MaxMem=   536870912 cpu:               1.3 elap:               0.2
 (Enter /home/szhao/Apps/g16/l103.exe)

 GradGradGradGradGradGradGradGradGradGradGradGradGradGradGradGradGradGrad
 Berny optimization.
 Initialization pass.
 Trust Radius=3.00D-01 FncErr=1.00D-07 GrdErr=1.00D-07 EigMax=2.50D+02 EigMin=1.00D-04
 Number of steps in this run=      2 maximum allowed number of steps=      2.
 GradGradGradGradGradGradGradGradGradGradGradGradGradGradGradGradGradGrad

 Leave Link  103 at Tue Nov 19 11:52:22 2024, MaxMem=   536870912 cpu:               0.2 elap:               0.0
 (Enter /home/szhao/Apps/g16/l202.exe)
                          Input orientation:                          
 ---------------------------------------------------------------------
 Center     Atomic      Atomic             Coordinates (Angstroms)
 Number     Number       Type             X           Y           Z
 ---------------------------------------------------------------------
      1          6           0       -0.494824    0.000000    0.000000
      2          6           0        0.494824    0.000000    0.000000
      3          1           0       -1.274193   -0.823027    0.000000
      4          1           0       -1.266936    0.831992    0.000000
      5          1           0        1.274193    0.823027    0.000000
      6          1           0        1.266936   -0.831992    0.000000
 ---------------------------------------------------------------------
                    Distance matrix (angstroms):
                    1          2          3          4          5
     1  C    0.000000
     2  C    0.989648   0.000000
     3  H    1.133486   1.951101   0.000000
     4  H    1.135063   1.948335   1.655035   0.000000
     5  H    1.951101   1.133486   3.033771   2.541145   0.000000
     6  H    1.948335   1.135063   2.541145   3.031394   1.655035
                    6
     6  H    0.000000
 Stoichiometry    C2H4(1+,2)
 Framework group  C2H[SGH(C2H4)]
 Deg. of freedom     5
 Full point group                 C2H     NOp   4
 Largest Abelian subgroup         C2H     NOp   4
 Largest concise Abelian subgroup C2      NOp   2
                         Standard orientation:                         
 ---------------------------------------------------------------------
 Center     Atomic      Atomic             Coordinates (Angstroms)
 Number     Number       Type             X           Y           Z
 ---------------------------------------------------------------------
      1          6           0       -0.000000    0.494824    0.000000
      2          6           0       -0.000000   -0.494824    0.000000
      3          1           0       -0.823027    1.274193    0.000000
      4          1           0        0.831992    1.266936    0.000000
      5          1           0        0.823027   -1.274193    0.000000
      6          1           0       -0.831992   -1.266936    0.000000
 ---------------------------------------------------------------------
 Rotational constants (GHZ):         183.0691950          40.8078759          33.3694958
 Leave Link  202 at Tue Nov 19 11:52:22 2024, MaxMem=   536870912 cpu:               0.0 elap:               0.0
 (Enter /home/szhao/Apps/g16/l301.exe)
 Standard basis: 6-311+G(d,p) (5D, 7F)
 Ernie: Thresh=  0.10000D-02 Tol=  0.10000D-05 Strict=F.
 There are    27 symmetry adapted cartesian basis functions of AG  symmetry.
 There are     8 symmetry adapted cartesian basis functions of BG  symmetry.
 There are     8 symmetry adapted cartesian basis functions of AU  symmetry.
 There are    27 symmetry adapted cartesian basis functions of BU  symmetry.
 There are    26 symmetry adapted basis functions of AG  symmetry.
 There are     8 symmetry adapted basis functions of BG  symmetry.
 There are     8 symmetry adapted basis functions of AU  symmetry.
 There are    26 symmetry adapted basis functions of BU  symmetry.
    68 basis functions,   104 primitive gaussians,    70 cartesian basis functions
     8 alpha electrons        7 beta electrons
       nuclear repulsion energy        38.3653211014 Hartrees.
 IExCor= 4336 DFT=T Ex+Corr=M062X ExCW=0 ScaHFX=  0.540000
 ScaDFX=  1.000000  1.000000  1.000000  1.000000 ScalE2=  1.000000  1.000000
 IRadAn=      7 IRanWt=     -1 IRanGd=            0 ICorTp=0 IEmpDi=  4
 NAtoms=    6 NActive=    6 NUniq=    3 SFac= 4.00D+00 NAtFMM=   60 NAOKFM=F Big=F
 Integral buffers will be    131072 words long.
 Raffenetti 2 integral format.
 Two-electron integral symmetry is turned on.
 Leave Link  301 at Tue Nov 19 11:52:22 2024, MaxMem=   536870912 cpu:               0.3 elap:               0.0
 (Enter /home/szhao/Apps/g16/l302.exe)
 NPDir=0 NMtPBC=     1 NCelOv=     1 NCel=       1 NClECP=     1 NCelD=      1
         NCelK=      1 NCelE2=     1 NClLst=     1 CellRange=     0.0.
 One-electron integrals computed using PRISM.
 One-electron integral symmetry used in STVInt
 NBasis=    68 RedAO= T EigKep=  3.04D-05  NBF=    26     8     8    26
 NBsUse=    68 1.00D-06 EigRej= -1.00D+00 NBFU=    26     8     8    26
 Precomputing XC quadrature grid using
 IXCGrd= 4 IRadAn=           7 IRanWt=          -1 IRanGd=           0 AccXCQ= 0.00D+00.
 Generated NRdTot=       0 NPtTot=           0 NUsed=           0 NTot=          32
 NSgBfM=    70    70    70    70    70 MxSgAt=     6 MxSgA2=     6.
 Leave Link  302 at Tue Nov 19 11:52:22 2024, MaxMem=   536870912 cpu:               1.0 elap:               0.1
 (Enter /home/szhao/Apps/g16/l303.exe)
 DipDrv:  MaxL=1.
 Leave Link  303 at Tue Nov 19 11:52:22 2024, MaxMem=   536870912 cpu:               0.3 elap:               0.0
 (Enter /home/szhao/Apps/g16/l401.exe)
 ExpMin= 4.38D-02 ExpMax= 4.56D+03 ExpMxC= 6.82D+02 IAcc=3 IRadAn=         7 AccDes= 0.00D+00
 Harris functional with IExCor= 1009 and IRadAn=       7 diagonalized for initial guess.
 HarFok:  IExCor= 1009 AccDes= 0.00D+00 IRadAn=         7 IDoV= 1 UseB2=F ITyADJ=14
 ICtDFT=  3500011 ScaDFX=  1.000000  1.000000  1.000000  1.000000
 FoFCou: FMM=F IPFlag=           0 FMFlag=      100000 FMFlg1=           0
         NFxFlg=           0 DoJE=T BraDBF=F KetDBF=T FulRan=T
         wScrn=  0.000000 ICntrl=       500 IOpCl=  0 I1Cent=   200000004 NGrid=           0
         NMat0=    1 NMatS0=      1 NMatT0=    0 NMatD0=    1 NMtDS0=    0 NMtDT0=    0
 Petite list used in FoFCou.
 Harris En= -78.0644022802754    
 JPrj=0 DoOrth=F DoCkMO=F.
 Initial guess orbital symmetries:
 Alpha Orbitals:
       Occupied  (AG) (BU) (AG) (BU) (BU) (AG) (AU) (AG)
       Virtual   (BG) (BU) (AG) (BU) (AU) (AG) (AG) (BU) (AG) (BG)
                 (BU) (BU) (AG) (AG) (BU) (BU) (AU) (AG) (BU) (BU)
                 (BG) (AG) (AG) (BU) (AG) (BG) (AU) (BU) (AU) (AG)
                 (BU) (AG) (BG) (BU) (BG) (AG) (BU) (AU) (AG) (AG)
                 (BU) (AU) (BU) (AG) (BG) (BU) (AG) (AU) (AG) (BU)
                 (BU) (BG) (BU) (BU) (AG) (BU) (AG) (AG) (AG) (BU)
 Beta  Orbitals:
       Occupied  (AG) (BU) (AG) (BU) (BU) (AG) (AU)
       Virtual   (AG) (BG) (BU) (AG) (BU) (AU) (AG) (AG) (BU) (AG)
                 (BG) (BU) (BU) (AG) (AG) (BU) (BU) (AU) (AG) (BU)
                 (BU) (BG) (AG) (AG) (BU) (AG) (BG) (AU) (BU) (AU)
                 (AG) (BU) (AG) (BG) (BU) (BG) (AG) (BU) (AU) (AG)
                 (AG) (BU) (AU) (BU) (AG) (BG) (BU) (AG) (AU) (AG)
                 (BU) (BU) (BG) (BU) (BU) (AG) (BU) (AG) (AG) (AG)
                 (BU)
 The electronic state of the initial guess is 2-AG.
 Initial guess <Sx>= 0.0000 <Sy>= 0.0000 <Sz>= 0.5000 <S**2>= 0.7500 S= 0.5000
 Leave Link  401 at Tue Nov 19 11:52:22 2024, MaxMem=   536870912 cpu:               1.3 elap:               0.2
 (Enter /home/szhao/Apps/g16/l502.exe)
 Keep R1 and R2 ints in memory in symmetry-blocked form, NReq=9935231.
 FoFCou: FMM=F IPFlag=           0 FMFlag=           0 FMFlg1=           0
         NFxFlg=           0 DoJE=F BraDBF=F KetDBF=F FulRan=T
         wScrn=  0.000000 ICntrl=       600 IOpCl=  0 I1Cent=           0 NGrid=           0
         NMat0=    1 NMatS0=   2346 NMatT0=    0 NMatD0=    1 NMtDS0=    0 NMtDT0=    0
 Petite list used in FoFCou.
 UHF open shell SCF:
 Using DIIS extrapolation, IDIIS=  1040.
 NGot=   536870912 LenX=   535358062 LenY=   535352721
 Requested convergence on RMS density matrix=1.00D-08 within 128 cycles.
 Requested convergence on MAX density matrix=1.00D-06.
 Requested convergence on             energy=1.00D-06.
 No special actions if energy rises.

 Cycle   1  Pass 1  IDiag  1:
 E= -77.7461704359598    
 DIIS: error= 8.23D-02 at cycle   1 NSaved=   1.
 NSaved= 1 IEnMin= 1 EnMin= -77.7461704359598     IErMin= 1 ErrMin= 8.23D-02
 ErrMax= 8.23D-02  0.00D+00 EMaxC= 1.00D-01 BMatC= 8.12D-01 BMatP= 8.12D-01
 IDIUse=3 WtCom= 1.77D-01 WtEn= 8.23D-01
 Coeff-Com:  0.100D+01
 Coeff-En:   0.100D+01
 Coeff:      0.100D+01
 Gap=     0.391 Goal=   None    Shift=    0.000
 Gap=     0.155 Goal=   None    Shift=    0.000
 GapD=    0.155 DampG=1.000 DampE=0.500 DampFc=0.5000 IDamp=-1.
 Damping current iteration by 5.00D-01
 RMSDP=6.02D-03 MaxDP=1.20D-01              OVMax= 2.40D-01

 Cycle   2  Pass 1  IDiag  1:
 E= -77.8342736117436     Delta-E=       -0.088103175784 Rises=F Damp=T
 DIIS: error= 1.40D-02 at cycle   2 NSaved=   2.
 NSaved= 2 IEnMin= 2 EnMin= -77.8342736117436     IErMin= 2 ErrMin= 1.40D-02
 ErrMax= 1.40D-02  0.00D+00 EMaxC= 1.00D-01 BMatC= 3.16D-02 BMatP= 8.12D-01
 IDIUse=3 WtCom= 8.60D-01 WtEn= 1.40D-01
 Coeff-Com: -0.165D+00 0.116D+01
 Coeff-En:   0.000D+00 0.100D+01
 Coeff:     -0.142D+00 0.114D+01
 Gap=     0.501 Goal=   None    Shift=    0.000
 Gap=     0.270 Goal=   None    Shift=    0.000
 RMSDP=1.37D-03 MaxDP=1.53D-02 DE=-8.81D-02 OVMax= 1.12D-01

 Cycle   3  Pass 1  IDiag  1:
 E= -77.9125770008934     Delta-E=       -0.078303389150 Rises=F Damp=F
 DIIS: error= 4.64D-03 at cycle   3 NSaved=   3.
 NSaved= 3 IEnMin= 3 EnMin= -77.9125770008934     IErMin= 3 ErrMin= 4.64D-03
 ErrMax= 4.64D-03  0.00D+00 EMaxC= 1.00D-01 BMatC= 8.65D-04 BMatP= 3.16D-02
 IDIUse=3 WtCom= 9.54D-01 WtEn= 4.64D-02
 Coeff-Com: -0.341D-01 0.601D-01 0.974D+00
 Coeff-En:   0.000D+00 0.000D+00 0.100D+01
 Coeff:     -0.325D-01 0.574D-01 0.975D+00
 Gap=     0.480 Goal=   None    Shift=    0.000
 Gap=     0.268 Goal=   None    Shift=    0.000
 RMSDP=1.98D-04 MaxDP=3.14D-03 DE=-7.83D-02 OVMax= 1.12D-02

 Cycle   4  Pass 1  IDiag  1:
 E= -77.9128891154634     Delta-E=       -0.000312114570 Rises=F Damp=F
 DIIS: error= 7.98D-04 at cycle   4 NSaved=   4.
 NSaved= 4 IEnMin= 4 EnMin= -77.9128891154634     IErMin= 4 ErrMin= 7.98D-04
 ErrMax= 7.98D-04  0.00D+00 EMaxC= 1.00D-01 BMatC= 3.99D-05 BMatP= 8.65D-04
 IDIUse=3 WtCom= 9.92D-01 WtEn= 7.98D-03
 Coeff-Com:  0.172D-01-0.420D-01-0.324D+00 0.135D+01
 Coeff-En:   0.000D+00 0.000D+00 0.000D+00 0.100D+01
 Coeff:      0.170D-01-0.416D-01-0.321D+00 0.135D+01
 Gap=     0.481 Goal=   None    Shift=    0.000
 Gap=     0.270 Goal=   None    Shift=    0.000
 RMSDP=7.87D-05 MaxDP=1.00D-03 DE=-3.12D-04 OVMax= 3.09D-03

 Cycle   5  Pass 1  IDiag  1:
 E= -77.9129162000441     Delta-E=       -0.000027084581 Rises=F Damp=F
 DIIS: error= 1.33D-04 at cycle   5 NSaved=   5.
 NSaved= 5 IEnMin= 5 EnMin= -77.9129162000441     IErMin= 5 ErrMin= 1.33D-04
 ErrMax= 1.33D-04  0.00D+00 EMaxC= 1.00D-01 BMatC= 1.40D-06 BMatP= 3.99D-05
 IDIUse=3 WtCom= 9.99D-01 WtEn= 1.33D-03
 Coeff-Com: -0.219D-03 0.712D-04-0.160D-01-0.115D+00 0.113D+01
 Coeff-En:   0.000D+00 0.000D+00 0.000D+00 0.000D+00 0.100D+01
 Coeff:     -0.219D-03 0.711D-04-0.160D-01-0.115D+00 0.113D+01
 Gap=     0.481 Goal=   None    Shift=    0.000
 Gap=     0.270 Goal=   None    Shift=    0.000
 RMSDP=1.47D-05 MaxDP=1.92D-04 DE=-2.71D-05 OVMax= 5.52D-04

 Cycle   6  Pass 1  IDiag  1:
 E= -77.9129171673885     Delta-E=       -0.000000967344 Rises=F Damp=F
 DIIS: error= 2.15D-05 at cycle   6 NSaved=   6.
 NSaved= 6 IEnMin= 6 EnMin= -77.9129171673885     IErMin= 6 ErrMin= 2.15D-05
 ErrMax= 2.15D-05  0.00D+00 EMaxC= 1.00D-01 BMatC= 3.83D-08 BMatP= 1.40D-06
 IDIUse=1 WtCom= 1.00D+00 WtEn= 0.00D+00
 Coeff-Com: -0.291D-03 0.893D-03 0.816D-02-0.231D-01-0.134D+00 0.115D+01
 Coeff:     -0.291D-03 0.893D-03 0.816D-02-0.231D-01-0.134D+00 0.115D+01
 Gap=     0.481 Goal=   None    Shift=    0.000
 Gap=     0.270 Goal=   None    Shift=    0.000
 RMSDP=3.08D-06 MaxDP=5.29D-05 DE=-9.67D-07 OVMax= 9.32D-05

 Cycle   7  Pass 1  IDiag  1:
 E= -77.9129171930732     Delta-E=       -0.000000025685 Rises=F Damp=F
 DIIS: error= 2.58D-06 at cycle   7 NSaved=   7.
 NSaved= 7 IEnMin= 7 EnMin= -77.9129171930732     IErMin= 7 ErrMin= 2.58D-06
 ErrMax= 2.58D-06  0.00D+00 EMaxC= 1.00D-01 BMatC= 6.57D-10 BMatP= 3.83D-08
 IDIUse=1 WtCom= 1.00D+00 WtEn= 0.00D+00
 Coeff-Com:  0.216D-04-0.664D-05 0.281D-04 0.328D-02-0.249D-01-0.193D-01
 Coeff-Com:  0.104D+01
 Coeff:      0.216D-04-0.664D-05 0.281D-04 0.328D-02-0.249D-01-0.193D-01
 Coeff:      0.104D+01
 Gap=     0.481 Goal=   None    Shift=    0.000
 Gap=     0.270 Goal=   None    Shift=    0.000
 RMSDP=3.05D-07 MaxDP=5.24D-06 DE=-2.57D-08 OVMax= 8.20D-06

 Cycle   8  Pass 1  IDiag  1:
 E= -77.9129171933988     Delta-E=       -0.000000000326 Rises=F Damp=F
 DIIS: error= 4.78D-07 at cycle   8 NSaved=   8.
 NSaved= 8 IEnMin= 8 EnMin= -77.9129171933988     IErMin= 8 ErrMin= 4.78D-07
 ErrMax= 4.78D-07  0.00D+00 EMaxC= 1.00D-01 BMatC= 1.42D-11 BMatP= 6.57D-10
 IDIUse=1 WtCom= 1.00D+00 WtEn= 0.00D+00
 Coeff-Com: -0.375D-05-0.314D-05-0.778D-04-0.216D-03 0.604D-02-0.206D-01
 Coeff-Com: -0.100D+00 0.111D+01
 Coeff:     -0.375D-05-0.314D-05-0.778D-04-0.216D-03 0.604D-02-0.206D-01
 Coeff:     -0.100D+00 0.111D+01
 Gap=     0.481 Goal=   None    Shift=    0.000
 Gap=     0.270 Goal=   None    Shift=    0.000
 RMSDP=5.90D-08 MaxDP=8.83D-07 DE=-3.26D-10 OVMax= 1.43D-06

 Cycle   9  Pass 1  IDiag  1:
 E= -77.9129171934055     Delta-E=       -0.000000000007 Rises=F Damp=F
 DIIS: error= 7.05D-08 at cycle   9 NSaved=   9.
 NSaved= 9 IEnMin= 9 EnMin= -77.9129171934055     IErMin= 9 ErrMin= 7.05D-08
 ErrMax= 7.05D-08  0.00D+00 EMaxC= 1.00D-01 BMatC= 2.32D-13 BMatP= 1.42D-11
 IDIUse=1 WtCom= 1.00D+00 WtEn= 0.00D+00
 Coeff-Com:  0.617D-07 0.170D-05 0.220D-04-0.233D-04-0.799D-03 0.428D-02
 Coeff-Com:  0.624D-02-0.214D+00 0.120D+01
 Coeff:      0.617D-07 0.170D-05 0.220D-04-0.233D-04-0.799D-03 0.428D-02
 Coeff:      0.624D-02-0.214D+00 0.120D+01
 Gap=     0.481 Goal=   None    Shift=    0.000
 Gap=     0.270 Goal=   None    Shift=    0.000
 RMSDP=7.22D-09 MaxDP=8.51D-08 DE=-6.71D-12 OVMax= 4.90D-07

 SCF Done:  E(UM062X) =  -77.9129171934     A.U. after    9 cycles
            NFock=  9  Conv=0.72D-08     -V/T= 1.9817
 <Sx>= 0.0000 <Sy>= 0.0000 <Sz>= 0.5000 <S**2>= 0.7578 S= 0.5039
 <L.S>=  0.00000000000    
 KE= 7.936801290197D+01 PE=-2.540097423272D+02 EE= 5.836349113044D+01
 Annihilation of the first spin contaminant:
 S**2 before annihilation     0.7578,   after     0.7500
 Leave Link  502 at Tue Nov 19 11:52:24 2024, MaxMem=   536870912 cpu:              12.0 elap:               1.5
 (Enter /home/szhao/Apps/g16/l601.exe)
 Copying SCF densities to generalized density rwf, IOpCl= 1 IROHF=0.

 **********************************************************************

            Population analysis using the SCF density.

 **********************************************************************

 Orbital symmetries:
 Alpha Orbitals:
       Occupied  (AG) (BU) (AG) (BU) (AG) (BU) (AU) (AG)
       Virtual   (BU) (BG) (AG) (BU) (AU) (AG) (BU) (AG) (AG) (BG)
                 (BU) (BU) (AG) (BU) (AG) (BU) (AG) (AU) (BU) (BU)
                 (BG) (AG) (AG) (BU) (AG) (BG) (AU) (AU) (BU) (AG)
                 (BU) (AG) (BG) (BG) (AG) (BU) (BU) (AU) (AG) (AG)
                 (BU) (AU) (BU) (AG) (BG) (AG) (BU) (AG) (BU) (BU)
                 (AU) (BG) (BU) (BU) (AG) (BU) (AG) (AG) (AG) (BU)
 Beta  Orbitals:
       Occupied  (AG) (BU) (AG) (BU) (AG) (BU) (AU)
       Virtual   (AG) (BG) (BU) (AG) (BU) (AU) (AG) (BU) (AG) (AG)
                 (BG) (BU) (BU) (AG) (BU) (AG) (BU) (AG) (AU) (BU)
                 (BU) (BG) (AG) (AG) (BU) (AG) (BG) (AU) (AU) (BU)
                 (AG) (BU) (AG) (BG) (BG) (AG) (BU) (BU) (AU) (AG)
                 (AG) (BU) (AU) (BU) (AG) (BG) (AG) (BU) (AG) (BU)
                 (BU) (AU) (BG) (BU) (BU) (AG) (BU) (AG) (AG) (AG)
                 (BU)
 The electronic state is 2-AG.
 Alpha  occ. eigenvalues --  -10.81334 -10.79883  -1.24465  -0.96880  -0.87601
 Alpha  occ. eigenvalues --   -0.87160  -0.71782  -0.65248
 Alpha virt. eigenvalues --   -0.17120  -0.16134  -0.15199  -0.13769  -0.10667
 Alpha virt. eigenvalues --   -0.08854  -0.07469  -0.06668  -0.02591  -0.02255
 Alpha virt. eigenvalues --   -0.00079   0.02663   0.13710   0.17840   0.19224
 Alpha virt. eigenvalues --    0.22028   0.26282   0.28663   0.32617   0.35126
 Alpha virt. eigenvalues --    0.44853   0.48193   0.49556   0.51865   0.55828
 Alpha virt. eigenvalues --    0.73757   0.92643   0.93474   0.99466   1.04014
 Alpha virt. eigenvalues --    1.28363   1.30859   1.39537   1.40124   1.42696
 Alpha virt. eigenvalues --    1.43179   1.43335   1.68096   1.73226   1.76104
 Alpha virt. eigenvalues --    1.86674   1.92549   2.03785   2.12109   2.19698
 Alpha virt. eigenvalues --    2.28155   2.30416   2.33010   2.39199   2.47550
 Alpha virt. eigenvalues --    2.52477   2.69445   3.01838   3.03043   3.10577
 Alpha virt. eigenvalues --    3.44557   3.62887   3.67606  23.61474  25.40496
  Beta  occ. eigenvalues --  -10.81356 -10.79885  -1.23486  -0.92099  -0.84567
  Beta  occ. eigenvalues --   -0.82234  -0.71507
  Beta virt. eigenvalues --   -0.44471  -0.15931  -0.15877  -0.15072  -0.13502
  Beta virt. eigenvalues --   -0.10467  -0.08740  -0.05076  -0.04634  -0.02343
  Beta virt. eigenvalues --   -0.01406   0.00373   0.03453   0.13722   0.17645
  Beta virt. eigenvalues --    0.18961   0.22251   0.26927   0.28672   0.31647
  Beta virt. eigenvalues --    0.35658   0.44850   0.48175   0.49193   0.51320
  Beta virt. eigenvalues --    0.55358   0.74162   0.92898   0.94199   0.99210
  Beta virt. eigenvalues --    1.04089   1.29702   1.30561   1.39424   1.39660
  Beta virt. eigenvalues --    1.41961   1.42863   1.43699   1.67880   1.73191
  Beta virt. eigenvalues --    1.78064   1.86443   1.92443   2.05019   2.14067
  Beta virt. eigenvalues --    2.19897   2.27197   2.31979   2.32331   2.38214
  Beta virt. eigenvalues --    2.47500   2.52128   2.69227   3.01147   3.02356
  Beta virt. eigenvalues --    3.11344   3.43715   3.62144   3.67257  23.61385
  Beta virt. eigenvalues --   25.40489
          Condensed to atoms (all electrons):
               1          2          3          4          5          6
     1  C    4.650060   0.875797   0.305343   0.305208   0.008546   0.007210
     2  C    0.875797   4.650060   0.008546   0.007210   0.305343   0.305208
     3  H    0.305343   0.008546   0.371190  -0.009464   0.002806  -0.004397
     4  H    0.305208   0.007210  -0.009464   0.372342  -0.004397   0.002914
     5  H    0.008546   0.305343   0.002806  -0.004397   0.371190  -0.009464
     6  H    0.007210   0.305208  -0.004397   0.002914  -0.009464   0.372342
          Atomic-Atomic Spin Densities.
               1          2          3          4          5          6
     1  C    0.124233  -0.133566   0.080861   0.081519  -0.022914  -0.023557
     2  C   -0.133566   0.124233  -0.022914  -0.023557   0.080861   0.081519
     3  H    0.080861  -0.022914   0.163987  -0.023587   0.002211  -0.005632
     4  H    0.081519  -0.023557  -0.023587   0.167447  -0.005632   0.002310
     5  H   -0.022914   0.080861   0.002211  -0.005632   0.163987  -0.023587
     6  H   -0.023557   0.081519  -0.005632   0.002310  -0.023587   0.167447
 Mulliken charges and spin densities:
               1          2
     1  C   -0.152164   0.106576
     2  C   -0.152164   0.106576
     3  H    0.325977   0.194925
     4  H    0.326187   0.198499
     5  H    0.325977   0.194925
     6  H    0.326187   0.198499
 Sum of Mulliken charges =   1.00000   1.00000
 Mulliken charges and spin densities with hydrogens summed into heavy atoms:
               1          2
     1  C    0.500000   0.500000
     2  C    0.500000   0.500000
 Electronic spatial extent (au):  <R**2>=             59.9661
 Charge=              1.0000 electrons
 Dipole moment (field-independent basis, Debye):
    X=             -0.0000    Y=             -0.0000    Z=              0.0000  Tot=              0.0000
 Quadrupole moment (field-independent basis, Debye-Ang):
   XX=             -7.4612   YY=             -2.5055   ZZ=            -12.4040
   XY=              0.0220   XZ=              0.0000   YZ=              0.0000
 Traceless Quadrupole moment (field-independent basis, Debye-Ang):
   XX=             -0.0043   YY=              4.9514   ZZ=             -4.9471
   XY=              0.0220   XZ=              0.0000   YZ=              0.0000
 Octapole moment (field-independent basis, Debye-Ang**2):
  XXX=              0.0000  YYY=              0.0000  ZZZ=              0.0000  XYY=              0.0000
  XXY=              0.0000  XXZ=              0.0000  XZZ=              0.0000  YZZ=             -0.0000
  YYZ=              0.0000  XYZ=              0.0000
 Hexadecapole moment (field-independent basis, Debye-Ang**3):
 XXXX=            -15.3043 YYYY=            -28.6530 ZZZZ=            -11.5697 XXXY=              0.0621
 XXXZ=              0.0000 YYYX=             -0.0630 YYYZ=              0.0000 ZZZX=              0.0000
 ZZZY=              0.0000 XXYY=             -2.2318 XXZZ=             -5.2212 YYZZ=             -9.7007
 XXYZ=              0.0000 YYXZ=              0.0000 ZZXY=             -0.0061
 N-N= 3.836532110140D+01 E-N=-2.540097424976D+02  KE= 7.936801290197D+01
 Symmetry AG   KE= 4.018805282448D+01
 Symmetry BG   KE= 7.122125513054D-31
 Symmetry AU   KE= 2.560331931901D+00
 Symmetry BU   KE= 3.661962814559D+01
 Symmetry AG   SP= 1.000000000000D+00
 Symmetry BG   SP= 3.819599104294D-34
 Symmetry AU   SP= 1.318468628586D-15
 Symmetry BU   SP=-2.072380742290D-14
                          Isotropic Fermi Contact Couplings
        Atom                 a.u.       MegaHertz       Gauss      10(-4) cm-1
     1  C(13)             -0.04690     -52.72546     -18.81375     -17.58732
     2  C(13)             -0.04690     -52.72546     -18.81375     -17.58732
     3  H(1)               0.10951     489.48352     174.65989     163.27413
     4  H(1)               0.11126     497.31556     177.45456     165.88662
     5  H(1)               0.10951     489.48352     174.65989     163.27413
     6  H(1)               0.11126     497.31556     177.45456     165.88662
 --------------------------------------------------------
       Center         ----  Spin Dipole Couplings  ----
                      3XX-RR        3YY-RR        3ZZ-RR
 --------------------------------------------------------
     1   Atom        0.233110     -0.114061     -0.119050
     2   Atom        0.233110     -0.114061     -0.119050
     3   Atom       -0.004874      0.026877     -0.022003
     4   Atom       -0.003962      0.025860     -0.021898
     5   Atom       -0.004874      0.026877     -0.022003
     6   Atom       -0.003962      0.025860     -0.021898
 --------------------------------------------------------
                        XY            XZ            YZ
 --------------------------------------------------------
     1   Atom        0.001148      0.000000      0.000000
     2   Atom        0.001148      0.000000      0.000000
     3   Atom       -0.031617      0.000000      0.000000
     4   Atom        0.032209      0.000000      0.000000
     5   Atom       -0.031617      0.000000      0.000000
     6   Atom        0.032209      0.000000      0.000000
 --------------------------------------------------------


 ---------------------------------------------------------------------------------
              Anisotropic Spin Dipole Couplings in Principal Axis System
 ---------------------------------------------------------------------------------

       Atom             a.u.   MegaHertz   Gauss  10(-4) cm-1        Axes

              Baa    -0.1190   -15.975    -5.700    -5.329  0.0000  0.0000  1.0000
     1 C(13)  Bbb    -0.1141   -15.306    -5.462    -5.106 -0.0033  1.0000 -0.0000
              Bcc     0.2331    31.282    11.162    10.434  1.0000  0.0033  0.0000
 
              Baa    -0.1190   -15.975    -5.700    -5.329  0.0000  0.0000  1.0000
     2 C(13)  Bbb    -0.1141   -15.306    -5.462    -5.106 -0.0033  1.0000 -0.0000
              Bcc     0.2331    31.282    11.162    10.434  1.0000  0.0033  0.0000
 
              Baa    -0.0244   -13.007    -4.641    -4.339  0.8511  0.5250  0.0000
     3 H(1)   Bbb    -0.0220   -11.740    -4.189    -3.916  0.0000  0.0000  1.0000
              Bcc     0.0464    24.746     8.830     8.254 -0.5250  0.8511  0.0000
 
              Baa    -0.0245   -13.096    -4.673    -4.368  0.8426 -0.5385 -0.0000
     4 H(1)   Bbb    -0.0219   -11.684    -4.169    -3.897  0.0000  0.0000  1.0000
              Bcc     0.0464    24.780     8.842     8.266  0.5385  0.8426  0.0000
 
              Baa    -0.0244   -13.007    -4.641    -4.339  0.8511  0.5250  0.0000
     5 H(1)   Bbb    -0.0220   -11.740    -4.189    -3.916  0.0000  0.0000  1.0000
              Bcc     0.0464    24.746     8.830     8.254 -0.5250  0.8511  0.0000
 
              Baa    -0.0245   -13.096    -4.673    -4.368  0.8426 -0.5385 -0.0000
     6 H(1)   Bbb    -0.0219   -11.684    -4.169    -3.897  0.0000  0.0000  1.0000
              Bcc     0.0464    24.780     8.842     8.266  0.5385  0.8426  0.0000
 

 ---------------------------------------------------------------------------------

 No NMR shielding tensors so no spin-rotation constants.
 Leave Link  601 at Tue Nov 19 11:52:24 2024, MaxMem=   536870912 cpu:               1.3 elap:               0.2
 (Enter /home/szhao/Apps/g16/l701.exe)
 ... and contract with generalized density number  0.
 Compute integral first derivatives.
 Leave Link  701 at Tue Nov 19 11:52:24 2024, MaxMem=   536870912 cpu:               0.7 elap:               0.1
 (Enter /home/szhao/Apps/g16/l702.exe)
 L702 exits ... SP integral derivatives will be done elsewhere.
 Leave Link  702 at Tue Nov 19 11:52:24 2024, MaxMem=   536870912 cpu:               0.3 elap:               0.0
 (Enter /home/szhao/Apps/g16/l703.exe)
 Integral derivatives from FoFJK, PRISM(SPDF).
 Compute integral first derivatives, UseDBF=F ICtDFT=           0.
 Calling FoFJK, ICntrl=      2127 FMM=F ISym2X=1 I1Cent= 0 IOpClX= 1 NMat=1 NMatS=1 NMatT=0.
 FoFJK:  IHMeth= 1 ICntrl=    2127 DoSepK=F KAlg= 0 I1Cent=           0 FoldK=F
 IRaf=         0 NMat=       1 IRICut=       1 DoRegI=T DoRafI=F ISym2E= 1 IDoP0=0 IntGTp=1.
 FoFCou: FMM=F IPFlag=           0 FMFlag=      100000 FMFlg1=         800
         NFxFlg=           0 DoJE=F BraDBF=F KetDBF=F FulRan=T
         wScrn=  0.000000 ICntrl=      2127 IOpCl=  1 I1Cent=           0 NGrid=           0
         NMat0=    1 NMatS0=      1 NMatT0=    0 NMatD0=    1 NMtDS0=    0 NMtDT0=    0
 Petite list used in FoFCou.
 Leave Link  703 at Tue Nov 19 11:52:24 2024, MaxMem=   536870912 cpu:               3.3 elap:               0.4
 (Enter /home/szhao/Apps/g16/l716.exe)
 Dipole        =-2.22044605D-16 0.00000000D+00 0.00000000D+00
 ***** Axes restored to original set *****
 -------------------------------------------------------------------
 Center     Atomic                   Forces (Hartrees/Bohr)
 Number     Number              X              Y              Z
 -------------------------------------------------------------------
      1        6          -0.968852278    0.000200182   -0.000000000
      2        6           0.968852278   -0.000200182   -0.000000000
      3        1          -0.000016652   -0.000052385   -0.000000000
      4        1           0.000003722   -0.000038836   -0.000000000
      5        1           0.000016652    0.000052385   -0.000000000
      6        1          -0.000003722    0.000038836   -0.000000000
 -------------------------------------------------------------------
 Cartesian Forces:  Max     0.968852278 RMS     0.322950767
 Z-matrix is all fixed cartesians, so copy forces.
 Force constants in Cartesian coordinates: 
                1             2             3             4             5 
      1  0.397571D+01
      2  0.688842D-03  0.645800D+00
      3  0.000000D+00  0.000000D+00  0.576675D+00
      4 -0.358235D+01 -0.234484D-03  0.000000D+00  0.397571D+01
      5 -0.234484D-03 -0.292178D+00  0.000000D+00  0.688842D-03  0.645800D+00
      6  0.000000D+00  0.000000D+00 -0.414525D+00  0.000000D+00  0.000000D+00
      7 -0.198249D+00 -0.104327D+00  0.000000D+00  0.000000D+00 -0.290017D-01
      8 -0.985768D-01 -0.203555D+00  0.000000D+00  0.000000D+00  0.274633D-01
      9  0.000000D+00  0.000000D+00 -0.141442D+00  0.000000D+00  0.000000D+00
     10 -0.195110D+00  0.103638D+00  0.000000D+00  0.000000D+00  0.292362D-01
     11  0.981224D-01 -0.204663D+00  0.000000D+00  0.000000D+00  0.271320D-01
     12  0.000000D+00  0.000000D+00 -0.139545D+00  0.000000D+00  0.000000D+00
     13  0.000000D+00 -0.290017D-01  0.000000D+00 -0.198249D+00 -0.104327D+00
     14  0.000000D+00  0.274633D-01  0.000000D+00 -0.985768D-01 -0.203555D+00
     15  0.000000D+00  0.000000D+00  0.593544D-01  0.000000D+00  0.000000D+00
     16  0.000000D+00  0.292362D-01  0.000000D+00 -0.195110D+00  0.103638D+00
     17  0.000000D+00  0.271320D-01  0.000000D+00  0.981224D-01 -0.204663D+00
     18  0.000000D+00  0.000000D+00  0.594828D-01  0.000000D+00  0.000000D+00
                6             7             8             9            10 
      6  0.576675D+00
      7  0.000000D+00  0.179714D+00
      8  0.000000D+00  0.116128D+00  0.192380D+00
      9  0.593544D-01  0.000000D+00  0.000000D+00  0.719585D-01
     10  0.000000D+00  0.185346D-01 -0.175514D-01  0.000000D+00  0.176575D+00
     11  0.000000D+00  0.172006D-01 -0.162882D-01  0.000000D+00 -0.115323D+00
     12  0.594828D-01  0.000000D+00  0.000000D+00  0.979442D-02  0.000000D+00
     13  0.000000D+00  0.000000D+00  0.000000D+00  0.000000D+00  0.000000D+00
     14  0.000000D+00  0.000000D+00  0.000000D+00  0.000000D+00  0.000000D+00
     15 -0.141442D+00  0.000000D+00  0.000000D+00  0.310752D-01  0.000000D+00
     16  0.000000D+00  0.000000D+00  0.000000D+00  0.000000D+00  0.000000D+00
     17  0.000000D+00  0.000000D+00  0.000000D+00  0.000000D+00  0.000000D+00
     18 -0.139545D+00  0.000000D+00  0.000000D+00 -0.307404D-01  0.000000D+00
               11            12            13            14            15 
     11  0.193819D+00
     12  0.000000D+00  0.705991D-01
     13  0.000000D+00  0.000000D+00  0.179714D+00
     14  0.000000D+00  0.000000D+00  0.116128D+00  0.192380D+00
     15  0.000000D+00 -0.307404D-01  0.000000D+00  0.000000D+00  0.719585D-01
     16  0.000000D+00  0.000000D+00  0.185346D-01 -0.175514D-01  0.000000D+00
     17  0.000000D+00  0.000000D+00  0.172006D-01 -0.162882D-01  0.000000D+00
     18  0.000000D+00  0.304091D-01  0.000000D+00  0.000000D+00  0.979442D-02
               16            17            18 
     16  0.176575D+00
     17 -0.115323D+00  0.193819D+00
     18  0.000000D+00  0.000000D+00  0.705991D-01
 Leave Link  716 at Tue Nov 19 11:52:24 2024, MaxMem=   536870912 cpu:               0.3 elap:               0.0
 (Enter /home/szhao/Apps/g16/l103.exe)

 GradGradGradGradGradGradGradGradGradGradGradGradGradGradGradGradGradGrad
 Berny optimization.
 Search for a local minimum.
 Step number   1 out of a maximum of    2
 All quantities printed in internal units (Hartrees-Bohrs-Radians)
 Second derivative matrix not updated -- first step.
 The second derivative matrix:
                          X1        Y1        Z1        X2        Y2
           X1           3.97571
           Y1           0.00069   0.64580
           Z1           0.00000   0.00000   0.57667
           X2          -3.58235  -0.00023   0.00000   3.97571
           Y2          -0.00023  -0.29218   0.00000   0.00069   0.64580
           Z2           0.00000   0.00000  -0.41452   0.00000   0.00000
           X3          -0.19825  -0.10433   0.00000   0.00000  -0.02900
           Y3          -0.09858  -0.20355   0.00000  -0.00000   0.02746
           Z3           0.00000   0.00000  -0.14144   0.00000   0.00000
           X4          -0.19511   0.10364   0.00000  -0.00000   0.02924
           Y4           0.09812  -0.20466   0.00000  -0.00000   0.02713
           Z4           0.00000   0.00000  -0.13955   0.00000   0.00000
           X5           0.00000  -0.02900   0.00000  -0.19825  -0.10433
           Y5          -0.00000   0.02746   0.00000  -0.09858  -0.20355
           Z5           0.00000   0.00000   0.05935   0.00000   0.00000
           X6          -0.00000   0.02924   0.00000  -0.19511   0.10364
           Y6          -0.00000   0.02713   0.00000   0.09812  -0.20466
           Z6           0.00000   0.00000   0.05948   0.00000   0.00000
                          Z2        X3        Y3        Z3        X4
           Z2           0.57667
           X3           0.00000   0.17971
           Y3           0.00000   0.11613   0.19238
           Z3           0.05935   0.00000   0.00000   0.07196
           X4           0.00000   0.01853  -0.01755   0.00000   0.17658
           Y4           0.00000   0.01720  -0.01629   0.00000  -0.11532
           Z4           0.05948   0.00000   0.00000   0.00979   0.00000
           X5           0.00000   0.00000   0.00000   0.00000   0.00000
           Y5           0.00000   0.00000   0.00000   0.00000   0.00000
           Z5          -0.14144   0.00000   0.00000   0.03108   0.00000
           X6           0.00000   0.00000   0.00000   0.00000   0.00000
           Y6           0.00000   0.00000   0.00000   0.00000   0.00000
           Z6          -0.13955   0.00000   0.00000  -0.03074   0.00000
                          Y4        Z4        X5        Y5        Z5
           Y4           0.19382
           Z4           0.00000   0.07060
           X5           0.00000   0.00000   0.17971
           Y5           0.00000   0.00000   0.11613   0.19238
           Z5           0.00000  -0.03074   0.00000   0.00000   0.07196
           X6           0.00000   0.00000   0.01853  -0.01755   0.00000
           Y6           0.00000   0.00000   0.01720  -0.01629   0.00000
           Z6           0.00000   0.03041   0.00000   0.00000   0.00979
                          X6        Y6        Z6
           X6           0.17658
           Y6          -0.11532   0.19382
           Z6           0.00000   0.00000   0.07060
 ITU=  0
     Eigenvalues ---    0.04727   0.10282   0.12293   0.14029   0.19012
     Eigenvalues ---    0.20067   0.28999   0.54966   0.55608   0.96872
     Eigenvalues ---    1.00475   7.57133
 Quadratic step=3.313D-01 exceeds max=3.000D-01 adjusted using Lamda=-2.397D-02.
 Angle between NR and scaled steps=   4.90 degrees.
 Angle between quadratic step and forces=  50.84 degrees.
 ClnCor:  largest displacement from symmetrization is 1.39D-14 for atom     5.
 Linear search not attempted -- first point.
 ClnCor:  largest displacement from symmetrization is 6.51D-19 for atom     1.
 B after Tr=     0.000000   -0.000000    0.000000
         Rot=    1.000000    0.000000    0.000000    0.000011 Ang=   0.00 deg.
 Variable       Old X    -DE/DX   Delta X   Delta X   Delta X     New X
                                 (Linear)    (Quad)   (Total)
    X1       -0.93508  -0.96885   0.00000  -0.13400  -0.13400  -1.06908
    Y1       -0.00000   0.00020   0.00000   0.00028   0.00031   0.00031
    Z1        0.00000  -0.00000   0.00000   0.00000   0.00000   0.00000
    X2        0.93508   0.96885   0.00000   0.13400   0.13400   1.06908
    Y2       -0.00000  -0.00020   0.00000  -0.00028  -0.00031  -0.00031
    Z2        0.00000  -0.00000   0.00000   0.00000   0.00000   0.00000
    X3       -2.40788  -0.00002   0.00000  -0.11629  -0.11632  -2.52420
    Y3       -1.55530  -0.00005   0.00000  -0.00740  -0.00735  -1.56264
    Z3        0.00000  -0.00000   0.00000   0.00000   0.00000   0.00000
    X4       -2.39416   0.00000   0.00000  -0.11591  -0.11588  -2.51004
    Y4        1.57224  -0.00004   0.00000   0.00775   0.00780   1.58004
    Z4        0.00000  -0.00000   0.00000   0.00000   0.00000   0.00000
    X5        2.40788   0.00002   0.00000   0.11629   0.11632   2.52420
    Y5        1.55530   0.00005   0.00000   0.00740   0.00735   1.56264
    Z5        0.00000  -0.00000   0.00000   0.00000   0.00000   0.00000
    X6        2.39416  -0.00000   0.00000   0.11591   0.11588   2.51004
    Y6       -1.57224   0.00004   0.00000  -0.00775  -0.00780  -1.58004
    Z6        0.00000  -0.00000   0.00000   0.00000   0.00000   0.00000
         Item               Value     Threshold  Converged?
 Maximum Force            0.968852     0.000450     NO 
 RMS     Force            0.322951     0.000300     NO 
 Maximum Displacement     0.134003     0.001800     NO 
 RMS     Displacement     0.070734     0.001200     NO 
 Predicted change in Energy=-1.309095D-01
 GradGradGradGradGradGradGradGradGradGradGradGradGradGradGradGradGradGrad

 Leave Link  103 at Tue Nov 19 11:52:24 2024, MaxMem=   536870912 cpu:               0.1 elap:               0.0
 (Enter /home/szhao/Apps/g16/l9999.exe)
 1\1\GINC-NODE01\Force\UM062X\6-311+G(d,p)\C2H4(1+,2)\SZHAO\19-Nov-2024
 \0\\#p UM062X/6-311+G** force int=superfine\\Title Card Required\\1,2\
 C,-0.494824,0.,0.\C,0.494824,0.,0.\H,-1.274193,-0.823027,0.\H,-1.26693
 6,0.831992,0.\H,1.274193,0.823027,0.\H,1.266936,-0.831992,0.\\Version=
 ES64L-G16RevA.03\State=2-AG\HF=-77.9129172\S2=0.757783\S2-1=0.\S2A=0.7
 50033\RMSD=7.216e-09\RMSF=3.230e-01\Dipole=0.,0.,0.\Quadrupole=3.68124
 57,-0.0031822,-3.6780635,-0.0163779,0.,0.\PG=C02H [SGH(C2H4)]\\@


 REALITY IS FOR PEOPLE WHO CAN'T FACE SCIENCE FICTION.
 Job cpu time:       0 days  0 hours  0 minutes 23.1 seconds.
 Elapsed time:       0 days  0 hours  0 minutes  2.9 seconds.
 File lengths (MBytes):  RWF=      6 Int=      0 D2E=      0 Chk=      1 Scr=      1
 Normal termination of Gaussian 16 at Tue Nov 19 11:52:24 2024.
