Title Card Required                                                     
FOpt      UM062X                                                      6-311+G(d,p)        
Number of atoms                            I                4
Info1-9                                    I   N=           9
          13          13           0           0           0         110
           2          18        -502
Full Title                                 C   N=           2
Title Card Required     
Route                                      C   N=           4
#p opt UM062X/6-311+G** nosymm int=superfine    
Charge                                     I                0
Multiplicity                               I                1
Number of electrons                        I               14
Number of alpha electrons                  I                7
Number of beta electrons                   I                7
Number of basis functions                  I               56
Number of independent functions            I               56
Number of point charges in /Mol/           I                0
Number of translation vectors              I                0
Atomic numbers                             I   N=           4
           6           6           1           1
Nuclear charges                            R   N=           4
  6.00000000E+00  6.00000000E+00  1.00000000E+00  1.00000000E+00
Current cartesian coordinates              R   N=          12
 -1.80964860E+00  0.00000000E+00  0.00000000E+00  1.80964860E+00  0.00000000E+00
  0.00000000E+00 -3.85566702E+00 -6.64415426E-08  4.76576452E-08  3.85573155E+00
  6.19507550E-08  1.21467494E-07
Number of symbols in /Mol/                 I                0
Force Field                                I                0
Atom Types                                 C   N=           4
                                                
Int Atom Types                             I   N=           4
           0           0           0           0
MM charges                                 R   N=           4
  0.00000000E+00  0.00000000E+00  0.00000000E+00  0.00000000E+00
Integer atomic weights                     I   N=           4
          12          12           1           1
Real atomic weights                        R   N=           4
  1.20000000E+01  1.20000000E+01  1.00782504E+00  1.00782504E+00
Atom fragment info                         I   N=           4
           0           0           0           0
Atom residue num                           I   N=           4
           0           0           0           0
Nuclear spins                              I   N=           4
           0           0           1           1
Nuclear ZEff                               R   N=           4
 -3.60000000E+00 -3.60000000E+00 -1.00000000E+00 -1.00000000E+00
Nuclear ZNuc                               R   N=           4
  6.00000000E+00  6.00000000E+00  1.00000000E+00  1.00000000E+00
Nuclear QMom                               R   N=           4
  0.00000000E+00  0.00000000E+00  0.00000000E+00  0.00000000E+00
Nuclear GFac                               R   N=           4
  0.00000000E+00  0.00000000E+00  2.79284600E+00  2.79284600E+00
MicOpt                                     I   N=           4
          -2          -2          -1          -1
Number of residues                         I                0
Number of secondary structures             I                0
Redundant internal dimensions              I   N=           4
          12           8           4           0
Redundant internal coordinate indices      I   N=          48
           1          -1           0           0           1          -2
           0           0           1          -3           0           0
           2          -1           0           0           2          -2
           0           0           2          -3           0           0
           1           3           0           0           2           4
           0           0           2           1           3          -4
           1           2           4          -4           2           1
           3          -8           1           2           4          -8
Redundant internal coordinates             R   N=          12
 -1.80964860E+00  0.00000000E+00  0.00000000E+00  1.80964860E+00  0.00000000E+00
  0.00000000E+00  2.04601842E+00  2.04608295E+00  3.14159263E+00  3.14159272E+00
  3.14159262E+00  3.14159262E+00
ZRed-IntVec                                I   N=          12
          -1          -1          -1          -1          -1          -1
           0           0           0           0           0           0
ZRed-FPVec                                 R   N=          12
  0.00000000E+00  0.00000000E+00  0.00000000E+00  0.00000000E+00  0.00000000E+00
  0.00000000E+00  0.00000000E+00  0.00000000E+00  0.00000000E+00  0.00000000E+00
  0.00000000E+00  0.00000000E+00
ZRed-Constraint1                           R   N=          12
 -1.80964860E+00  0.00000000E+00  0.00000000E+00  1.80964860E+00  0.00000000E+00
  0.00000000E+00  3.21830639E+00  3.21825801E+00  3.14159265E+00  3.14159264E+00
  3.14159265E+00  3.14159264E+00
ZRed-Constraint2                           R   N=          12
 -1.80964860E+00  0.00000000E+00  0.00000000E+00  1.80964860E+00  0.00000000E+00
  0.00000000E+00  0.00000000E+00  0.00000000E+00  0.00000000E+00  0.00000000E+00
  0.00000000E+00  0.00000000E+00
Number of contracted shells                I               20
Number of primitive shells                 I               38
Pure/Cartesian d shells                    I                0
Pure/Cartesian f shells                    I                0
Highest angular momentum                   I                2
Largest degree of contraction              I                6
Shell types                                I   N=          20
           0          -1          -1          -1          -1          -2
           0          -1          -1          -1          -1          -2
           0           0           0           1           0           0
           0           1
Number of primitives per shell             I   N=          20
           6           3           1           1           1           1
           6           3           1           1           1           1
           3           1           1           1           3           1
           1           1
Shell to atom map                          I   N=          20
           1           1           1           1           1           1
           2           2           2           2           2           2
           3           3           3           3           4           4
           4           4
Primitive exponents                        R   N=          38
  4.56324000E+03  6.82024000E+02  1.54973000E+02  4.44553000E+01  1.30290000E+01
  1.82773000E+00  2.09642000E+01  4.80331000E+00  1.45933000E+00  4.83456000E-01
  1.45585000E-01  4.38000000E-02  6.26000000E-01  4.56324000E+03  6.82024000E+02
  1.54973000E+02  4.44553000E+01  1.30290000E+01  1.82773000E+00  2.09642000E+01
  4.80331000E+00  1.45933000E+00  4.83456000E-01  1.45585000E-01  4.38000000E-02
  6.26000000E-01  3.38650000E+01  5.09479000E+00  1.15879000E+00  3.25840000E-01
  1.02741000E-01  7.50000000E-01  3.38650000E+01  5.09479000E+00  1.15879000E+00
  3.25840000E-01  1.02741000E-01  7.50000000E-01
Contraction coefficients                   R   N=          38
  1.96665025E-03  1.52306019E-02  7.61269097E-02  2.60801033E-01  6.16462078E-01
  2.21006028E-01  1.14660081E-01  9.19999648E-01 -3.03068213E-03  1.00000000E+00
  1.00000000E+00  1.00000000E+00  1.00000000E+00  1.96665025E-03  1.52306019E-02
  7.61269097E-02  2.60801033E-01  6.16462078E-01  2.21006028E-01  1.14660081E-01
  9.19999648E-01 -3.03068213E-03  1.00000000E+00  1.00000000E+00  1.00000000E+00
  1.00000000E+00  2.54938145E-02  1.90373109E-01  8.52161486E-01  1.00000000E+00
  1.00000000E+00  1.00000000E+00  2.54938145E-02  1.90373109E-01  8.52161486E-01
  1.00000000E+00  1.00000000E+00  1.00000000E+00
P(S=P) Contraction coefficients            R   N=          38
  0.00000000E+00  0.00000000E+00  0.00000000E+00  0.00000000E+00  0.00000000E+00
  0.00000000E+00  4.02486927E-02  2.37593957E-01  8.15853851E-01  1.00000000E+00
  1.00000000E+00  1.00000000E+00  0.00000000E+00  0.00000000E+00  0.00000000E+00
  0.00000000E+00  0.00000000E+00  0.00000000E+00  0.00000000E+00  4.02486927E-02
  2.37593957E-01  8.15853851E-01  1.00000000E+00  1.00000000E+00  1.00000000E+00
  0.00000000E+00  0.00000000E+00  0.00000000E+00  0.00000000E+00  0.00000000E+00
  0.00000000E+00  0.00000000E+00  0.00000000E+00  0.00000000E+00  0.00000000E+00
  0.00000000E+00  0.00000000E+00  0.00000000E+00
Coordinates of each shell                  R   N=          60
 -1.80964860E+00  0.00000000E+00  0.00000000E+00 -1.80964860E+00  0.00000000E+00
  0.00000000E+00 -1.80964860E+00  0.00000000E+00  0.00000000E+00 -1.80964860E+00
  0.00000000E+00  0.00000000E+00 -1.80964860E+00  0.00000000E+00  0.00000000E+00
 -1.80964860E+00  0.00000000E+00  0.00000000E+00  1.80964860E+00  0.00000000E+00
  0.00000000E+00  1.80964860E+00  0.00000000E+00  0.00000000E+00  1.80964860E+00
  0.00000000E+00  0.00000000E+00  1.80964860E+00  0.00000000E+00  0.00000000E+00
  1.80964860E+00  0.00000000E+00  0.00000000E+00  1.80964860E+00  0.00000000E+00
  0.00000000E+00 -3.85566702E+00 -6.64415426E-08  4.76576452E-08 -3.85566702E+00
 -6.64415426E-08  4.76576452E-08 -3.85566702E+00 -6.64415426E-08  4.76576452E-08
 -3.85566702E+00 -6.64415426E-08  4.76576452E-08  3.85573155E+00  6.19507550E-08
  1.21467494E-07  3.85573155E+00  6.19507550E-08  1.21467494E-07  3.85573155E+00
  6.19507550E-08  1.21467494E-07  3.85573155E+00  6.19507550E-08  1.21467494E-07
Num ILSW                                   I              100
ILSW                                       I   N=         100
           1           0           0           1           2           0
           0           0           0           0        4336          -1
           7           0           0           0           2           0
           0           0           0           0           1           0
           1           1           0           0           0           0
           0           0      100000           0          -1           0
           0           0           0           0           0           0
           0           0           0           1           0           0
           0 -2000000000           1           0           0           0
           0           0           4          52           0           0
           0           0          55           0           0           0
           0           0           0           4           0           1
           0           0           0           0           0           0
           0           0           0           0           0           0
           0           0           0           0           0           0
           0           0           0           0           0           0
           0           0           0           0
Num RLSW                                   I               52
RLSW                                       R   N=          52
  1.00000000E+00  1.00000000E+00  1.00000000E+00  1.00000000E+00  5.40000000E-01
  0.00000000E+00  0.00000000E+00  1.00000000E+00  0.00000000E+00  0.00000000E+00
  0.00000000E+00  0.00000000E+00  1.00000000E+00  0.00000000E+00  0.00000000E+00
  0.00000000E+00  0.00000000E+00  1.00000000E+00  0.00000000E+00  0.00000000E+00
  0.00000000E+00  0.00000000E+00  1.00000000E+00  0.00000000E+00  0.00000000E+00
  0.00000000E+00  0.00000000E+00  1.00000000E+00  0.00000000E+00  0.00000000E+00
  0.00000000E+00  0.00000000E+00  1.00000000E+00  0.00000000E+00  0.00000000E+00
  0.00000000E+00  0.00000000E+00  0.00000000E+00  1.00000000E+00  1.00000000E+00
  0.00000000E+00  1.00000000E+00  0.00000000E+00  0.00000000E+00  0.00000000E+00
  0.00000000E+00  0.00000000E+00  0.00000000E+00  0.00000000E+00  0.00000000E+00
  0.00000000E+00  0.00000000E+00
MxBond                                     I                2
NBond                                      I   N=           4
           2           2           1           1
IBond                                      I   N=           8
           2           3           1           4           1           0
           2           0
RBond                                      R   N=           8
  1.00000000E-01  1.00000000E-01  1.00000000E-01  1.00000000E-01  1.00000000E-01
  0.00000000E+00  1.00000000E-01  0.00000000E+00
Virial Ratio                               R      2.016605245410813E+00
SCF Energy                                 R     -7.696843490647328E+01
Total Energy                               R     -7.696843490647328E+01
S**2                                       R     -1.598721155460225E-14
S**2 after annihilation                    R      5.861977570020758E-14
RMS Force                                  R      2.725236799565316E-05
RMS Density                                R      4.256518069813151E-09
Job Status                                 I                1
Nuclear derivative order                   I                1
External E-field                           R   N=          35
  0.00000000E+00  0.00000000E+00  0.00000000E+00  0.00000000E+00  0.00000000E+00
  0.00000000E+00  0.00000000E+00  0.00000000E+00  0.00000000E+00  0.00000000E+00
  0.00000000E+00  0.00000000E+00  0.00000000E+00  0.00000000E+00  0.00000000E+00
  0.00000000E+00  0.00000000E+00  0.00000000E+00  0.00000000E+00  0.00000000E+00
  0.00000000E+00  0.00000000E+00  0.00000000E+00  0.00000000E+00  0.00000000E+00
  0.00000000E+00  0.00000000E+00  0.00000000E+00  0.00000000E+00  0.00000000E+00
  0.00000000E+00  0.00000000E+00  0.00000000E+00  0.00000000E+00  0.00000000E+00
IOpCl                                      I                1
IROHF                                      I                0
Alpha Orbital Energies                     R   N=          56
 -1.06831577E+01 -1.06829572E+01 -7.63340330E-01 -7.09551363E-01 -5.03326162E-01
 -2.88323124E-01 -2.88323124E-01 -7.64683274E-02 -7.64683274E-02 -5.95126700E-02
  2.25340265E-02  3.49527561E-02  8.64293714E-02  8.64293714E-02  9.80113908E-02
  1.06842817E-01  1.06842817E-01  1.71114953E-01  2.17226311E-01  2.49632092E-01
  4.68398063E-01  5.70009582E-01  5.74277270E-01  5.74277270E-01  6.01366148E-01
  6.01366148E-01  6.83551962E-01  7.58358795E-01  8.07909135E-01  9.58268379E-01
  1.02780825E+00  1.02780825E+00  1.27412244E+00  1.27412244E+00  1.30725630E+00
  1.30725632E+00  1.38628524E+00  1.38628527E+00  1.42105445E+00  1.75972647E+00
  1.75972647E+00  1.78768031E+00  2.02282994E+00  2.02282994E+00  2.26405997E+00
  2.50445818E+00  2.65273315E+00  2.70006802E+00  2.70006802E+00  2.74177194E+00
  2.74177194E+00  2.97044106E+00  3.30976578E+00  3.33905366E+00  2.35605042E+01
  2.36363761E+01
Beta Orbital Energies                      R   N=          56
 -1.06831577E+01 -1.06829572E+01 -7.63340330E-01 -7.09551363E-01 -5.03326162E-01
 -2.88323124E-01 -2.88323124E-01 -7.64683274E-02 -7.64683274E-02 -5.95126700E-02
  2.25340265E-02  3.49527561E-02  8.64293714E-02  8.64293714E-02  9.80113908E-02
  1.06842817E-01  1.06842817E-01  1.71114953E-01  2.17226311E-01  2.49632092E-01
  4.68398063E-01  5.70009582E-01  5.74277270E-01  5.74277270E-01  6.01366148E-01
  6.01366148E-01  6.83551962E-01  7.58358795E-01  8.07909135E-01  9.58268379E-01
  1.02780825E+00  1.02780825E+00  1.27412244E+00  1.27412244E+00  1.30725630E+00
  1.30725632E+00  1.38628524E+00  1.38628527E+00  1.42105445E+00  1.75972647E+00
  1.75972647E+00  1.78768031E+00  2.02282994E+00  2.02282994E+00  2.26405997E+00
  2.50445818E+00  2.65273315E+00  2.70006802E+00  2.70006802E+00  2.74177194E+00
  2.74177194E+00  2.97044106E+00  3.30976578E+00  3.33905366E+00  2.35605042E+01
  2.36363761E+01
Alpha MO coefficients                      R   N=        3136
  3.96170756E-01  3.25833701E-01  6.96262798E-04 -8.01070800E-11 -8.74126103E-11
  7.25339050E-03 -2.25513395E-03 -3.80035947E-11  8.61356956E-11 -3.33762396E-03
  6.03099107E-04  1.47080268E-13 -2.26545794E-11 -4.95844810E-04  1.32311664E-03
  6.74124841E-11  1.26502926E-11 -5.08096376E-04 -4.36500990E-11 -1.55969196E-15
  8.80048739E-04  5.56631182E-11  4.01921197E-01  3.30562800E-01 -7.04137327E-04
  8.34167361E-11  6.92776415E-12  7.36271018E-03  2.28782490E-03  3.29611037E-11
  1.28202602E-10 -3.40180059E-03 -5.58248406E-04  1.44589985E-12 -2.13098875E-11
 -4.18842883E-04 -1.35878818E-03 -6.62192100E-11 -6.44228062E-11 -5.16783275E-04
  1.07315533E-10  1.57184813E-15  8.95094890E-04  5.26152512E-11  5.61346435E-05
 -2.85617642E-03  3.16881743E-03 -1.73139059E-03 -5.79939552E-11  3.33772317E-11
  5.84025746E-05 -2.91431967E-03  3.18598993E-03  1.75966202E-03  5.55768247E-11
  1.00011094E-10  4.01945432E-01  3.30553655E-01  5.53492107E-04 -7.94358584E-11
 -8.38480597E-11  7.66163225E-03 -2.31097284E-03 -4.86514390E-11  7.49476814E-11
 -4.47221564E-03 -3.10611118E-03 -2.97173632E-11  1.92222983E-11  5.29542207E-03
  2.47372190E-03  1.33473241E-11 -8.66849547E-12 -6.12498164E-04 -6.69685532E-11
 -1.56491931E-15  1.06087794E-03  6.95792391E-11 -3.96195359E-01 -3.25824496E-01
  5.43372409E-04 -8.02133164E-11 -9.52184244E-12 -7.55598449E-03 -2.27783211E-03
 -4.28012102E-11 -1.25441945E-10  4.42384070E-03 -3.11444704E-03 -2.77876440E-11
 -5.28277364E-11 -5.30210233E-03  2.45439589E-03  1.15341389E-11  2.26672890E-11
  6.05025201E-04 -1.42114995E-10 -1.54109788E-15 -1.04793439E-03 -6.32239123E-11
  1.51151054E-04 -4.09073661E-03  1.23562738E-03 -1.99140425E-03 -8.03197268E-11
  4.49381162E-11 -1.50431313E-04  4.04861095E-03 -1.18969379E-03 -1.96600273E-03
 -7.47483701E-11 -1.33174509E-10 -8.02556266E-02 -1.29757983E-01 -2.34622099E-02
 -1.67461250E-09  8.28191741E-10  3.59716135E-01 -2.64549597E-02 -3.01421044E-09
  5.72964149E-10  2.57188111E-01 -1.25326205E-02 -1.03511985E-09  3.39311345E-10
  3.18149427E-03 -1.20058612E-02 -4.68092955E-10 -8.29196260E-11 -8.88405251E-03
 -5.53567484E-10 -4.43092947E-14  1.53876303E-02  4.20328167E-10 -8.02458256E-02
 -1.29742241E-01  2.34494935E-02  1.58045813E-09  2.70366901E-09  3.59673508E-01
  2.64392256E-02  2.89214451E-09  3.98226666E-09  2.57161378E-01  1.25274163E-02
  9.86517405E-10  1.50485721E-09  3.18769369E-03  1.20032421E-02  4.58051110E-10
  4.49859943E-10 -8.88307239E-03  1.01081051E-09  4.43072482E-14  1.53859327E-02
  3.78690847E-10  9.28781600E-02  1.14283492E-01 -2.30135396E-03  1.30629174E-02
  3.36607994E-10 -2.65559751E-10  9.28578499E-02  1.14260751E-01 -2.30292469E-03
 -1.30601197E-02 -3.12521691E-10 -6.38516110E-10  6.94874832E-02  1.12304128E-01
  7.78387259E-02  2.55048603E-09 -9.76818307E-10 -3.14025849E-01  1.07043724E-01
  4.04730782E-09 -7.62753213E-10 -2.20358519E-01  5.20221316E-02  1.43499871E-09
 -5.57548843E-10  8.05429434E-02  3.55485905E-02  1.21742451E-10 -3.69419915E-10
  5.98633726E-03  5.41353473E-10  3.93687181E-14 -1.03686403E-02 -7.32606421E-10
 -6.94992116E-02 -1.12323244E-01  7.78354449E-02  2.42256484E-09  3.83990359E-09
  3.14080370E-01  1.07040227E-01  3.88612742E-09  5.33585764E-09  2.20403950E-01
  5.20221974E-02  1.36195050E-09  2.16709434E-09 -8.05419745E-02  3.55512854E-02
  9.94950845E-11  4.96795107E-10 -5.98762493E-03  1.35509919E-09  3.94020708E-14
  1.03708706E-02  6.82262920E-10 -1.23452416E-01 -1.57722570E-01 -1.27755338E-02
 -1.79535494E-02 -5.66964203E-10  4.99917580E-10  1.23458976E-01  1.57734566E-01
  1.27743083E-02 -1.79546630E-02 -5.23753959E-10 -1.12641797E-09  2.27321002E-02
  3.77292081E-02 -1.65850828E-01 -3.18152688E-09  2.30935550E-09 -1.08934281E-01
 -2.41258019E-01 -3.67193774E-09  3.58263739E-09 -1.28600668E-01 -1.36334215E-01
 -2.87820104E-09  1.57543603E-09 -3.23995007E-03 -1.74901196E-03 -3.18356843E-10
 -1.38949386E-10  2.46812001E-03  2.61501389E-10  1.42208450E-14 -4.27490926E-03
  1.15166213E-09  2.27303614E-02  3.77262381E-02  1.65851503E-01  2.96478677E-09
  5.84854547E-09 -1.08925093E-01  2.41261171E-01  3.37414191E-09  7.63645849E-09
 -1.28588844E-01  1.36337484E-01  2.70872695E-09  4.79943745E-09 -3.24594820E-03
  1.75238973E-03  3.16102603E-10  2.27542780E-10  2.46795252E-03  1.05647335E-09
 -1.42684397E-14 -4.27461916E-03  1.13055941E-09  1.10632994E-01  1.67510207E-01
  5.30637686E-02  1.52660671E-02  7.13364667E-10 -5.10380786E-10  1.10634977E-01
  1.67516831E-01  5.30651587E-02 -1.52664176E-02 -6.65206267E-10 -1.30230104E-09
  3.81266821E-10  6.23259724E-10  5.31349830E-09 -7.95070562E-02  1.64290203E-01
 -1.75388183E-09  8.65248096E-09 -1.23176882E-01  2.54527785E-01 -3.44210850E-09
  6.28799039E-09 -1.24673542E-01  2.57620423E-01 -8.34678021E-10  1.11197750E-09
 -1.85461929E-02  3.83231116E-02 -6.74529470E-10  7.23601139E-03 -6.27201703E-10
 -2.58087340E-10 -3.50181542E-03  8.48111430E-10  1.40602005E-09 -5.05428655E-09
 -7.95069743E-02  1.64290033E-01 -4.12664631E-09 -8.52617705E-09 -1.23176652E-01
  2.54527310E-01 -6.71463336E-09 -6.82975135E-09 -1.24673393E-01  2.57620116E-01
 -7.38870532E-10 -1.35860082E-09 -1.85464235E-02  3.83235880E-02  7.84058000E-10
 -7.23598627E-03  5.02581572E-10  5.53519590E-10  3.50180326E-03  4.73959993E-10
  1.65627210E-10 -8.80443415E-10  7.62856705E-10 -7.75496767E-03  1.60245552E-02
  1.11223611E-09  1.61865544E-09  1.48439141E-10 -9.80282984E-10 -7.75468248E-03
  1.60239659E-02 -2.92868257E-09 -4.91675163E-09  4.01931446E-09  1.64290203E-01
  7.95070562E-02  1.49603686E-08  4.61013173E-09  2.54527785E-01  1.23176882E-01
  2.00491449E-08 -9.81840620E-10  2.57620423E-01  1.24673542E-01 -1.59646481E-09
 -1.39082271E-09  3.83231116E-02  1.85461929E-02  4.29793563E-10  3.50181542E-03
 -7.13379107E-10  5.11681014E-10  7.23601139E-03  3.48391170E-09  5.83331498E-09
 -6.62667715E-10  1.64290033E-01  7.95069743E-02 -1.76177347E-08 -3.14718003E-09
  2.54527310E-01  1.23176652E-01 -2.46278897E-08 -6.90300619E-09  2.57620116E-01
  1.24673393E-01  8.86590243E-10 -2.50277629E-09  3.83235880E-02  1.85464235E-02
 -3.66746463E-10 -3.50180326E-03  9.54330791E-10 -3.69966317E-10 -7.23598627E-03
 -4.03817689E-09 -9.55413845E-09 -7.17799339E-09 -1.11625640E-09  1.60245552E-02
  7.75496767E-03  4.75447661E-09  1.03589016E-08  6.84172770E-09 -1.90293273E-09
  1.60239659E-02  7.75468248E-03 -1.27646837E-08 -2.12874817E-08  1.62206370E-08
  1.66100115E-01 -1.05035395E-01  6.32668800E-08  2.03894518E-08  2.49963122E-01
 -1.58067171E-01  1.21562043E-07  5.18497032E-09  3.07366800E-01 -1.94367074E-01
  2.21422401E-07  9.21907901E-08  2.09633287E-01 -1.32564118E-01  3.30940334E-09
  1.15587099E-02  2.38600863E-10 -3.84829413E-09 -1.82786292E-02  1.19578949E-08
  1.99349117E-08  2.12558315E-08 -1.66100419E-01  1.05035587E-01 -5.97629219E-08
  2.90513971E-08 -2.49963410E-01  1.58067353E-01 -1.10464730E-07  1.56278822E-08
 -3.07367185E-01  1.94367317E-01 -2.15267993E-07  9.72786643E-08 -2.09634140E-01
  1.32564657E-01 -1.73639458E-09  1.15587452E-02 -1.54550863E-10  5.36187933E-09
 -1.82786850E-02 -2.02517094E-08 -5.16548428E-08 -5.77902928E-08 -7.15720893E-10
  2.21439716E-02 -1.40030054E-02  1.82402119E-08  4.61473220E-08  5.21463846E-08
  2.83702933E-10 -2.21437021E-02  1.40028349E-02  1.76789947E-08  2.94706617E-08
 -3.27406167E-08  1.05035395E-01  1.66100115E-01 -8.84598290E-08 -4.51142534E-08
  1.58067171E-01  2.49963122E-01 -1.62594816E-07 -2.54438867E-08  1.94367074E-01
  3.07366800E-01 -3.19942124E-07 -1.46171176E-07  1.32564118E-01  2.09633287E-01
 -3.95978857E-09 -1.82786292E-02 -9.41494007E-10  7.33760063E-09 -1.15587099E-02
 -1.92118754E-08 -3.20409072E-08 -2.31818742E-08 -1.05035587E-01 -1.66100419E-01
  9.51199542E-08 -2.86601637E-08 -1.58067353E-01 -2.49963410E-01  1.83653548E-07
 -5.61886135E-09 -1.94367317E-01 -3.07367185E-01  3.31622564E-07 -1.36527912E-07
 -1.32564657E-01 -2.09634140E-01  3.53109253E-09 -1.82786850E-02 -1.17573154E-09
 -6.42685021E-09 -1.15587452E-02  2.68132550E-08  6.77434008E-08  7.66727806E-08
 -6.26954378E-10  1.40030054E-02  2.21439716E-02 -3.06245424E-08 -7.81972087E-08
 -8.73800730E-08  1.27234185E-09 -1.40028349E-02 -2.21437021E-02 -6.69610265E-02
 -1.11714824E-01  1.15271520E-01 -6.14744012E-09  5.95402037E-08  3.33988114E-01
  1.51962720E-01 -1.09775944E-08  8.90636153E-08  6.43262001E-01  1.40024218E-01
 -1.48347614E-08  1.16044282E-07  1.69346055E+00  7.79880287E-01 -5.33317706E-09
  8.43880410E-08  1.56377564E-02 -7.34957466E-09 -4.88596295E-14 -2.70853886E-02
 -1.13949206E-09  6.69626127E-02  1.11717328E-01  1.15264088E-01 -2.84911044E-09
 -6.47376186E-08 -3.33995375E-01  1.51953950E-01 -5.99130554E-09 -9.88674710E-08
 -6.43271361E-01  1.40011719E-01 -8.31766049E-09 -1.29389862E-07 -1.69344309E+00
  7.79902135E-01 -7.63467338E-10 -8.79068108E-08 -1.56381522E-02 -5.83281377E-09
 -4.88647926E-14  2.70860741E-02  1.48924209E-09 -9.90059135E-02 -2.47690606E-01
 -2.67272862E-01  4.25790024E-03 -1.19047598E-09  8.69158111E-09  9.90090437E-02
  2.47702218E-01  2.67281926E-01  4.25938434E-03 -7.00166301E-10 -9.78105502E-09
  1.86913080E-02  3.22966353E-02  3.27379587E-02  1.01045292E-10 -6.11687072E-10
 -1.10584978E-01  6.65246266E-02  1.48078276E-09 -1.36062963E-09 -1.16007651E-01
  4.42427641E-02 -2.53560009E-09 -4.69242144E-10  1.10585382E+00 -9.52315561E-01
 -3.78489145E-08 -5.92987555E-09  7.32582383E-03  6.19070256E-10  3.71624630E-15
 -1.26886991E-02 -6.19122099E-10  1.86891638E-02  3.22928538E-02 -3.27431186E-02
 -6.60700148E-11 -7.06647777E-10 -1.10571190E-01 -6.65274777E-02 -1.36442580E-09
 -2.99666577E-09 -1.15995986E-01 -4.42692689E-02  2.48256274E-09  2.42090471E-09
  1.10586390E+00  9.52288445E-01  3.70215524E-08  3.71212969E-08  7.32578629E-03
 -1.30087055E-09 -3.82063330E-15 -1.26886341E-02 -5.68039823E-10 -2.41223074E-02
  1.09332989E-01 -6.61447463E-01 -6.95388547E-03 -3.48723614E-10 -1.73251220E-11
 -2.41239992E-02  1.09324456E-01 -6.61420854E-01  6.95543180E-03  3.39200875E-10
  3.79038989E-10  9.44520655E-03  1.45446434E-02 -7.37267208E-02  4.79364310E-10
 -2.96034625E-09 -1.69215887E-02 -1.23184242E-01  7.35134774E-10 -3.88363260E-09
 -3.55939440E-01  5.81867331E-02  5.91686066E-09 -1.05610756E-08  4.22327512E+00
  2.79611848E+00  1.60593014E-08 -5.44621981E-08 -8.50045916E-03  5.58532695E-10
  1.38039100E-14  1.47232272E-02  7.55309010E-10 -9.44508285E-03 -1.45444351E-02
 -7.37276111E-02  3.10015001E-10  3.41751263E-09  1.69220288E-02 -1.23185384E-01
  5.10382250E-10  4.60750212E-09  3.55918074E-01  5.81748288E-02  5.18402216E-09
  1.69458786E-08 -4.22325021E+00  2.79615854E+00  1.27318371E-08  7.10241424E-08
  8.50069486E-03 -3.15442927E-10  1.38343783E-14 -1.47236354E-02 -7.61945046E-10
  5.46439697E-02  4.99455143E-02  8.68368746E-01  1.44961699E-02  7.47478237E-10
 -1.24306994E-09 -5.46446600E-02 -4.99392066E-02 -8.68378763E-01  1.44970448E-02
  6.60073745E-10  2.05269108E-09 -2.93150883E-10 -4.84119980E-10  4.67644949E-10
 -7.35338712E-02 -3.60846631E-02  1.23832549E-09  1.28072215E-09 -6.55997789E-02
 -3.21912322E-02  1.00937227E-08 -1.22792850E-08 -3.22238933E-01 -1.58129623E-01
 -1.72890684E-07 -7.44316542E-08  6.13079019E-01  3.00851152E-01 -1.51760924E-10
 -6.72772477E-04  2.59855609E-10 -2.94203646E-10 -1.37098591E-03  8.82779840E-11
  1.30119477E-10  1.27636874E-09 -7.35358643E-02 -3.60856412E-02  3.80712271E-10
  2.05285581E-09 -6.56017566E-02 -3.21922027E-02 -1.41128014E-08 -1.25040524E-08
 -3.22246296E-01 -1.58133236E-01  1.61033021E-07 -9.06363427E-08  6.13105210E-01
  3.00864005E-01  2.24076015E-10  6.72821753E-04 -4.34043061E-10 -1.44080863E-11
  1.37108632E-03  2.45355714E-11 -5.87469120E-09 -1.47429475E-08 -3.94378662E-11
  2.58390046E-03  1.26797592E-03 -5.53623312E-10  8.12575756E-09  2.41131215E-08
 -7.63203473E-11  2.58437799E-03  1.26821025E-03 -2.36638533E-10 -4.07210802E-10
 -8.23851472E-10  3.60846631E-02 -7.35338712E-02  1.79451782E-09 -7.31555435E-10
  3.21912322E-02 -6.55997789E-02 -3.56188915E-09 -5.66137242E-10  1.58129623E-01
 -3.22238933E-01 -2.40172613E-08  1.21882706E-08 -3.00851152E-01  6.13079019E-01
  3.91530117E-10 -1.37098591E-03  2.78141862E-10 -1.58583274E-10  6.72772477E-04
 -2.10783268E-10 -3.65626405E-10  9.39570284E-10  3.60856412E-02 -7.35358643E-02
  1.73441717E-09  9.54158445E-10  3.21922027E-02 -6.56017566E-02 -5.16658233E-09
 -1.05585446E-09  1.58133236E-01 -3.22246296E-01 -1.86250299E-09 -2.31233535E-08
 -3.00864005E-01  6.13105210E-01 -2.12763214E-10  1.37108632E-03 -1.86851636E-10
 -5.00908952E-10 -6.72821753E-04 -5.59062949E-10  1.99407129E-09  8.93535964E-09
  3.57882327E-11 -1.26797592E-03  2.58390046E-03 -5.95819066E-10  2.91630920E-09
  1.14869337E-08 -4.24601189E-11 -1.26821025E-03  2.58437799E-03  7.50799181E-03
  1.19133331E-02 -6.95779844E-02 -1.86150333E-09  2.57420450E-10 -2.25516080E-02
 -4.83949740E-02 -1.17510082E-09  1.39998440E-10 -2.06919668E-01 -3.49016080E-01
 -1.04620791E-08  2.46118070E-09  4.94960621E-01  7.78652607E-01 -6.82256109E-09
 -2.46131089E-09  1.40297741E-02  8.89837467E-10 -9.27292464E-15 -2.43002815E-02
 -2.99320630E-10  7.50939522E-03  1.19155540E-02  6.95850993E-02  1.79381483E-09
  2.34268177E-09 -2.25568322E-02  4.84066231E-02  1.13471661E-09  1.44897302E-09
 -2.06943476E-01  3.49036230E-01  1.00248937E-08  1.41726217E-08  4.94884519E-01
 -7.78604072E-01  6.72939881E-09  5.61770782E-09  1.40288852E-02 -1.20087531E-09
  9.33298390E-15 -2.42987419E-02 -2.43830186E-10 -2.59057647E-02 -7.17793014E-02
 -4.60510540E-01  2.51540996E-02  9.96508142E-11 -3.74967663E-10 -2.59069555E-02
 -7.17812567E-02 -4.60522115E-01 -2.51529539E-02 -7.70188011E-11 -4.75572331E-10
  1.52857396E-10  2.29615486E-10 -1.62962166E-09  5.65490054E-02 -7.50825338E-02
  1.90224447E-10 -9.47255830E-10  5.38946606E-02 -7.15582466E-02 -1.02032637E-08
 -8.36040474E-09  2.52794411E-01 -3.35645955E-01  1.59121037E-07  7.58085627E-08
 -9.84026156E-01  1.30653363E+00  3.34329631E-10  9.48038578E-04  2.69297781E-10