 Entering Gaussian System, Link 0=g16
 Initial command:
 /home/szhao/Apps/g16/l1.exe "/home/szhao/tmp/Gau-160230.inp" -scrdir="/home/szhao/tmp/"
 Default is to use a total of  16 processors:
                               16 via shared-memory
                                1 via Linda
 Entering Link 1 = /home/szhao/Apps/g16/l1.exe PID=    160231.
  
 Copyright (c) 1988,1990,1992,1993,1995,1998,2003,2009,2016,
            Gaussian, Inc.  All Rights Reserved.
  
 This is part of the Gaussian(R) 16 program.  It is based on
 the Gaussian(R) 09 system (copyright 2009, Gaussian, Inc.),
 the Gaussian(R) 03 system (copyright 2003, Gaussian, Inc.),
 the Gaussian(R) 98 system (copyright 1998, Gaussian, Inc.),
 the Gaussian(R) 94 system (copyright 1995, Gaussian, Inc.),
 the Gaussian 92(TM) system (copyright 1992, Gaussian, Inc.),
 the Gaussian 90(TM) system (copyright 1990, Gaussian, Inc.),
 the Gaussian 88(TM) system (copyright 1988, Gaussian, Inc.),
 the Gaussian 86(TM) system (copyright 1986, Carnegie Mellon
 University), and the Gaussian 82(TM) system (copyright 1983,
 Carnegie Mellon University). Gaussian is a federally registered
 trademark of Gaussian, Inc.
  
 This software contains proprietary and confidential information,
 including trade secrets, belonging to Gaussian, Inc.
  
 This software is provided under written license and may be
 used, copied, transmitted, or stored only in accord with that
 written license.
  
 The following legend is applicable only to US Government
 contracts under FAR:
  
                    RESTRICTED RIGHTS LEGEND
  
 Use, reproduction and disclosure by the US Government is
 subject to restrictions as set forth in subparagraphs (a)
 and (c) of the Commercial Computer Software - Restricted
 Rights clause in FAR 52.227-19.
  
 Gaussian, Inc.
 340 Quinnipiac St., Bldg. 40, Wallingford CT 06492
  
  
 ---------------------------------------------------------------
 Warning -- This program may not be used in any manner that
 competes with the business of Gaussian, Inc. or will provide
 assistance to any competitor of Gaussian, Inc.  The licensee
 of this program is prohibited from giving any competitor of
 Gaussian, Inc. access to this program.  By using this program,
 the user acknowledges that Gaussian, Inc. is engaged in the
 business of creating and licensing software in the field of
 computational chemistry and represents and warrants to the
 licensee that it is not a competitor of Gaussian, Inc. and that
 it will not use this program in any manner prohibited above.
 ---------------------------------------------------------------
  

 Cite this work as:
 Gaussian 16, Revision A.03,
 M. J. Frisch, G. W. Trucks, H. B. Schlegel, G. E. Scuseria, 
 M. A. Robb, J. R. Cheeseman, G. Scalmani, V. Barone, 
 G. A. Petersson, H. Nakatsuji, X. Li, M. Caricato, A. V. Marenich, 
 J. Bloino, B. G. Janesko, R. Gomperts, B. Mennucci, H. P. Hratchian, 
 J. V. Ortiz, A. F. Izmaylov, J. L. Sonnenberg, D. Williams-Young, 
 F. Ding, F. Lipparini, F. Egidi, J. Goings, B. Peng, A. Petrone, 
 T. Henderson, D. Ranasinghe, V. G. Zakrzewski, J. Gao, N. Rega, 
 G. Zheng, W. Liang, M. Hada, M. Ehara, K. Toyota, R. Fukuda, 
 J. Hasegawa, M. Ishida, T. Nakajima, Y. Honda, O. Kitao, H. Nakai, 
 T. Vreven, K. Throssell, J. A. Montgomery, Jr., J. E. Peralta, 
 F. Ogliaro, M. J. Bearpark, J. J. Heyd, E. N. Brothers, K. N. Kudin, 
 V. N. Staroverov, T. A. Keith, R. Kobayashi, J. Normand, 
 K. Raghavachari, A. P. Rendell, J. C. Burant, S. S. Iyengar, 
 J. Tomasi, M. Cossi, J. M. Millam, M. Klene, C. Adamo, R. Cammi, 
 J. W. Ochterski, R. L. Martin, K. Morokuma, O. Farkas, 
 J. B. Foresman, and D. J. Fox, Gaussian, Inc., Wallingford CT, 2016.
 
 ******************************************
 Gaussian 16:  ES64L-G16RevA.03 25-Dec-2016
                21-Apr-2025 
 ******************************************
 %chk=opt.chk
 %mem=4GB
 %nprocshared=8
 Will use up to    8 processors via shared memory.
 --------------------------------------------
 #p opt UM062X/6-311+G** nosymm int=superfine
 --------------------------------------------
 1/18=20,19=15,26=5,38=1/1,3;
 2/9=110,12=2,15=1,17=6,18=5,40=1/2;
 3/5=4,6=6,7=111,11=2,25=1,30=1,71=1,74=-55,75=-7,116=2/1,2,3;
 4//1;
 5/5=2,38=5/2;
 6/7=2,8=2,9=2,10=2,28=1/1;
 7/30=1/1,2,3,16;
 1/18=20,19=15,26=5/3(2);
 2/9=110,15=1/2;
 99//99;
 2/9=110,15=1/2;
 3/5=4,6=6,7=111,11=2,25=1,30=1,71=1,74=-55,75=-7,116=2/1,2,3;
 4/5=5,16=3,69=1/1;
 5/5=2,38=5/2;
 7/30=1/1,2,3,16;
 1/18=20,19=15,26=5/3(-5);
 2/9=110,15=1/2;
 6/7=2,8=2,9=2,10=2,19=2,28=1/1;
 99/9=1/99;
 Leave Link    1 at Mon Apr 21 18:43:59 2025, MaxMem=   536870912 cpu:               0.9 elap:               0.1
 (Enter /home/szhao/Apps/g16/l101.exe)
 -------------------
 Title Card Required
 -------------------
 Symbolic Z-matrix:
 Charge =  0 Multiplicity = 1
 C                    -1   -1.9322    0.        0. 
 O                    -1    1.9322    0.        0. 
 H                    0     2.24239  -0.90717   0. 
 H                    0    -2.34314  -0.48457   0.89177 
 H                    0    -2.24812   1.0422   -0.00092 
 H                    0    -2.34253  -0.48604  -0.89118 
 
 Add virtual bond connecting atoms O2         and C1         Dist= 7.30D+00.
 ITRead=  2  2  0  0  0  0
 MicOpt= -2 -2 -1 -1 -1 -1
 NAtoms=      6 NQM=        4 NQMF=       2 NMMI=      0 NMMIF=      0
                NMic=       0 NMicF=      0.
                    Isotopes and Nuclear Properties:
 (Nuclear quadrupole moments (NQMom) in fm**2, nuclear magnetic moments (NMagM)
  in nuclear magnetons)

  Atom         1           2           3           4           5           6
 IAtWgt=          12          16           1           1           1           1
 AtmWgt=  12.0000000  15.9949146   1.0078250   1.0078250   1.0078250   1.0078250
 NucSpn=           0           0           1           1           1           1
 AtZEff=  -0.0000000  -0.0000000  -0.0000000  -0.0000000  -0.0000000  -0.0000000
 NQMom=    0.0000000   0.0000000   0.0000000   0.0000000   0.0000000   0.0000000
 NMagM=    0.0000000   0.0000000   2.7928460   2.7928460   2.7928460   2.7928460
 AtZNuc=   6.0000000   8.0000000   1.0000000   1.0000000   1.0000000   1.0000000
 Leave Link  101 at Mon Apr 21 18:44:00 2025, MaxMem=   536870912 cpu:               3.2 elap:               0.4
 (Enter /home/szhao/Apps/g16/l103.exe)

 GradGradGradGradGradGradGradGradGradGradGradGradGradGradGradGradGradGrad
 Berny optimization.
 Initialization pass.
                           ----------------------------
                           !    Initial Parameters    !
                           ! (Angstroms and Degrees)  !
 --------------------------                            --------------------------
 ! Name  Definition              Value          Derivative Info.                !
 --------------------------------------------------------------------------------
 ! X1    R(1,-1)                -1.9322         Frozen                          !
 ! Y1    R(1,-2)                 0.0            Frozen                          !
 ! Z1    R(1,-3)                 0.0            Frozen                          !
 ! X2    R(2,-1)                 1.9322         Frozen                          !
 ! Y2    R(2,-2)                 0.0            Frozen                          !
 ! Z2    R(2,-3)                 0.0            Frozen                          !
 ! R1    R(1,4)                  1.095          estimate D2E/DX2                !
 ! R2    R(1,5)                  1.089          estimate D2E/DX2                !
 ! R3    R(1,6)                  1.0949         estimate D2E/DX2                !
 ! R4    R(2,3)                  0.9587         estimate D2E/DX2                !
 ! A1    A(2,1,4)              112.043          estimate D2E/DX2                !
 ! A2    A(2,1,5)              106.8632         estimate D2E/DX2                !
 ! A3    A(2,1,6)              112.0097         estimate D2E/DX2                !
 ! A4    A(4,1,5)              108.381          estimate D2E/DX2                !
 ! A5    A(4,1,6)              109.0137         estimate D2E/DX2                !
 ! A6    A(5,1,6)              108.3865         estimate D2E/DX2                !
 ! A7    A(1,2,3)              108.8771         estimate D2E/DX2                !
 ! D1    D(4,1,2,3)             61.4811         estimate D2E/DX2                !
 ! D2    D(5,1,2,3)           -179.9495         estimate D2E/DX2                !
 ! D3    D(6,1,2,3)            -61.3923         estimate D2E/DX2                !
 --------------------------------------------------------------------------------
 Trust Radius=3.00D-01 FncErr=1.00D-07 GrdErr=1.00D-07 EigMax=2.50D+02 EigMin=1.00D-04
 Number of steps in this run=     30 maximum allowed number of steps=    100.
 GradGradGradGradGradGradGradGradGradGradGradGradGradGradGradGradGradGrad

 Leave Link  103 at Mon Apr 21 18:44:01 2025, MaxMem=   536870912 cpu:               0.6 elap:               0.2
 (Enter /home/szhao/Apps/g16/l202.exe)
                          Input orientation:                          
 ---------------------------------------------------------------------
 Center     Atomic      Atomic             Coordinates (Angstroms)
 Number     Number       Type             X           Y           Z
 ---------------------------------------------------------------------
      1          6           0       -1.932203    0.000000    0.000000
      2          8           0        1.932203    0.000000    0.000000
      3          1           0        2.242391   -0.907170    0.000000
      4          1           0       -2.343141   -0.484570    0.891766
      5          1           0       -2.248117    1.042202   -0.000918
      6          1           0       -2.342532   -0.486043   -0.891183
 ---------------------------------------------------------------------
                    Distance matrix (angstroms):
                    1          2          3          4          5
     1  C    0.000000
     2  O    3.864405   0.000000
     3  H    4.272024   0.958736   0.000000
     4  H    1.094954   4.394157   4.690516   0.000000
     5  H    1.089031   4.308278   4.895377   1.771143   0.000000
     6  H    1.094904   4.393609   4.689677   1.782949   1.771164
                    6
     6  H    0.000000
 Symmetry turned off by external request.
 Stoichiometry    CH4O
 Framework group  C1[X(CH4O)]
 Deg. of freedom    12
 Full point group                 C1      NOp   1
 Rotational constants (GHZ):         128.1150854           3.9763020           3.9532557
 Leave Link  202 at Mon Apr 21 18:44:01 2025, MaxMem=   536870912 cpu:               0.0 elap:               0.0
 (Enter /home/szhao/Apps/g16/l301.exe)
 Standard basis: 6-311+G(d,p) (5D, 7F)
 Ernie: Thresh=  0.10000D-02 Tol=  0.10000D-05 Strict=F.
    68 basis functions,   104 primitive gaussians,    70 cartesian basis functions
     9 alpha electrons        9 beta electrons
       nuclear repulsion energy        24.5845464821 Hartrees.
 IExCor= 4336 DFT=T Ex+Corr=M062X ExCW=0 ScaHFX=  0.540000
 ScaDFX=  1.000000  1.000000  1.000000  1.000000 ScalE2=  1.000000  1.000000
 IRadAn=      7 IRanWt=     -1 IRanGd=            0 ICorTp=0 IEmpDi=  4
 NAtoms=    6 NActive=    6 NUniq=    6 SFac= 1.00D+00 NAtFMM=   60 NAOKFM=F Big=F
 Integral buffers will be    131072 words long.
 Raffenetti 2 integral format.
 Two-electron integral symmetry is turned off.
 Leave Link  301 at Mon Apr 21 18:44:01 2025, MaxMem=   536870912 cpu:               0.7 elap:               0.1
 (Enter /home/szhao/Apps/g16/l302.exe)
 NPDir=0 NMtPBC=     1 NCelOv=     1 NCel=       1 NClECP=     1 NCelD=      1
         NCelK=      1 NCelE2=     1 NClLst=     1 CellRange=     0.0.
 One-electron integrals computed using PRISM.
 NBasis=    68 RedAO= T EigKep=  6.26D-03  NBF=    68
 NBsUse=    68 1.00D-06 EigRej= -1.00D+00 NBFU=    68
 Precomputing XC quadrature grid using
 IXCGrd= 4 IRadAn=           7 IRanWt=          -1 IRanGd=           0 AccXCQ= 0.00D+00.
 Generated NRdTot=       0 NPtTot=           0 NUsed=           0 NTot=          32
 NSgBfM=    70    70    70    70    70 MxSgAt=     6 MxSgA2=     6.
 Leave Link  302 at Mon Apr 21 18:44:01 2025, MaxMem=   536870912 cpu:               1.4 elap:               0.2
 (Enter /home/szhao/Apps/g16/l303.exe)
 DipDrv:  MaxL=1.
 Leave Link  303 at Mon Apr 21 18:44:02 2025, MaxMem=   536870912 cpu:               0.4 elap:               0.1
 (Enter /home/szhao/Apps/g16/l401.exe)
 ExpMin= 4.38D-02 ExpMax= 8.59D+03 ExpMxC= 1.30D+03 IAcc=3 IRadAn=         7 AccDes= 0.00D+00
 Harris functional with IExCor= 1009 and IRadAn=       7 diagonalized for initial guess.
 HarFok:  IExCor= 1009 AccDes= 0.00D+00 IRadAn=         7 IDoV= 1 UseB2=F ITyADJ=14
 ICtDFT=  3500011 ScaDFX=  1.000000  1.000000  1.000000  1.000000
 FoFCou: FMM=F IPFlag=           0 FMFlag=      100000 FMFlg1=           0
         NFxFlg=           0 DoJE=T BraDBF=F KetDBF=T FulRan=T
         wScrn=  0.000000 ICntrl=       500 IOpCl=  0 I1Cent=   200000004 NGrid=           0
         NMat0=    1 NMatS0=      1 NMatT0=    0 NMatD0=    1 NMtDS0=    0 NMtDT0=    0
 Symmetry not used in FoFCou.
 Harris En= -115.513475471423    
 JPrj=0 DoOrth=F DoCkMO=F.
 Initial guess <Sx>= 0.0000 <Sy>= 0.0000 <Sz>= 0.0000 <S**2>=-0.0000 S=-0.0000
 Leave Link  401 at Mon Apr 21 18:44:02 2025, MaxMem=   536870912 cpu:               3.2 elap:               0.5
 (Enter /home/szhao/Apps/g16/l502.exe)
 Keep R1 and R2 ints in memory in canonical form, NReq=12681626.
 FoFCou: FMM=F IPFlag=           0 FMFlag=           0 FMFlg1=           0
         NFxFlg=           0 DoJE=F BraDBF=F KetDBF=F FulRan=T
         wScrn=  0.000000 ICntrl=       600 IOpCl=  0 I1Cent=           0 NGrid=           0
         NMat0=    1 NMatS0=   2346 NMatT0=    0 NMatD0=    1 NMtDS0=    0 NMtDT0=    0
 Symmetry not used in FoFCou.
 Two-electron integral symmetry not used.
 UHF open shell SCF:
 Using DIIS extrapolation, IDIIS=  1040.
 NGot=   536870912 LenX=   531353782 LenY=   531348441
 Requested convergence on RMS density matrix=1.00D-08 within 128 cycles.
 Requested convergence on MAX density matrix=1.00D-06.
 Requested convergence on             energy=1.00D-06.
 No special actions if energy rises.

 Cycle   1  Pass 1  IDiag  1:
 E= -115.124462920133    
 DIIS: error= 9.52D-02 at cycle   1 NSaved=   1.
 NSaved= 1 IEnMin= 1 EnMin= -115.124462920133     IErMin= 1 ErrMin= 9.52D-02
 ErrMax= 9.52D-02  0.00D+00 EMaxC= 1.00D-01 BMatC= 1.11D+00 BMatP= 1.11D+00
 IDIUse=3 WtCom= 4.81D-02 WtEn= 9.52D-01
 Coeff-Com:  0.100D+01
 Coeff-En:   0.100D+01
 Coeff:      0.100D+01
 Gap=    -0.509 Goal=   None    Shift=    0.000
 Gap=    -0.509 Goal=   None    Shift=    0.000
 GapD=   -0.509 DampG=0.250 DampE=0.500 DampFc=0.2500 IDamp=-1.
 Damping current iteration by 2.50D-01
 RMSDP=4.89D-02 MaxDP=2.28D+00              OVMax= 9.95D-01

 Cycle   2  Pass 1  IDiag  1:
 E= -115.145787434163     Delta-E=       -0.021324514029 Rises=F Damp=T
 DIIS: error= 2.22D-02 at cycle   2 NSaved=   2.
 NSaved= 2 IEnMin= 2 EnMin= -115.145787434163     IErMin= 2 ErrMin= 2.22D-02
 ErrMax= 2.22D-02  0.00D+00 EMaxC= 1.00D-01 BMatC= 1.06D-01 BMatP= 1.11D+00
 IDIUse=3 WtCom= 7.78D-01 WtEn= 2.22D-01
 Coeff-Com:  0.406D-01 0.959D+00
 Coeff-En:   0.474D+00 0.526D+00
 Coeff:      0.137D+00 0.863D+00
 Gap=     0.499 Goal=   None    Shift=    0.000
 Gap=     0.499 Goal=   None    Shift=    0.000
 RMSDP=1.21D-02 MaxDP=5.69D-01 DE=-2.13D-02 OVMax= 1.00D+00

 Cycle   3  Pass 1  IDiag  1:
 E= -115.264952414159     Delta-E=       -0.119164979996 Rises=F Damp=F
 DIIS: error= 3.84D-02 at cycle   3 NSaved=   3.
 NSaved= 3 IEnMin= 3 EnMin= -115.264952414159     IErMin= 2 ErrMin= 2.22D-02
 ErrMax= 3.84D-02  0.00D+00 EMaxC= 1.00D-01 BMatC= 2.79D-01 BMatP= 1.06D-01
 IDIUse=2 WtCom= 0.00D+00 WtEn= 1.00D+00
 Coeff-En:   0.000D+00 0.293D+00 0.707D+00
 Coeff:      0.000D+00 0.293D+00 0.707D+00
 Gap=    -0.193 Goal=   None    Shift=    0.000
 Gap=    -0.193 Goal=   None    Shift=    0.000
 RMSDP=1.09D-02 MaxDP=1.91D-01 DE=-1.19D-01 OVMax= 9.85D-01

 Cycle   4  Pass 1  IDiag  1:
 E= -114.336770358433     Delta-E=        0.928182055726 Rises=F Damp=F
 DIIS: error= 1.09D-01 at cycle   4 NSaved=   4.
 NSaved= 4 IEnMin= 3 EnMin= -115.264952414159     IErMin= 2 ErrMin= 2.22D-02
 ErrMax= 1.09D-01  0.00D+00 EMaxC= 1.00D-01 BMatC= 2.92D+00 BMatP= 1.06D-01
 IDIUse=2 WtCom= 0.00D+00 WtEn= 1.00D+00
 Coeff-En:   0.000D+00 0.000D+00 0.757D+00 0.243D+00
 Coeff:      0.000D+00 0.000D+00 0.757D+00 0.243D+00
 Gap=     0.049 Goal=   None    Shift=    0.000
 Gap=     0.049 Goal=   None    Shift=    0.000
 RMSDP=3.38D-03 MaxDP=4.68D-02 DE= 9.28D-01 OVMax= 1.20D-01

 Cycle   5  Pass 1  IDiag  1:
 E= -114.762753941068     Delta-E=       -0.425983582635 Rises=F Damp=F
 DIIS: error= 7.40D-02 at cycle   5 NSaved=   5.
 NSaved= 5 IEnMin= 3 EnMin= -115.264952414159     IErMin= 2 ErrMin= 2.22D-02
 ErrMax= 7.40D-02  0.00D+00 EMaxC= 1.00D-01 BMatC= 1.22D+00 BMatP= 1.06D-01
 IDIUse=2 WtCom= 0.00D+00 WtEn= 1.00D+00
 Coeff-En:   0.000D+00 0.000D+00 0.695D+00 0.000D+00 0.305D+00
 Coeff:      0.000D+00 0.000D+00 0.695D+00 0.000D+00 0.305D+00
 Gap=    -0.001 Goal=   None    Shift=    0.000
 Gap=    -0.001 Goal=   None    Shift=    0.000
 RMSDP=9.90D-03 MaxDP=1.80D-01 DE=-4.26D-01 OVMax= 1.00D+00

 Cycle   6  Pass 1  IDiag  1:
 E= -115.304295513527     Delta-E=       -0.541541572459 Rises=F Damp=F
 DIIS: error= 2.95D-02 at cycle   6 NSaved=   6.
 NSaved= 6 IEnMin= 6 EnMin= -115.304295513527     IErMin= 2 ErrMin= 2.22D-02
 ErrMax= 2.95D-02  0.00D+00 EMaxC= 1.00D-01 BMatC= 1.92D-01 BMatP= 1.06D-01
 IDIUse=2 WtCom= 0.00D+00 WtEn= 1.00D+00
 Coeff-En:   0.000D+00 0.000D+00 0.000D+00 0.000D+00 0.269D+00 0.731D+00
 Coeff:      0.000D+00 0.000D+00 0.000D+00 0.000D+00 0.269D+00 0.731D+00
 Gap=    -0.000 Goal=   None    Shift=    0.000
 Gap=    -0.000 Goal=   None    Shift=    0.000
 RMSDP=2.84D-03 MaxDP=4.48D-02 DE=-5.42D-01 OVMax= 2.74D-01

 Cycle   7  Pass 1  IDiag  1:
 E= -115.377928343183     Delta-E=       -0.073632829656 Rises=F Damp=F
 DIIS: error= 2.42D-02 at cycle   7 NSaved=   7.
 NSaved= 7 IEnMin= 7 EnMin= -115.377928343183     IErMin= 2 ErrMin= 2.22D-02
 ErrMax= 2.42D-02  0.00D+00 EMaxC= 1.00D-01 BMatC= 8.87D-02 BMatP= 1.06D-01
 IDIUse=3 WtCom= 7.58D-01 WtEn= 2.42D-01
 Coeff-Com: -0.207D+00 0.473D+00 0.349D+00-0.116D+00 0.206D+00 0.967D-01
 Coeff-Com:  0.198D+00
 Coeff-En:   0.000D+00 0.000D+00 0.000D+00 0.000D+00 0.157D+00 0.000D+00
 Coeff-En:   0.843D+00
 Coeff:     -0.157D+00 0.358D+00 0.265D+00-0.882D-01 0.195D+00 0.733D-01
 Coeff:      0.354D+00
 Gap=     0.046 Goal=   None    Shift=    0.000
 Gap=     0.046 Goal=   None    Shift=    0.000
 RMSDP=1.16D-03 MaxDP=1.49D-02 DE=-7.36D-02 OVMax= 1.06D-01

 Cycle   8  Pass 1  IDiag  1:
 E= -115.339814310562     Delta-E=        0.038114032621 Rises=F Damp=F
 DIIS: error= 3.19D-02 at cycle   8 NSaved=   8.
 NSaved= 8 IEnMin= 7 EnMin= -115.377928343183     IErMin= 2 ErrMin= 2.22D-02
 ErrMax= 3.19D-02  0.00D+00 EMaxC= 1.00D-01 BMatC= 1.77D-01 BMatP= 8.87D-02
 IDIUse=2 WtCom= 0.00D+00 WtEn= 1.00D+00
 Rare condition: small coef for last iteration:  0.000D+00
 Coeff-En:   0.000D+00 0.000D+00 0.000D+00 0.000D+00 0.224D+00 0.000D+00
 Coeff-En:   0.000D+00 0.776D+00
 Coeff:      0.000D+00 0.000D+00 0.000D+00 0.000D+00 0.224D+00 0.000D+00
 Coeff:      0.000D+00 0.776D+00
 Gap=     0.005 Goal=   None    Shift=    0.000
 Gap=     0.005 Goal=   None    Shift=    0.000
 RMSDP=6.17D-03 MaxDP=9.89D-02 DE= 3.81D-02 OVMax= 6.03D-01

 Cycle   9  Pass 1  IDiag  1:
 E= -115.299878598522     Delta-E=        0.039935712040 Rises=F Damp=F
 DIIS: error= 5.68D-02 at cycle   9 NSaved=   9.
 NSaved= 9 IEnMin= 7 EnMin= -115.377928343183     IErMin= 2 ErrMin= 2.22D-02
 ErrMax= 5.68D-02  0.00D+00 EMaxC= 1.00D-01 BMatC= 4.58D-01 BMatP= 8.87D-02
 IDIUse=2 WtCom= 0.00D+00 WtEn= 1.00D+00
 EnCoef did   100 forward-backward iterations
 Coeff-En:   0.000D+00 0.000D+00 0.000D+00 0.000D+00 0.000D+00 0.000D+00
 Coeff-En:   0.624D+00 0.117D-01 0.364D+00
 Coeff:      0.000D+00 0.000D+00 0.000D+00 0.000D+00 0.000D+00 0.000D+00
 Coeff:      0.624D+00 0.117D-01 0.364D+00
 Gap=     0.062 Goal=   None    Shift=    0.000
 Gap=     0.062 Goal=   None    Shift=    0.000
 RMSDP=3.12D-03 MaxDP=5.85D-02 DE= 3.99D-02 OVMax= 2.89D-01

 Cycle  10  Pass 1  IDiag  1:
 E= -115.430542731727     Delta-E=       -0.130664133204 Rises=F Damp=F
 DIIS: error= 3.20D-03 at cycle  10 NSaved=  10.
 NSaved=10 IEnMin=10 EnMin= -115.430542731727     IErMin=10 ErrMin= 3.20D-03
 ErrMax= 3.20D-03  0.00D+00 EMaxC= 1.00D-01 BMatC= 1.95D-03 BMatP= 8.87D-02
 IDIUse=3 WtCom= 9.68D-01 WtEn= 3.20D-02
 Coeff-Com: -0.311D-01 0.414D-01 0.164D+00-0.889D-02 0.235D-01 0.204D-01
 Coeff-Com:  0.142D+00-0.269D+00-0.303D-01 0.948D+00
 Coeff-En:   0.000D+00 0.000D+00 0.000D+00 0.000D+00 0.000D+00 0.000D+00
 Coeff-En:   0.000D+00 0.000D+00 0.000D+00 0.100D+01
 Coeff:     -0.301D-01 0.401D-01 0.159D+00-0.861D-02 0.228D-01 0.198D-01
 Coeff:      0.137D+00-0.261D+00-0.294D-01 0.950D+00
 Gap=     0.077 Goal=   None    Shift=    0.000
 Gap=     0.077 Goal=   None    Shift=    0.000
 RMSDP=4.77D-04 MaxDP=5.35D-03 DE=-1.31D-01 OVMax= 3.20D-02

 Cycle  11  Pass 1  IDiag  1:
 E= -115.431327779661     Delta-E=       -0.000785047934 Rises=F Damp=F
 DIIS: error= 3.57D-03 at cycle  11 NSaved=  11.
 NSaved=11 IEnMin=11 EnMin= -115.431327779661     IErMin=10 ErrMin= 3.20D-03
 ErrMax= 3.57D-03  0.00D+00 EMaxC= 1.00D-01 BMatC= 2.19D-03 BMatP= 1.95D-03
 IDIUse=3 WtCom= 9.68D-01 WtEn= 3.20D-02
 Coeff-Com:  0.971D-02-0.118D-01 0.457D-01 0.315D-02 0.231D-01 0.121D+00
 Coeff-Com:  0.133D-01-0.225D+00-0.129D+00-0.292D-01 0.118D+01
 Coeff-En:   0.000D+00 0.000D+00 0.000D+00 0.000D+00 0.000D+00 0.000D+00
 Coeff-En:   0.000D+00 0.000D+00 0.000D+00 0.000D+00 0.100D+01
 Coeff:      0.940D-02-0.114D-01 0.443D-01 0.305D-02 0.223D-01 0.117D+00
 Coeff:      0.128D-01-0.218D+00-0.125D+00-0.282D-01 0.117D+01
 Gap=     0.082 Goal=   None    Shift=    0.000
 Gap=     0.082 Goal=   None    Shift=    0.000
 RMSDP=4.72D-04 MaxDP=4.80D-03 DE=-7.85D-04 OVMax= 4.44D-02

 Cycle  12  Pass 1  IDiag  1:
 E= -115.432163770473     Delta-E=       -0.000835990812 Rises=F Damp=F
 DIIS: error= 3.80D-03 at cycle  12 NSaved=  12.
 NSaved=12 IEnMin=12 EnMin= -115.432163770473     IErMin=10 ErrMin= 3.20D-03
 ErrMax= 3.80D-03  0.00D+00 EMaxC= 1.00D-01 BMatC= 1.97D-03 BMatP= 1.95D-03
 IDIUse=3 WtCom= 9.68D-01 WtEn= 3.20D-02
 Coeff-Com: -0.177D-02-0.183D-02 0.385D-01 0.426D-02 0.123D-01 0.979D-02
 Coeff-Com: -0.481D-01-0.728D-02-0.754D-01 0.178D+00-0.292D+00 0.118D+01
 Coeff-En:   0.000D+00 0.000D+00 0.000D+00 0.000D+00 0.000D+00 0.000D+00
 Coeff-En:   0.000D+00 0.000D+00 0.000D+00 0.000D+00 0.000D+00 0.100D+01
 Coeff:     -0.171D-02-0.177D-02 0.372D-01 0.413D-02 0.119D-01 0.947D-02
 Coeff:     -0.466D-01-0.704D-02-0.730D-01 0.172D+00-0.282D+00 0.118D+01
 Gap=     0.088 Goal=   None    Shift=    0.000
 Gap=     0.088 Goal=   None    Shift=    0.000
 RMSDP=5.80D-04 MaxDP=9.95D-03 DE=-8.36D-04 OVMax= 4.03D-02

 Cycle  13  Pass 1  IDiag  1:
 E= -115.432854824383     Delta-E=       -0.000691053911 Rises=F Damp=F
 DIIS: error= 4.67D-03 at cycle  13 NSaved=  13.
 NSaved=13 IEnMin=13 EnMin= -115.432854824383     IErMin=10 ErrMin= 3.20D-03
 ErrMax= 4.67D-03  0.00D+00 EMaxC= 1.00D-01 BMatC= 2.10D-03 BMatP= 1.95D-03
 IDIUse=3 WtCom= 9.68D-01 WtEn= 3.20D-02
 Coeff-Com:  0.143D-01-0.105D-01 0.479D-01-0.660D-03 0.143D-01-0.750D-02
 Coeff-Com: -0.176D-01-0.119D+00-0.461D-01 0.373D-01 0.284D+00 0.226D+00
 Coeff-Com:  0.578D+00
 Coeff-En:   0.000D+00 0.000D+00 0.000D+00 0.000D+00 0.000D+00 0.000D+00
 Coeff-En:   0.000D+00 0.000D+00 0.000D+00 0.000D+00 0.000D+00 0.251D+00
 Coeff-En:   0.749D+00
 Coeff:      0.139D-01-0.102D-01 0.463D-01-0.639D-03 0.139D-01-0.726D-02
 Coeff:     -0.171D-01-0.115D+00-0.446D-01 0.361D-01 0.275D+00 0.226D+00
 Coeff:      0.583D+00
 Gap=     0.090 Goal=   None    Shift=    0.000
 Gap=     0.090 Goal=   None    Shift=    0.000
 RMSDP=4.10D-05 MaxDP=3.63D-04 DE=-6.91D-04 OVMax= 1.56D-03

 Cycle  14  Pass 1  IDiag  1:
 E= -115.432785947590     Delta-E=        0.000068876793 Rises=F Damp=F
 DIIS: error= 4.81D-03 at cycle  14 NSaved=  14.
 NSaved=14 IEnMin=13 EnMin= -115.432854824383     IErMin=10 ErrMin= 3.20D-03
 ErrMax= 4.81D-03  0.00D+00 EMaxC= 1.00D-01 BMatC= 2.37D-03 BMatP= 1.95D-03
 IDIUse=3 WtCom= 9.68D-01 WtEn= 3.20D-02
 Rare condition: small coef for last iteration:  0.000D+00
 Coeff-Com:  0.121D-01-0.746D-02 0.445D-01-0.143D-02 0.142D-01-0.127D-01
 Coeff-Com: -0.249D-01-0.991D-01-0.441D-01 0.890D-01 0.262D+00 0.259D+00
 Coeff-Com: -0.564D+00 0.107D+01
 Coeff-En:   0.000D+00 0.000D+00 0.000D+00 0.000D+00 0.000D+00 0.000D+00
 Coeff-En:   0.000D+00 0.000D+00 0.000D+00 0.000D+00 0.000D+00 0.291D+00
 Coeff-En:   0.000D+00 0.709D+00
 Coeff:      0.121D-01-0.746D-02 0.445D-01-0.143D-02 0.142D-01-0.127D-01
 Coeff:     -0.249D-01-0.991D-01-0.441D-01 0.890D-01 0.262D+00 0.259D+00
 Coeff:     -0.564D+00 0.107D+01
 Gap=     0.091 Goal=   None    Shift=    0.000
 Gap=     0.091 Goal=   None    Shift=    0.000
 RMSDP=1.04D-04 MaxDP=1.46D-03 DE= 6.89D-05 OVMax= 8.04D-03

 Cycle  15  Pass 1  IDiag  1:
 E= -115.432002690093     Delta-E=        0.000783257497 Rises=F Damp=F
 DIIS: error= 6.36D-03 at cycle  15 NSaved=  15.
 NSaved=15 IEnMin=13 EnMin= -115.432854824383     IErMin=10 ErrMin= 3.20D-03
 ErrMax= 6.36D-03  0.00D+00 EMaxC= 1.00D-01 BMatC= 4.61D-03 BMatP= 1.95D-03
 IDIUse=3 WtCom= 9.68D-01 WtEn= 3.20D-02
 EnCoef did   100 forward-backward iterations
 Rare condition: small coef for last iteration:  0.000D+00
 Coeff-Com:  0.167D-01-0.147D-01 0.362D-01-0.143D-02 0.138D-01-0.380D-01
 Coeff-Com:  0.350D-01-0.571D-01-0.297D-01 0.523D-01 0.809D-01-0.421D+00
 Coeff-Com: -0.112D+00 0.602D+01-0.458D+01
 Coeff-En:   0.000D+00 0.000D+00 0.000D+00 0.000D+00 0.000D+00 0.000D+00
 Coeff-En:   0.000D+00 0.000D+00 0.000D+00 0.000D+00 0.000D+00 0.531D+00
 Coeff-En:   0.000D+00 0.000D+00 0.469D+00
 Coeff:      0.167D-01-0.147D-01 0.362D-01-0.143D-02 0.138D-01-0.380D-01
 Coeff:      0.350D-01-0.571D-01-0.297D-01 0.523D-01 0.809D-01-0.421D+00
 Coeff:     -0.112D+00 0.602D+01-0.458D+01
 Gap=     0.091 Goal=   None    Shift=    0.000
 Gap=     0.091 Goal=   None    Shift=    0.000
 RMSDP=6.47D-04 MaxDP=8.72D-03 DE= 7.83D-04 OVMax= 6.40D-02

 Cycle  16  Pass 1  IDiag  1:
 E= -115.434117815566     Delta-E=       -0.002115125474 Rises=F Damp=F
 DIIS: error= 3.81D-03 at cycle  16 NSaved=  16.
 NSaved=16 IEnMin=16 EnMin= -115.434117815566     IErMin=10 ErrMin= 3.20D-03
 ErrMax= 3.81D-03  0.00D+00 EMaxC= 1.00D-01 BMatC= 1.35D-03 BMatP= 1.95D-03
 IDIUse=3 WtCom= 9.68D-01 WtEn= 3.20D-02
 Coeff-Com:  0.166D-02-0.601D-03 0.235D-01 0.148D-02 0.584D-02-0.326D-01
 Coeff-Com:  0.175D+00-0.619D-01-0.720D-01 0.359D-02 0.540D+00 0.624D+00
 Coeff-Com: -0.269D+01-0.570D+01 0.271D+01 0.547D+01
 Coeff-En:   0.000D+00 0.000D+00 0.000D+00 0.000D+00 0.000D+00 0.000D+00
 Coeff-En:   0.000D+00 0.000D+00 0.000D+00 0.000D+00 0.000D+00 0.000D+00
 Coeff-En:   0.000D+00 0.000D+00 0.000D+00 0.100D+01
 Coeff:      0.160D-02-0.582D-03 0.228D-01 0.143D-02 0.565D-02-0.316D-01
 Coeff:      0.169D+00-0.599D-01-0.697D-01 0.348D-02 0.523D+00 0.604D+00
 Coeff:     -0.260D+01-0.552D+01 0.262D+01 0.533D+01
 Gap=     0.093 Goal=   None    Shift=    0.000
 Gap=     0.093 Goal=   None    Shift=    0.000
 RMSDP=1.86D-03 MaxDP=2.76D-02 DE=-2.12D-03 OVMax= 1.73D-01

 Cycle  17  Pass 1  IDiag  1:
 E= -115.433365519136     Delta-E=        0.000752296430 Rises=F Damp=F
 DIIS: error= 1.13D-02 at cycle  17 NSaved=  17.
 NSaved=17 IEnMin=16 EnMin= -115.434117815566     IErMin=10 ErrMin= 3.20D-03
 ErrMax= 1.13D-02  0.00D+00 EMaxC= 1.00D-01 BMatC= 1.06D-02 BMatP= 1.35D-03
 IDIUse=2 WtCom= 0.00D+00 WtEn= 1.00D+00
 Rare condition: small coef for last iteration:  0.000D+00
 Coeff-En:   0.000D+00 0.000D+00 0.000D+00 0.000D+00 0.000D+00 0.000D+00
 Coeff-En:   0.000D+00 0.236D-01 0.000D+00 0.000D+00 0.000D+00 0.000D+00
 Coeff-En:   0.000D+00 0.000D+00 0.000D+00 0.000D+00 0.976D+00
 Coeff:      0.000D+00 0.000D+00 0.000D+00 0.000D+00 0.000D+00 0.000D+00
 Coeff:      0.000D+00 0.236D-01 0.000D+00 0.000D+00 0.000D+00 0.000D+00
 Coeff:      0.000D+00 0.000D+00 0.000D+00 0.000D+00 0.976D+00
 Gap=     0.104 Goal=   None    Shift=    0.000
 Gap=     0.104 Goal=   None    Shift=    0.000
 RMSDP=2.61D-03 MaxDP=3.77D-02 DE= 7.52D-04 OVMax= 2.61D-01

 Cycle  18  Pass 1  IDiag  1:
 E= -115.370107028989     Delta-E=        0.063258490147 Rises=F Damp=F
 DIIS: error= 4.05D-02 at cycle  18 NSaved=  18.
 NSaved=18 IEnMin=16 EnMin= -115.434117815566     IErMin=10 ErrMin= 3.20D-03
 ErrMax= 4.05D-02  0.00D+00 EMaxC= 1.00D-01 BMatC= 2.22D-01 BMatP= 1.35D-03
 IDIUse=2 WtCom= 0.00D+00 WtEn= 1.00D+00
 Coeff-En:   0.000D+00 0.000D+00 0.000D+00 0.000D+00 0.000D+00 0.000D+00
 Coeff-En:   0.000D+00 0.000D+00 0.000D+00 0.000D+00 0.000D+00 0.000D+00
 Coeff-En:   0.000D+00 0.000D+00 0.000D+00 0.000D+00 0.872D+00 0.128D+00
 Coeff:      0.000D+00 0.000D+00 0.000D+00 0.000D+00 0.000D+00 0.000D+00
 Coeff:      0.000D+00 0.000D+00 0.000D+00 0.000D+00 0.000D+00 0.000D+00
 Coeff:      0.000D+00 0.000D+00 0.000D+00 0.000D+00 0.872D+00 0.128D+00
 Gap=     0.098 Goal=   None    Shift=    0.000
 Gap=     0.098 Goal=   None    Shift=    0.000
 RMSDP=1.20D-03 MaxDP=1.81D-02 DE= 6.33D-02 OVMax= 1.18D-01

 Cycle  19  Pass 1  IDiag  1:
 E= -115.423394149994     Delta-E=       -0.053287121005 Rises=F Damp=F
 DIIS: error= 2.13D-02 at cycle  19 NSaved=  19.
 NSaved=19 IEnMin=16 EnMin= -115.434117815566     IErMin=10 ErrMin= 3.20D-03
 ErrMax= 2.13D-02  0.00D+00 EMaxC= 1.00D-01 BMatC= 4.51D-02 BMatP= 1.35D-03
 IDIUse=2 WtCom= 0.00D+00 WtEn= 1.00D+00
 Coeff-En:   0.000D+00 0.000D+00 0.000D+00 0.000D+00 0.000D+00 0.000D+00
 Coeff-En:   0.000D+00 0.000D+00 0.000D+00 0.000D+00 0.000D+00 0.000D+00
 Coeff-En:   0.000D+00 0.000D+00 0.000D+00 0.000D+00 0.689D+00 0.000D+00
 Coeff-En:   0.311D+00
 Coeff:      0.000D+00 0.000D+00 0.000D+00 0.000D+00 0.000D+00 0.000D+00
 Coeff:      0.000D+00 0.000D+00 0.000D+00 0.000D+00 0.000D+00 0.000D+00
 Coeff:      0.000D+00 0.000D+00 0.000D+00 0.000D+00 0.689D+00 0.000D+00
 Coeff:      0.311D+00
 Gap=     0.094 Goal=   None    Shift=    0.000
 Gap=     0.094 Goal=   None    Shift=    0.000
 RMSDP=6.85D-04 MaxDP=1.05D-02 DE=-5.33D-02 OVMax= 6.84D-02

 Cycle  20  Pass 1  IDiag  1:
 E= -115.436034047444     Delta-E=       -0.012639897450 Rises=F Damp=F
 DIIS: error= 6.46D-03 at cycle  20 NSaved=  20.
 NSaved=20 IEnMin=20 EnMin= -115.436034047444     IErMin=10 ErrMin= 3.20D-03
 ErrMax= 6.46D-03  0.00D+00 EMaxC= 1.00D-01 BMatC= 3.39D-03 BMatP= 1.35D-03
 IDIUse=3 WtCom= 9.68D-01 WtEn= 3.20D-02
 Coeff-Com: -0.310D-02 0.275D-02-0.107D-01-0.400D-04 0.521D-03-0.218D-01
 Coeff-Com:  0.613D-01 0.301D-01-0.268D-01 0.985D-01-0.240D+00 0.146D+01
 Coeff-Com: -0.245D+01-0.350D+01 0.430D+01-0.240D+00 0.289D+00 0.849D-02
 Coeff-Com: -0.193D+00 0.143D+01
 Coeff-En:   0.000D+00 0.000D+00 0.000D+00 0.000D+00 0.000D+00 0.000D+00
 Coeff-En:   0.000D+00 0.000D+00 0.000D+00 0.000D+00 0.000D+00 0.000D+00
 Coeff-En:   0.000D+00 0.000D+00 0.000D+00 0.000D+00 0.310D+00 0.000D+00
 Coeff-En:   0.000D+00 0.690D+00
 Coeff:     -0.300D-02 0.267D-02-0.103D-01-0.387D-04 0.504D-03-0.211D-01
 Coeff:      0.594D-01 0.292D-01-0.260D-01 0.954D-01-0.232D+00 0.141D+01
 Coeff:     -0.237D+01-0.338D+01 0.416D+01-0.232D+00 0.289D+00 0.822D-02
 Coeff:     -0.187D+00 0.141D+01
 Gap=     0.094 Goal=   None    Shift=    0.000
 Gap=     0.094 Goal=   None    Shift=    0.000
 RMSDP=6.43D-04 MaxDP=8.12D-03 DE=-1.26D-02 OVMax= 6.05D-02

 Cycle  21  Pass 1  IDiag  1:
 E= -115.437599951143     Delta-E=       -0.001565903699 Rises=F Damp=F
 DIIS: error= 1.11D-03 at cycle  21 NSaved=  20.
 NSaved=20 IEnMin=20 EnMin= -115.437599951143     IErMin=20 ErrMin= 1.11D-03
 ErrMax= 1.11D-03  0.00D+00 EMaxC= 1.00D-01 BMatC= 6.93D-05 BMatP= 1.35D-03
 IDIUse=3 WtCom= 9.89D-01 WtEn= 1.11D-02
 Coeff-Com:  0.108D-04-0.438D-03-0.440D-02-0.171D-02-0.226D-01 0.739D-01
 Coeff-Com: -0.116D-02 0.420D-02-0.561D-01 0.343D-01-0.303D+00-0.969D+00
 Coeff-Com:  0.191D+01-0.111D+01 0.160D+00 0.189D+00-0.737D-01 0.635D+00
 Coeff-Com: -0.161D+01 0.214D+01
 Coeff-En:   0.000D+00 0.000D+00 0.000D+00 0.000D+00 0.000D+00 0.000D+00
 Coeff-En:   0.000D+00 0.000D+00 0.000D+00 0.000D+00 0.000D+00 0.000D+00
 Coeff-En:   0.000D+00 0.000D+00 0.000D+00 0.000D+00 0.000D+00 0.000D+00
 Coeff-En:   0.000D+00 0.100D+01
 Coeff:      0.107D-04-0.434D-03-0.435D-02-0.169D-02-0.223D-01 0.731D-01
 Coeff:     -0.114D-02 0.415D-02-0.555D-01 0.339D-01-0.299D+00-0.958D+00
 Coeff:      0.189D+01-0.110D+01 0.159D+00 0.187D+00-0.728D-01 0.628D+00
 Coeff:     -0.159D+01 0.212D+01
 Gap=     0.097 Goal=   None    Shift=    0.000
 Gap=     0.097 Goal=   None    Shift=    0.000
 RMSDP=1.47D-03 MaxDP=2.06D-02 DE=-1.57D-03 OVMax= 1.19D-01

 Cycle  22  Pass 1  IDiag  1:
 E= -115.429474756261     Delta-E=        0.008125194882 Rises=F Damp=F
 DIIS: error= 2.04D-02 at cycle  22 NSaved=  20.
 NSaved=20 IEnMin=19 EnMin= -115.437599951143     IErMin=19 ErrMin= 1.11D-03
 ErrMax= 2.04D-02  0.00D+00 EMaxC= 1.00D-01 BMatC= 2.54D-02 BMatP= 6.93D-05
 IDIUse=2 WtCom= 0.00D+00 WtEn= 1.00D+00
 Rare condition: small coef for last iteration:  0.000D+00
 Coeff-En:   0.000D+00 0.000D+00 0.000D+00 0.000D+00 0.000D+00 0.000D+00
 Coeff-En:   0.000D+00 0.000D+00 0.000D+00 0.000D+00 0.000D+00 0.000D+00
 Coeff-En:   0.000D+00 0.000D+00 0.000D+00 0.000D+00 0.395D+00 0.000D+00
 Coeff-En:   0.000D+00 0.605D+00
 Coeff:      0.000D+00 0.000D+00 0.000D+00 0.000D+00 0.000D+00 0.000D+00
 Coeff:      0.000D+00 0.000D+00 0.000D+00 0.000D+00 0.000D+00 0.000D+00
 Coeff:      0.000D+00 0.000D+00 0.000D+00 0.000D+00 0.395D+00 0.000D+00
 Coeff:      0.000D+00 0.605D+00
 Gap=     0.094 Goal=   None    Shift=    0.000
 Gap=     0.094 Goal=   None    Shift=    0.000
 RMSDP=1.51D-03 MaxDP=2.69D-02 DE= 8.13D-03 OVMax= 1.46D-01

 Cycle  23  Pass 1  IDiag  1:
 E= -115.431832792336     Delta-E=       -0.002358036075 Rises=F Damp=F
 DIIS: error= 1.59D-02 at cycle  23 NSaved=  20.
 NSaved=20 IEnMin=18 EnMin= -115.436034047444     IErMin= 8 ErrMin= 3.20D-03
 ErrMax= 1.59D-02  0.00D+00 EMaxC= 1.00D-01 BMatC= 1.98D-02 BMatP= 1.35D-03
 IDIUse=2 WtCom= 0.00D+00 WtEn= 1.00D+00
 Coeff-En:   0.000D+00 0.000D+00 0.000D+00 0.000D+00 0.000D+00 0.000D+00
 Coeff-En:   0.000D+00 0.000D+00 0.000D+00 0.000D+00 0.000D+00 0.000D+00
 Coeff-En:   0.000D+00 0.000D+00 0.000D+00 0.000D+00 0.000D+00 0.000D+00
 Coeff-En:   0.452D+00 0.548D+00
 Coeff:      0.000D+00 0.000D+00 0.000D+00 0.000D+00 0.000D+00 0.000D+00
 Coeff:      0.000D+00 0.000D+00 0.000D+00 0.000D+00 0.000D+00 0.000D+00
 Coeff:      0.000D+00 0.000D+00 0.000D+00 0.000D+00 0.000D+00 0.000D+00
 Coeff:      0.452D+00 0.548D+00
 Gap=     0.094 Goal=   None    Shift=    0.000
 Gap=     0.093 Goal=   None    Shift=    0.000
 RMSDP=7.19D-04 MaxDP=1.36D-02 DE=-2.36D-03 OVMax= 7.32D-02

 Cycle  24  Pass 1  IDiag  1:
 E= -115.438211698781     Delta-E=       -0.006378906445 Rises=F Damp=F
 DIIS: error= 1.25D-03 at cycle  24 NSaved=  20.
 NSaved=20 IEnMin=20 EnMin= -115.438211698781     IErMin=20 ErrMin= 1.25D-03
 ErrMax= 1.25D-03  0.00D+00 EMaxC= 1.00D-01 BMatC= 1.05D-04 BMatP= 1.35D-03
 IDIUse=3 WtCom= 9.89D-01 WtEn= 1.11D-02
 Coeff-Com: -0.206D-02-0.886D-02-0.160D-01 0.609D-01 0.238D-02-0.745D-02
 Coeff-Com: -0.264D-01 0.481D-01 0.899D+00-0.831D+00-0.739D+01 0.532D+01
 Coeff-Com:  0.229D+01-0.123D+00 0.728D-01-0.775D+00 0.932D+00 0.195D+00
 Coeff-Com:  0.504D+00-0.141D+00
 Coeff-En:   0.000D+00 0.000D+00 0.000D+00 0.000D+00 0.000D+00 0.000D+00
 Coeff-En:   0.000D+00 0.000D+00 0.000D+00 0.000D+00 0.000D+00 0.000D+00
 Coeff-En:   0.000D+00 0.000D+00 0.000D+00 0.000D+00 0.000D+00 0.000D+00
 Coeff-En:   0.000D+00 0.100D+01
 Coeff:     -0.204D-02-0.876D-02-0.158D-01 0.603D-01 0.236D-02-0.737D-02
 Coeff:     -0.261D-01 0.476D-01 0.889D+00-0.822D+00-0.731D+01 0.526D+01
 Coeff:      0.226D+01-0.122D+00 0.720D-01-0.766D+00 0.922D+00 0.192D+00
 Coeff:      0.498D+00-0.128D+00
 Gap=     0.094 Goal=   None    Shift=    0.000
 Gap=     0.094 Goal=   None    Shift=    0.000
 RMSDP=9.00D-04 MaxDP=1.24D-02 DE=-6.38D-03 OVMax= 9.10D-02

 Cycle  25  Pass 1  IDiag  1:
 E= -115.437627915795     Delta-E=        0.000583782986 Rises=F Damp=F
 DIIS: error= 2.02D-03 at cycle  25 NSaved=  20.
 NSaved=20 IEnMin=19 EnMin= -115.438211698781     IErMin=19 ErrMin= 1.25D-03
 ErrMax= 2.02D-03  0.00D+00 EMaxC= 1.00D-01 BMatC= 1.84D-04 BMatP= 1.05D-04
 IDIUse=3 WtCom= 9.89D-01 WtEn= 1.11D-02
 Rare condition: small coef for last iteration:  0.000D+00
 Coeff-Com: -0.217D-02 0.454D-02 0.438D-01-0.229D-01-0.690D-03-0.691D-01
 Coeff-Com:  0.313D-02 0.245D+00-0.272D+00-0.162D+01 0.162D+01-0.550D+00
 Coeff-Com: -0.173D+00 0.207D-01-0.369D+00 0.460D+00 0.230D+00 0.257D+00
 Coeff-Com: -0.848D+00 0.204D+01
 Coeff-En:   0.000D+00 0.000D+00 0.000D+00 0.000D+00 0.000D+00 0.000D+00
 Coeff-En:   0.000D+00 0.000D+00 0.000D+00 0.000D+00 0.000D+00 0.000D+00
 Coeff-En:   0.000D+00 0.000D+00 0.000D+00 0.000D+00 0.000D+00 0.000D+00
 Coeff-En:   0.000D+00 0.100D+01
 Coeff:     -0.217D-02 0.454D-02 0.438D-01-0.229D-01-0.690D-03-0.691D-01
 Coeff:      0.313D-02 0.245D+00-0.272D+00-0.162D+01 0.162D+01-0.550D+00
 Coeff:     -0.173D+00 0.207D-01-0.369D+00 0.460D+00 0.230D+00 0.257D+00
 Coeff:     -0.848D+00 0.204D+01
 Gap=     0.096 Goal=   None    Shift=    0.000
 Gap=     0.096 Goal=   None    Shift=    0.000
 RMSDP=1.33D-03 MaxDP=1.94D-02 DE= 5.84D-04 OVMax= 1.04D-01

 Cycle  26  Pass 1  IDiag  1:
 E= -115.430535361919     Delta-E=        0.007092553877 Rises=F Damp=F
 DIIS: error= 1.90D-02 at cycle  26 NSaved=  20.
 NSaved=20 IEnMin=18 EnMin= -115.438211698781     IErMin=18 ErrMin= 1.25D-03
 ErrMax= 1.90D-02  0.00D+00 EMaxC= 1.00D-01 BMatC= 2.25D-02 BMatP= 1.05D-04
 IDIUse=2 WtCom= 0.00D+00 WtEn= 1.00D+00
 Rare condition: small coef for last iteration:  0.000D+00
 Coeff-En:   0.000D+00 0.000D+00 0.000D+00 0.000D+00 0.000D+00 0.000D+00
 Coeff-En:   0.000D+00 0.000D+00 0.000D+00 0.000D+00 0.000D+00 0.000D+00
 Coeff-En:   0.000D+00 0.000D+00 0.000D+00 0.000D+00 0.528D+00 0.000D+00
 Coeff-En:   0.000D+00 0.472D+00
 Coeff:      0.000D+00 0.000D+00 0.000D+00 0.000D+00 0.000D+00 0.000D+00
 Coeff:      0.000D+00 0.000D+00 0.000D+00 0.000D+00 0.000D+00 0.000D+00
 Coeff:      0.000D+00 0.000D+00 0.000D+00 0.000D+00 0.528D+00 0.000D+00
 Coeff:      0.000D+00 0.472D+00
 Gap=     0.094 Goal=   None    Shift=    0.000
 Gap=     0.093 Goal=   None    Shift=    0.000
 RMSDP=7.85D-04 MaxDP=1.51D-02 DE= 7.09D-03 OVMax= 8.67D-02

 Cycle  27  Pass 1  IDiag  1:
 E= -115.438194377484     Delta-E=       -0.007659015565 Rises=F Damp=F
 DIIS: error= 1.25D-03 at cycle  27 NSaved=  20.
 NSaved=20 IEnMin=18 EnMin= -115.438211698781     IErMin=18 ErrMin= 1.25D-03
 ErrMax= 1.25D-03  0.00D+00 EMaxC= 1.00D-01 BMatC= 5.81D-05 BMatP= 1.05D-04
 IDIUse=3 WtCom= 9.89D-01 WtEn= 1.11D-02
 Coeff-Com:  0.136D-02 0.239D-01-0.186D-01 0.517D-02-0.156D-01-0.690D-01
 Coeff-Com:  0.212D+00 0.548D+00-0.204D+01 0.145D+01-0.465D+00-0.258D+00
 Coeff-Com:  0.133D+00-0.757D+00 0.143D+01-0.146D+01-0.181D+00-0.564D+01
 Coeff-Com:  0.173D+01 0.636D+01
 Coeff-En:   0.000D+00 0.000D+00 0.000D+00 0.000D+00 0.000D+00 0.000D+00
 Coeff-En:   0.000D+00 0.000D+00 0.000D+00 0.000D+00 0.000D+00 0.000D+00
 Coeff-En:   0.000D+00 0.000D+00 0.000D+00 0.000D+00 0.000D+00 0.000D+00
 Coeff-En:   0.000D+00 0.100D+01
 Coeff:      0.135D-02 0.236D-01-0.184D-01 0.511D-02-0.154D-01-0.683D-01
 Coeff:      0.210D+00 0.542D+00-0.202D+01 0.144D+01-0.460D+00-0.255D+00
 Coeff:      0.132D+00-0.748D+00 0.142D+01-0.145D+01-0.179D+00-0.557D+01
 Coeff:      0.171D+01 0.630D+01
 Gap=     0.095 Goal=   None    Shift=    0.000
 Gap=     0.096 Goal=   None    Shift=    0.000
 RMSDP=4.52D-04 MaxDP=9.07D-03 DE=-7.66D-03 OVMax= 5.09D-02

 Cycle  28  Pass 1  IDiag  1:
 E= -115.436117958961     Delta-E=        0.002076418523 Rises=F Damp=F
 DIIS: error= 9.83D-03 at cycle  28 NSaved=  20.
 NSaved=20 IEnMin=17 EnMin= -115.438211698781     IErMin=17 ErrMin= 1.25D-03
 ErrMax= 9.83D-03  0.00D+00 EMaxC= 1.00D-01 BMatC= 6.25D-03 BMatP= 5.81D-05
 IDIUse=3 WtCom= 9.89D-01 WtEn= 1.11D-02
 Rare condition: small coef for last iteration:  0.000D+00
 Coeff-Com:  0.375D-02 0.164D-01-0.998D-02-0.176D-01 0.158D-01 0.159D+00
 Coeff-Com:  0.291D+00-0.149D+01 0.100D+01-0.167D+00-0.159D+00 0.728D-01
 Coeff-Com: -0.447D+00 0.780D+00-0.952D-01 0.948D-01-0.212D+01-0.347D+00
 Coeff-Com:  0.222D+01 0.120D+01
 Coeff-En:   0.000D+00 0.000D+00 0.000D+00 0.000D+00 0.000D+00 0.000D+00
 Coeff-En:   0.000D+00 0.000D+00 0.000D+00 0.000D+00 0.000D+00 0.000D+00
 Coeff-En:   0.000D+00 0.000D+00 0.000D+00 0.331D+00 0.000D+00 0.000D+00
 Coeff-En:   0.000D+00 0.669D+00
 Coeff:      0.375D-02 0.164D-01-0.998D-02-0.176D-01 0.158D-01 0.159D+00
 Coeff:      0.291D+00-0.149D+01 0.100D+01-0.167D+00-0.159D+00 0.728D-01
 Coeff:     -0.447D+00 0.780D+00-0.952D-01 0.948D-01-0.212D+01-0.347D+00
 Coeff:      0.222D+01 0.120D+01
 Gap=     0.095 Goal=   None    Shift=    0.000
 Gap=     0.095 Goal=   None    Shift=    0.000
 RMSDP=2.08D-04 MaxDP=2.98D-03 DE= 2.08D-03 OVMax= 2.14D-02

 Cycle  29  Pass 1  IDiag  1:
 E= -115.437294406827     Delta-E=       -0.001176447867 Rises=F Damp=F
 DIIS: error= 6.62D-03 at cycle  29 NSaved=  20.
 NSaved=20 IEnMin=16 EnMin= -115.438211698781     IErMin=16 ErrMin= 1.25D-03
 ErrMax= 6.62D-03  0.00D+00 EMaxC= 1.00D-01 BMatC= 2.95D-03 BMatP= 5.81D-05
 IDIUse=3 WtCom= 9.89D-01 WtEn= 1.11D-02
 Coeff-Com:  0.166D-01-0.635D-02-0.762D-02-0.196D-01 0.168D+00 0.142D+00
 Coeff-Com: -0.121D+01 0.873D+00-0.177D+00-0.962D-01 0.642D-01-0.360D+00
 Coeff-Com:  0.679D+00-0.449D+00 0.411D-01-0.199D+01 0.300D+00 0.219D+01
 Coeff-Com:  0.517D-01 0.790D+00
 Coeff-En:   0.000D+00 0.000D+00 0.000D+00 0.000D+00 0.000D+00 0.000D+00
 Coeff-En:   0.000D+00 0.000D+00 0.000D+00 0.000D+00 0.000D+00 0.000D+00
 Coeff-En:   0.000D+00 0.000D+00 0.208D+00 0.000D+00 0.000D+00 0.000D+00
 Coeff-En:   0.000D+00 0.792D+00
 Coeff:      0.164D-01-0.628D-02-0.753D-02-0.194D-01 0.166D+00 0.141D+00
 Coeff:     -0.120D+01 0.863D+00-0.175D+00-0.951D-01 0.635D-01-0.356D+00
 Coeff:      0.672D+00-0.444D+00 0.430D-01-0.197D+01 0.296D+00 0.216D+01
 Coeff:      0.511D-01 0.790D+00
 Gap=     0.096 Goal=   None    Shift=    0.000
 Gap=     0.096 Goal=   None    Shift=    0.000
 RMSDP=8.34D-05 MaxDP=1.44D-03 DE=-1.18D-03 OVMax= 1.05D-02

 Cycle  30  Pass 1  IDiag  1:
 E= -115.437281946106     Delta-E=        0.000012460721 Rises=F Damp=F
 DIIS: error= 6.73D-03 at cycle  30 NSaved=  20.
 NSaved=20 IEnMin=15 EnMin= -115.438211698781     IErMin=15 ErrMin= 1.25D-03
 ErrMax= 6.73D-03  0.00D+00 EMaxC= 1.00D-01 BMatC= 3.00D-03 BMatP= 5.81D-05
 IDIUse=3 WtCom= 9.89D-01 WtEn= 1.11D-02
 Rare condition: small coef for last iteration:  0.000D+00
 Coeff-Com:  0.831D-02 0.567D-02-0.691D-01 0.303D+00-0.192D+00-0.119D+01
 Coeff-Com:  0.118D+01-0.521D+00-0.211D+00 0.625D-01-0.397D+00 0.935D+00
 Coeff-Com:  0.786D+00 0.116D+00-0.245D+01-0.119D+01 0.233D+01 0.732D+00
 Coeff-Com:  0.602D+01-0.528D+01
 Coeff-En:   0.000D+00 0.000D+00 0.000D+00 0.000D+00 0.000D+00 0.000D+00
 Coeff-En:   0.000D+00 0.000D+00 0.000D+00 0.000D+00 0.000D+00 0.000D+00
 Coeff-En:   0.000D+00 0.203D+00 0.000D+00 0.000D+00 0.000D+00 0.000D+00
 Coeff-En:   0.000D+00 0.797D+00
 Coeff:      0.831D-02 0.567D-02-0.691D-01 0.303D+00-0.192D+00-0.119D+01
 Coeff:      0.118D+01-0.521D+00-0.211D+00 0.625D-01-0.397D+00 0.935D+00
 Coeff:      0.786D+00 0.116D+00-0.245D+01-0.119D+01 0.233D+01 0.732D+00
 Coeff:      0.602D+01-0.528D+01
 Gap=     0.097 Goal=   None    Shift=    0.000
 Gap=     0.097 Goal=   None    Shift=    0.000
 RMSDP=4.25D-04 MaxDP=6.81D-03 DE= 1.25D-05 OVMax= 3.87D-02

 Cycle  31  Pass 1  IDiag  1:
 E= -115.433103846350     Delta-E=        0.004178099757 Rises=F Damp=F
 DIIS: error= 1.58D-02 at cycle  31 NSaved=  20.
 NSaved=20 IEnMin=14 EnMin= -115.438211698781     IErMin=14 ErrMin= 1.25D-03
 ErrMax= 1.58D-02  0.00D+00 EMaxC= 1.00D-01 BMatC= 1.53D-02 BMatP= 5.81D-05
 IDIUse=2 WtCom= 0.00D+00 WtEn= 1.00D+00
 EnCoef did   100 forward-backward iterations
 Rare condition: small coef for last iteration:  0.000D+00
 Coeff-En:   0.000D+00 0.000D+00 0.000D+00 0.000D+00 0.000D+00 0.000D+00
 Coeff-En:   0.000D+00 0.000D+00 0.000D+00 0.000D+00 0.000D+00 0.000D+00
 Coeff-En:   0.463D+00 0.000D+00 0.000D+00 0.000D+00 0.000D+00 0.000D+00
 Coeff-En:   0.000D+00 0.537D+00
 Coeff:      0.000D+00 0.000D+00 0.000D+00 0.000D+00 0.000D+00 0.000D+00
 Coeff:      0.000D+00 0.000D+00 0.000D+00 0.000D+00 0.000D+00 0.000D+00
 Coeff:      0.463D+00 0.000D+00 0.000D+00 0.000D+00 0.000D+00 0.000D+00
 Coeff:      0.000D+00 0.537D+00
 Gap=     0.094 Goal=   None    Shift=    0.000
 Gap=     0.095 Goal=   None    Shift=    0.000
 RMSDP=8.29D-04 MaxDP=1.49D-02 DE= 4.18D-03 OVMax= 8.26D-02

 Cycle  32  Pass 1  IDiag  1:
 E= -115.437866929753     Delta-E=       -0.004763083404 Rises=F Damp=F
 DIIS: error= 4.11D-03 at cycle  32 NSaved=  20.
 NSaved=20 IEnMin=14 EnMin= -115.438211698781     IErMin=14 ErrMin= 1.25D-03
 ErrMax= 4.11D-03  0.00D+00 EMaxC= 1.00D-01 BMatC= 1.15D-03 BMatP= 5.81D-05
 IDIUse=3 WtCom= 9.89D-01 WtEn= 1.11D-02
 EnCoef did   100 forward-backward iterations
 Coeff-Com:  0.442D-02-0.151D-01 0.863D-01-0.294D+00 0.320D+00 0.140D+01
 Coeff-Com: -0.130D+01-0.108D+00 0.145D+00 0.277D+00-0.629D+00-0.696D-01
 Coeff-Com: -0.302D+00-0.265D+00-0.688D+00 0.410D+00 0.957D+00-0.381D+00
 Coeff-Com:  0.476D+00 0.980D+00
 Coeff-En:   0.000D+00 0.000D+00 0.000D+00 0.000D+00 0.000D+00 0.000D+00
 Coeff-En:   0.000D+00 0.000D+00 0.000D+00 0.000D+00 0.000D+00 0.000D+00
 Coeff-En:   0.000D+00 0.000D+00 0.000D+00 0.000D+00 0.000D+00 0.361D+00
 Coeff-En:   0.266D-02 0.637D+00
 Coeff:      0.437D-02-0.150D-01 0.854D-01-0.291D+00 0.316D+00 0.138D+01
 Coeff:     -0.129D+01-0.106D+00 0.144D+00 0.274D+00-0.622D+00-0.689D-01
 Coeff:     -0.298D+00-0.262D+00-0.680D+00 0.405D+00 0.946D+00-0.373D+00
 Coeff:      0.471D+00 0.976D+00
 Gap=     0.095 Goal=   None    Shift=    0.000
 Gap=     0.095 Goal=   None    Shift=    0.000
 RMSDP=3.52D-04 MaxDP=5.01D-03 DE=-4.76D-03 OVMax= 3.58D-02

 Cycle  33  Pass 1  IDiag  1:
 E= -115.438304291672     Delta-E=       -0.000437361919 Rises=F Damp=F
 DIIS: error= 2.42D-04 at cycle  33 NSaved=  20.
 NSaved=20 IEnMin=20 EnMin= -115.438304291672     IErMin=20 ErrMin= 2.42D-04
 ErrMax= 2.42D-04  0.00D+00 EMaxC= 1.00D-01 BMatC= 2.75D-06 BMatP= 5.81D-05
 IDIUse=3 WtCom= 9.98D-01 WtEn= 2.42D-03
 Coeff-Com:  0.224D-02 0.251D-01-0.241D-01 0.240D-01-0.196D+00 0.139D+00
 Coeff-Com:  0.392D-01-0.182D-01-0.214D-01-0.132D+00 0.414D+00 0.989D-01
 Coeff-Com: -0.640D-01-0.876D+00 0.954D-01 0.160D+01-0.146D+01 0.175D+00
 Coeff-Com: -0.372D-01 0.121D+01
 Coeff-En:   0.000D+00 0.000D+00 0.000D+00 0.000D+00 0.000D+00 0.000D+00
 Coeff-En:   0.000D+00 0.000D+00 0.000D+00 0.000D+00 0.000D+00 0.000D+00
 Coeff-En:   0.000D+00 0.000D+00 0.000D+00 0.000D+00 0.000D+00 0.000D+00
 Coeff-En:   0.000D+00 0.100D+01
 Coeff:      0.223D-02 0.250D-01-0.241D-01 0.240D-01-0.196D+00 0.139D+00
 Coeff:      0.391D-01-0.182D-01-0.213D-01-0.132D+00 0.413D+00 0.986D-01
 Coeff:     -0.638D-01-0.874D+00 0.952D-01 0.160D+01-0.145D+01 0.174D+00
 Coeff:     -0.372D-01 0.121D+01
 Gap=     0.096 Goal=   None    Shift=    0.000
 Gap=     0.096 Goal=   None    Shift=    0.000
 RMSDP=2.11D-04 MaxDP=3.30D-03 DE=-4.37D-04 OVMax= 2.37D-02

 Cycle  34  Pass 1  IDiag  1:
 E= -115.438220254225     Delta-E=        0.000084037448 Rises=F Damp=F
 DIIS: error= 2.09D-03 at cycle  34 NSaved=  20.
 NSaved=20 IEnMin=19 EnMin= -115.438304291672     IErMin=19 ErrMin= 2.42D-04
 ErrMax= 2.09D-03  0.00D+00 EMaxC= 1.00D-01 BMatC= 2.82D-04 BMatP= 2.75D-06
 IDIUse=3 WtCom= 9.98D-01 WtEn= 2.42D-03
 Rare condition: small coef for last iteration:  0.000D+00
 Coeff-Com: -0.542D-02 0.878D-02-0.552D-01 0.117D+00 0.101D+00-0.154D+00
 Coeff-Com: -0.784D-02 0.570D-01-0.337D-01-0.114D+00 0.994D-01 0.687D+00
 Coeff-Com:  0.130D+00-0.754D+00 0.499D-02-0.209D+00-0.146D+00-0.175D+00
 Coeff-Com:  0.147D-01 0.144D+01
 Coeff-En:   0.000D+00 0.000D+00 0.000D+00 0.000D+00 0.000D+00 0.000D+00
 Coeff-En:   0.000D+00 0.000D+00 0.000D+00 0.000D+00 0.000D+00 0.000D+00
 Coeff-En:   0.000D+00 0.000D+00 0.000D+00 0.000D+00 0.000D+00 0.000D+00
 Coeff-En:   0.000D+00 0.100D+01
 Coeff:     -0.542D-02 0.878D-02-0.552D-01 0.117D+00 0.101D+00-0.154D+00
 Coeff:     -0.784D-02 0.570D-01-0.337D-01-0.114D+00 0.994D-01 0.687D+00
 Coeff:      0.130D+00-0.754D+00 0.499D-02-0.209D+00-0.146D+00-0.175D+00
 Coeff:      0.147D-01 0.144D+01
 Gap=     0.096 Goal=   None    Shift=    0.000
 Gap=     0.096 Goal=   None    Shift=    0.000
 RMSDP=1.30D-04 MaxDP=1.79D-03 DE= 8.40D-05 OVMax= 1.15D-02

 Cycle  35  Pass 1  IDiag  1:
 E= -115.438318420691     Delta-E=       -0.000098166466 Rises=F Damp=F
 DIIS: error= 2.19D-04 at cycle  35 NSaved=  20.
 NSaved=20 IEnMin=20 EnMin= -115.438318420691     IErMin=20 ErrMin= 2.19D-04
 ErrMax= 2.19D-04  0.00D+00 EMaxC= 1.00D-01 BMatC= 1.88D-06 BMatP= 2.75D-06
 IDIUse=3 WtCom= 9.98D-01 WtEn= 2.19D-03
 Coeff-Com:  0.106D-02-0.197D-02-0.669D-03 0.315D-02 0.222D-01-0.547D-02
 Coeff-Com: -0.256D-01 0.126D-01 0.167D-02 0.554D-02 0.289D+00-0.280D-01
 Coeff-Com: -0.364D+00 0.377D-01-0.925D-01 0.174D-01 0.495D-01 0.134D-01
 Coeff-Com:  0.248D+00 0.817D+00
 Coeff-En:   0.000D+00 0.000D+00 0.000D+00 0.000D+00 0.000D+00 0.000D+00
 Coeff-En:   0.000D+00 0.000D+00 0.000D+00 0.000D+00 0.000D+00 0.000D+00
 Coeff-En:   0.000D+00 0.000D+00 0.000D+00 0.000D+00 0.000D+00 0.000D+00
 Coeff-En:   0.000D+00 0.100D+01
 Coeff:      0.106D-02-0.196D-02-0.667D-03 0.315D-02 0.221D-01-0.545D-02
 Coeff:     -0.255D-01 0.126D-01 0.166D-02 0.553D-02 0.288D+00-0.279D-01
 Coeff:     -0.363D+00 0.376D-01-0.923D-01 0.173D-01 0.494D-01 0.134D-01
 Coeff:      0.248D+00 0.817D+00
 Gap=     0.096 Goal=   None    Shift=    0.000
 Gap=     0.096 Goal=   None    Shift=    0.000
 RMSDP=3.86D-05 MaxDP=5.58D-04 DE=-9.82D-05 OVMax= 4.00D-03

 Cycle  36  Pass 1  IDiag  1:
 E= -115.438318968850     Delta-E=       -0.000000548159 Rises=F Damp=F
 DIIS: error= 1.16D-04 at cycle  36 NSaved=  20.
 NSaved=20 IEnMin=20 EnMin= -115.438318968850     IErMin=20 ErrMin= 1.16D-04
 ErrMax= 1.16D-04  0.00D+00 EMaxC= 1.00D-01 BMatC= 6.52D-07 BMatP= 1.88D-06
 IDIUse=3 WtCom= 9.99D-01 WtEn= 1.16D-03
 Coeff-Com: -0.106D-02 0.979D-03-0.169D-02 0.422D-02-0.125D-01 0.135D-03
 Coeff-Com:  0.128D-01 0.214D-03 0.655D-03-0.746D-02-0.918D-01 0.991D-01
 Coeff-Com: -0.455D-02-0.859D-02 0.150D-01 0.813D-02 0.538D-01-0.156D+00
 Coeff-Com: -0.335D+00 0.142D+01
 Coeff-En:   0.000D+00 0.000D+00 0.000D+00 0.000D+00 0.000D+00 0.000D+00
 Coeff-En:   0.000D+00 0.000D+00 0.000D+00 0.000D+00 0.000D+00 0.000D+00
 Coeff-En:   0.000D+00 0.000D+00 0.000D+00 0.000D+00 0.000D+00 0.000D+00
 Coeff-En:   0.000D+00 0.100D+01
 Coeff:     -0.106D-02 0.977D-03-0.168D-02 0.421D-02-0.125D-01 0.135D-03
 Coeff:      0.128D-01 0.213D-03 0.654D-03-0.745D-02-0.917D-01 0.990D-01
 Coeff:     -0.454D-02-0.858D-02 0.150D-01 0.812D-02 0.537D-01-0.156D+00
 Coeff:     -0.335D+00 0.142D+01
 Gap=     0.096 Goal=   None    Shift=    0.000
 Gap=     0.096 Goal=   None    Shift=    0.000
 RMSDP=8.11D-06 MaxDP=1.67D-04 DE=-5.48D-07 OVMax= 9.56D-04

 Cycle  37  Pass 1  IDiag  1:
 E= -115.438319075702     Delta-E=       -0.000000106852 Rises=F Damp=F
 DIIS: error= 6.63D-05 at cycle  37 NSaved=  20.
 NSaved=20 IEnMin=20 EnMin= -115.438319075702     IErMin=20 ErrMin= 6.63D-05
 ErrMax= 6.63D-05  0.00D+00 EMaxC= 1.00D-01 BMatC= 2.82D-07 BMatP= 6.52D-07
 IDIUse=1 WtCom= 1.00D+00 WtEn= 0.00D+00
 Coeff-Com:  0.129D-03-0.506D-03 0.240D-02-0.283D-02-0.160D-02 0.454D-02
 Coeff-Com:  0.402D-03-0.209D-02 0.276D-02 0.262D-01-0.235D-01-0.518D-02
 Coeff-Com:  0.356D-02-0.178D-02-0.923D-02-0.128D-01 0.374D-01-0.580D-01
 Coeff-Com:  0.474D-01 0.993D+00
 Coeff:      0.129D-03-0.506D-03 0.240D-02-0.283D-02-0.160D-02 0.454D-02
 Coeff:      0.402D-03-0.209D-02 0.276D-02 0.262D-01-0.235D-01-0.518D-02
 Coeff:      0.356D-02-0.178D-02-0.923D-02-0.128D-01 0.374D-01-0.580D-01
 Coeff:      0.474D-01 0.993D+00
 Gap=     0.096 Goal=   None    Shift=    0.000
 Gap=     0.096 Goal=   None    Shift=    0.000
 RMSDP=1.63D-06 MaxDP=2.49D-05 DE=-1.07D-07 OVMax= 1.84D-04

 Cycle  38  Pass 1  IDiag  1:
 E= -115.438319106791     Delta-E=       -0.000000031089 Rises=F Damp=F
 DIIS: error= 5.26D-05 at cycle  38 NSaved=  20.
 NSaved=20 IEnMin=20 EnMin= -115.438319106791     IErMin=20 ErrMin= 5.26D-05
 ErrMax= 5.26D-05  0.00D+00 EMaxC= 1.00D-01 BMatC= 1.73D-07 BMatP= 2.82D-07
 IDIUse=1 WtCom= 1.00D+00 WtEn= 0.00D+00
 Coeff-Com:  0.166D-03-0.749D-04 0.177D-03-0.223D-03-0.208D-03-0.269D-03
 Coeff-Com:  0.803D-03 0.181D-03 0.276D-02-0.235D-02 0.128D-02-0.282D-02
 Coeff-Com: -0.485D-03-0.244D-02-0.102D-01 0.372D-01 0.633D-02-0.989D-01
 Coeff-Com: -0.731D-02 0.108D+01
 Coeff:      0.166D-03-0.749D-04 0.177D-03-0.223D-03-0.208D-03-0.269D-03
 Coeff:      0.803D-03 0.181D-03 0.276D-02-0.235D-02 0.128D-02-0.282D-02
 Coeff:     -0.485D-03-0.244D-02-0.102D-01 0.372D-01 0.633D-02-0.989D-01
 Coeff:     -0.731D-02 0.108D+01
 Gap=     0.096 Goal=   None    Shift=    0.000
 Gap=     0.096 Goal=   None    Shift=    0.000
 RMSDP=2.27D-06 MaxDP=4.07D-05 DE=-3.11D-08 OVMax= 2.33D-04

 Cycle  39  Pass 1  IDiag  1:
 E= -115.438319167468     Delta-E=       -0.000000060677 Rises=F Damp=F
 DIIS: error= 3.25D-06 at cycle  39 NSaved=  20.
 NSaved=20 IEnMin=20 EnMin= -115.438319167468     IErMin=20 ErrMin= 3.25D-06
 ErrMax= 3.25D-06  0.00D+00 EMaxC= 1.00D-01 BMatC= 4.87D-10 BMatP= 1.73D-07
 IDIUse=1 WtCom= 1.00D+00 WtEn= 0.00D+00
 Coeff-Com: -0.900D-04-0.402D-03 0.132D-02-0.563D-03-0.332D-03 0.556D-04
 Coeff-Com: -0.915D-04-0.287D-02 0.287D-02 0.142D-03 0.377D-03 0.190D-03
 Coeff-Com:  0.495D-03 0.504D-02-0.127D-01-0.446D-02-0.154D-01-0.313D-01
 Coeff-Com: -0.339D+00 0.140D+01
 Coeff:     -0.900D-04-0.402D-03 0.132D-02-0.563D-03-0.332D-03 0.556D-04
 Coeff:     -0.915D-04-0.287D-02 0.287D-02 0.142D-03 0.377D-03 0.190D-03
 Coeff:      0.495D-03 0.504D-02-0.127D-01-0.446D-02-0.154D-01-0.313D-01
 Coeff:     -0.339D+00 0.140D+01
 Gap=     0.096 Goal=   None    Shift=    0.000
 Gap=     0.096 Goal=   None    Shift=    0.000
 RMSDP=2.92D-07 MaxDP=5.66D-06 DE=-6.07D-08 OVMax= 3.17D-05

 Cycle  40  Pass 1  IDiag  1:
 E= -115.438319167590     Delta-E=       -0.000000000122 Rises=F Damp=F
 DIIS: error= 1.59D-06 at cycle  40 NSaved=  20.
 NSaved=20 IEnMin=20 EnMin= -115.438319167590     IErMin=20 ErrMin= 1.59D-06
 ErrMax= 1.59D-06  0.00D+00 EMaxC= 1.00D-01 BMatC= 9.25D-11 BMatP= 4.87D-10
 IDIUse=1 WtCom= 1.00D+00 WtEn= 0.00D+00
 Coeff-Com: -0.147D-04-0.424D-04 0.997D-04-0.493D-04 0.193D-04-0.852D-04
 Coeff-Com: -0.691D-03 0.721D-03 0.308D-05 0.336D-03 0.198D-04 0.205D-03
 Coeff-Com:  0.170D-02-0.576D-02 0.506D-03 0.219D-01-0.106D-01-0.155D+00
 Coeff-Com:  0.159D+00 0.988D+00
 Coeff:     -0.147D-04-0.424D-04 0.997D-04-0.493D-04 0.193D-04-0.852D-04
 Coeff:     -0.691D-03 0.721D-03 0.308D-05 0.336D-03 0.198D-04 0.205D-03
 Coeff:      0.170D-02-0.576D-02 0.506D-03 0.219D-01-0.106D-01-0.155D+00
 Coeff:      0.159D+00 0.988D+00
 Gap=     0.096 Goal=   None    Shift=    0.000
 Gap=     0.096 Goal=   None    Shift=    0.000
 RMSDP=1.43D-07 MaxDP=2.17D-06 DE=-1.22D-10 OVMax= 1.55D-05

 Cycle  41  Pass 1  IDiag  1:
 E= -115.438319167608     Delta-E=       -0.000000000018 Rises=F Damp=F
 DIIS: error= 1.80D-07 at cycle  41 NSaved=  20.
 NSaved=20 IEnMin=20 EnMin= -115.438319167608     IErMin=20 ErrMin= 1.80D-07
 ErrMax= 1.80D-07  0.00D+00 EMaxC= 1.00D-01 BMatC= 1.08D-12 BMatP= 9.25D-11
 IDIUse=1 WtCom= 1.00D+00 WtEn= 0.00D+00
 Coeff-Com:  0.711D-04-0.374D-04-0.519D-04 0.986D-06 0.249D-04-0.403D-04
 Coeff-Com:  0.812D-04-0.679D-04 0.176D-04-0.270D-04-0.102D-03-0.818D-03
 Coeff-Com:  0.211D-02-0.227D-03-0.426D-02 0.449D-02 0.706D-01-0.824D-01
 Coeff-Com: -0.785D+00 0.180D+01
 Coeff:      0.711D-04-0.374D-04-0.519D-04 0.986D-06 0.249D-04-0.403D-04
 Coeff:      0.812D-04-0.679D-04 0.176D-04-0.270D-04-0.102D-03-0.818D-03
 Coeff:      0.211D-02-0.227D-03-0.426D-02 0.449D-02 0.706D-01-0.824D-01
 Coeff:     -0.785D+00 0.180D+01
 Gap=     0.096 Goal=   None    Shift=    0.000
 Gap=     0.096 Goal=   None    Shift=    0.000
 RMSDP=4.54D-08 MaxDP=8.34D-07 DE=-1.79D-11 OVMax= 5.14D-06

 Cycle  42  Pass 1  IDiag  1:
 E= -115.438319167599     Delta-E=        0.000000000009 Rises=F Damp=F
 DIIS: error= 6.13D-07 at cycle  42 NSaved=  20.
 NSaved=20 IEnMin=19 EnMin= -115.438319167608     IErMin=19 ErrMin= 1.80D-07
 ErrMax= 6.13D-07  0.00D+00 EMaxC= 1.00D-01 BMatC= 2.19D-11 BMatP= 1.08D-12
 IDIUse=1 WtCom= 1.00D+00 WtEn= 0.00D+00
 Coeff-Com: -0.266D-05 0.283D-05 0.442D-05 0.283D-05 0.164D-03-0.194D-03
 Coeff-Com: -0.700D-04 0.226D-04 0.137D-04 0.154D-04-0.183D-03 0.466D-03
 Coeff-Com: -0.238D-03-0.447D-02 0.310D-02 0.179D-01-0.370D-01-0.162D+00
 Coeff-Com:  0.257D-02 0.118D+01
 Coeff:     -0.266D-05 0.283D-05 0.442D-05 0.283D-05 0.164D-03-0.194D-03
 Coeff:     -0.700D-04 0.226D-04 0.137D-04 0.154D-04-0.183D-03 0.466D-03
 Coeff:     -0.238D-03-0.447D-02 0.310D-02 0.179D-01-0.370D-01-0.162D+00
 Coeff:      0.257D-02 0.118D+01
 Gap=     0.096 Goal=   None    Shift=    0.000
 Gap=     0.096 Goal=   None    Shift=    0.000
 RMSDP=3.94D-08 MaxDP=4.86D-07 DE= 9.07D-12 OVMax= 3.46D-06

 Cycle  43  Pass 1  IDiag  1:
 E= -115.438319167607     Delta-E=       -0.000000000008 Rises=F Damp=F
 DIIS: error= 9.90D-08 at cycle  43 NSaved=  20.
 NSaved=20 IEnMin=18 EnMin= -115.438319167608     IErMin=20 ErrMin= 9.90D-08
 ErrMax= 9.90D-08  0.00D+00 EMaxC= 1.00D-01 BMatC= 4.27D-13 BMatP= 1.08D-12
 IDIUse=1 WtCom= 1.00D+00 WtEn= 0.00D+00
 Large coefficients: NSaved= 20 BigCof=    0.00 CofMax=   10.00 Det=-3.85D-15
 Inversion failed.  Reducing to 19 matrices.
 Large coefficients: NSaved= 19 BigCof=    0.00 CofMax=   10.00 Det=-4.03D-15
 Inversion failed.  Reducing to 18 matrices.
 Large coefficients: NSaved= 18 BigCof=    0.00 CofMax=   10.00 Det=-4.17D-15
 Inversion failed.  Reducing to 17 matrices.
 Large coefficients: NSaved= 17 BigCof=    0.00 CofMax=   10.00 Det=-4.17D-15
 Inversion failed.  Reducing to 16 matrices.
 Large coefficients: NSaved= 16 BigCof=    0.00 CofMax=   10.00 Det=-4.17D-15
 Inversion failed.  Reducing to 15 matrices.
 Coeff-Com:  0.375D-04-0.452D-04-0.114D-05 0.447D-05 0.114D-05-0.834D-05
 Coeff-Com:  0.163D-03-0.168D-03-0.711D-03-0.189D-02-0.502D-03 0.374D-01
 Coeff-Com: -0.143D-01-0.254D+00 0.123D+01
 Coeff:      0.375D-04-0.452D-04-0.114D-05 0.447D-05 0.114D-05-0.834D-05
 Coeff:      0.163D-03-0.168D-03-0.711D-03-0.189D-02-0.502D-03 0.374D-01
 Coeff:     -0.143D-01-0.254D+00 0.123D+01
 Gap=     0.096 Goal=   None    Shift=    0.000
 Gap=     0.096 Goal=   None    Shift=    0.000
 RMSDP=1.32D-08 MaxDP=2.07D-07 DE=-7.59D-12 OVMax= 1.48D-06

 Cycle  44  Pass 1  IDiag  1:
 E= -115.438319167607     Delta-E=       -0.000000000000 Rises=F Damp=F
 DIIS: error= 1.83D-08 at cycle  44 NSaved=  16.
 NSaved=16 IEnMin=13 EnMin= -115.438319167608     IErMin=16 ErrMin= 1.83D-08
 ErrMax= 1.83D-08  0.00D+00 EMaxC= 1.00D-01 BMatC= 1.51D-14 BMatP= 4.27D-13
 IDIUse=1 WtCom= 1.00D+00 WtEn= 0.00D+00
 Large coefficients: NSaved= 16 BigCof=    0.00 CofMax=   10.00 Det=-3.24D-16
 Inversion failed.  Reducing to 15 matrices.
 Coeff-Com:  0.854D-05-0.101D-04 0.903D-06-0.394D-05 0.234D-04 0.565D-04
 Coeff-Com: -0.293D-03 0.153D-03 0.178D-03 0.528D-02-0.111D-01 0.228D-01
 Coeff-Com: -0.496D-01-0.132D+00 0.116D+01
 Coeff:      0.854D-05-0.101D-04 0.903D-06-0.394D-05 0.234D-04 0.565D-04
 Coeff:     -0.293D-03 0.153D-03 0.178D-03 0.528D-02-0.111D-01 0.228D-01
 Coeff:     -0.496D-01-0.132D+00 0.116D+01
 Gap=     0.096 Goal=   None    Shift=    0.000
 Gap=     0.096 Goal=   None    Shift=    0.000
 RMSDP=1.34D-09 MaxDP=1.68D-08 DE=-1.42D-13 OVMax= 1.20D-07

 SCF Done:  E(UM062X) =  -115.438319168     A.U. after   44 cycles
            NFock= 44  Conv=0.13D-08     -V/T= 2.0042
 <Sx>= 0.0000 <Sy>= 0.0000 <Sz>= 0.0000 <S**2>=-0.0000 S=-0.0000
 <L.S>=  0.00000000000    
 KE= 1.149609931897D+02 PE=-3.203467741116D+02 EE= 6.536291527213D+01
 Annihilation of the first spin contaminant:
 S**2 before annihilation    -0.0000,   after    -0.0000
 Leave Link  502 at Mon Apr 21 18:44:26 2025, MaxMem=   536870912 cpu:             186.4 elap:              24.2
 (Enter /home/szhao/Apps/g16/l601.exe)
 Copying SCF densities to generalized density rwf, IOpCl= 1 IROHF=0.

 **********************************************************************

            Population analysis using the SCF density.

 **********************************************************************

 Alpha  occ. eigenvalues --  -19.60864 -10.65517  -1.03264  -0.83768  -0.53361
 Alpha  occ. eigenvalues --   -0.53271  -0.47533  -0.34476  -0.28866
 Alpha virt. eigenvalues --   -0.19310   0.00313   0.04625   0.04855   0.07465
 Alpha virt. eigenvalues --    0.13516   0.14513   0.14696   0.19478   0.22301
 Alpha virt. eigenvalues --    0.22752   0.24593   0.28142   0.40253   0.40444
 Alpha virt. eigenvalues --    0.48200   0.57074   0.58982   0.59066   0.60091
 Alpha virt. eigenvalues --    0.75749   1.00171   1.00388   1.08081   1.12361
 Alpha virt. eigenvalues --    1.13955   1.30610   1.41280   1.43892   1.44215
 Alpha virt. eigenvalues --    1.44333   1.50558   1.51035   1.64988   1.65120
 Alpha virt. eigenvalues --    1.93559   2.11839   2.12537   2.13013   2.33109
 Alpha virt. eigenvalues --    2.42709   2.43187   2.47804   2.48428   2.51602
 Alpha virt. eigenvalues --    2.66393   2.88074   2.93442   2.94241   3.23077
 Alpha virt. eigenvalues --    3.25057   3.68894   3.69013   3.90309   5.08899
 Alpha virt. eigenvalues --    5.10051   5.59175  23.87188  49.93446
  Beta  occ. eigenvalues --  -19.60864 -10.65517  -1.03264  -0.83768  -0.53361
  Beta  occ. eigenvalues --   -0.53271  -0.47533  -0.34476  -0.28866
  Beta virt. eigenvalues --   -0.19310   0.00313   0.04625   0.04855   0.07465
  Beta virt. eigenvalues --    0.13516   0.14513   0.14696   0.19478   0.22301
  Beta virt. eigenvalues --    0.22752   0.24593   0.28142   0.40253   0.40444
  Beta virt. eigenvalues --    0.48200   0.57074   0.58982   0.59066   0.60091
  Beta virt. eigenvalues --    0.75749   1.00171   1.00388   1.08081   1.12361
  Beta virt. eigenvalues --    1.13955   1.30610   1.41280   1.43892   1.44215
  Beta virt. eigenvalues --    1.44333   1.50558   1.51035   1.64988   1.65120
  Beta virt. eigenvalues --    1.93559   2.11839   2.12537   2.13013   2.33109
  Beta virt. eigenvalues --    2.42709   2.43187   2.47804   2.48428   2.51602
  Beta virt. eigenvalues --    2.66393   2.88074   2.93442   2.94241   3.23077
  Beta virt. eigenvalues --    3.25057   3.68894   3.69013   3.90309   5.08899
  Beta virt. eigenvalues --    5.10051   5.59175  23.87188  49.93446
          Condensed to atoms (all electrons):
               1          2          3          4          5          6
     1  C    5.108874   0.048656  -0.000226   0.377426   0.383679   0.377431
     2  O    0.048656   8.212172   0.242690  -0.001047  -0.000579  -0.001049
     3  H   -0.000226   0.242690   0.530010   0.000017  -0.000005   0.000017
     4  H    0.377426  -0.001047   0.000017   0.492267  -0.028681  -0.028590
     5  H    0.383679  -0.000579  -0.000005  -0.028681   0.482308  -0.028676
     6  H    0.377431  -0.001049   0.000017  -0.028590  -0.028676   0.492247
          Atomic-Atomic Spin Densities.
               1          2          3          4          5          6
     1  C   -0.000000  -0.000000   0.000000   0.000000   0.000000  -0.000000
     2  O   -0.000000   0.000000   0.000000   0.000000   0.000000  -0.000000
     3  H    0.000000   0.000000  -0.000000  -0.000000  -0.000000  -0.000000
     4  H    0.000000   0.000000  -0.000000   0.000000  -0.000000  -0.000000
     5  H    0.000000   0.000000  -0.000000  -0.000000   0.000000  -0.000000
     6  H   -0.000000  -0.000000  -0.000000  -0.000000  -0.000000   0.000000
 Mulliken charges and spin densities:
               1          2
     1  C   -0.295840  -0.000000
     2  O   -0.500841   0.000000
     3  H    0.227497  -0.000000
     4  H    0.188609   0.000000
     5  H    0.191953   0.000000
     6  H    0.188621   0.000000
 Sum of Mulliken charges =  -0.00000   0.00000
 Mulliken charges and spin densities with hydrogens summed into heavy atoms:
               1          2
     1  C    0.273344  -0.000000
     2  O   -0.273344   0.000000
 Electronic spatial extent (au):  <R**2>=            301.6584
 Charge=             -0.0000 electrons
 Dipole moment (field-independent basis, Debye):
    X=             -5.3156    Y=             -1.4916    Z=             -0.0003  Tot=              5.5210
 Quadrupole moment (field-independent basis, Debye-Ang):
   XX=             -7.9760   YY=            -12.1398   ZZ=            -14.3496
   XY=             -3.7865   XZ=              0.0002   YZ=              0.0001
 Traceless Quadrupole moment (field-independent basis, Debye-Ang):
   XX=              3.5125   YY=             -0.6513   ZZ=             -2.8612
   XY=             -3.7865   XZ=              0.0002   YZ=              0.0001
 Octapole moment (field-independent basis, Debye-Ang**2):
  XXX=            -13.3549  YYY=              0.9599  ZZZ=              0.0017  XYY=              3.2817
  XXY=             -7.9081  XXZ=              0.0007  XZZ=             -1.6851  YZZ=             -0.4331
  YYZ=             -0.0023  XYZ=             -0.0001
 Hexadecapole moment (field-independent basis, Debye-Ang**3):
 XXXX=           -304.3069 YYYY=            -20.2910 ZZZZ=            -21.1319 XXXY=            -15.8064
 XXXZ=             -0.0058 YYYX=             -2.8469 YYYZ=             -0.0003 ZZZX=             -0.0041
 ZZZY=              0.0007 XXYY=            -49.8802 XXZZ=            -59.2894 YYZZ=             -7.2390
 XXYZ=             -0.0004 YYXZ=              0.0057 ZZXY=              2.9598
 N-N= 2.458454648212D+01 E-N=-3.203467743073D+02  KE= 1.149609931897D+02
                          Isotropic Fermi Contact Couplings
        Atom                 a.u.       MegaHertz       Gauss      10(-4) cm-1
     1  C(13)             -0.00000      -0.00000      -0.00000      -0.00000
     2  O(17)              0.00000      -0.00000      -0.00000      -0.00000
     3  H(1)              -0.00000      -0.00000      -0.00000      -0.00000
     4  H(1)               0.00000       0.00000       0.00000       0.00000
     5  H(1)               0.00000       0.00000       0.00000       0.00000
     6  H(1)               0.00000       0.00000       0.00000       0.00000
 --------------------------------------------------------
       Center         ----  Spin Dipole Couplings  ----
                      3XX-RR        3YY-RR        3ZZ-RR
 --------------------------------------------------------
     1   Atom       -0.000000      0.000000      0.000000
     2   Atom        0.000000     -0.000000     -0.000000
     3   Atom       -0.000000      0.000000     -0.000000
     4   Atom        0.000000      0.000000     -0.000000
     5   Atom        0.000000     -0.000000      0.000000
     6   Atom        0.000000      0.000000     -0.000000
 --------------------------------------------------------
                        XY            XZ            YZ
 --------------------------------------------------------
     1   Atom        0.000000      0.000000     -0.000000
     2   Atom       -0.000000     -0.000001     -0.000000
     3   Atom       -0.000000     -0.000000     -0.000000
     4   Atom       -0.000000      0.000000      0.000000
     5   Atom        0.000000      0.000000      0.000000
     6   Atom       -0.000000     -0.000000     -0.000000
 --------------------------------------------------------


 ---------------------------------------------------------------------------------
              Anisotropic Spin Dipole Couplings in Principal Axis System
 ---------------------------------------------------------------------------------

       Atom             a.u.   MegaHertz   Gauss  10(-4) cm-1        Axes

              Baa    -0.0000    -0.000    -0.000    -0.000  0.9947 -0.0851 -0.0576
     1 C(13)  Bbb     0.0000     0.000     0.000     0.000  0.0316 -0.2798  0.9595
              Bcc     0.0000     0.000     0.000     0.000  0.0978  0.9563  0.2756
 
              Baa    -0.0000     0.000     0.000     0.000  0.6408  0.2670  0.7198
     2 O(17)  Bbb    -0.0000     0.000     0.000     0.000 -0.2977  0.9506 -0.0876
              Bcc     0.0000    -0.000    -0.000    -0.000  0.7076  0.1582 -0.6886
 
              Baa    -0.0000    -0.000    -0.000    -0.000  0.6714  0.1473  0.7263
     3 H(1)   Bbb     0.0000     0.000     0.000     0.000 -0.4025  0.8954  0.1906
              Bcc     0.0000     0.000     0.000     0.000 -0.6222 -0.4203  0.6604
 
              Baa    -0.0000    -0.000    -0.000    -0.000 -0.2655 -0.4735  0.8398
     4 H(1)   Bbb     0.0000     0.000     0.000     0.000  0.9608 -0.2023  0.1897
              Bcc     0.0000     0.000     0.000     0.000  0.0801  0.8572  0.5086
 
              Baa    -0.0000    -0.000    -0.000    -0.000 -0.1873  0.9822 -0.0168
     5 H(1)   Bbb     0.0000     0.000     0.000     0.000  0.9821  0.1869 -0.0218
              Bcc     0.0000     0.000     0.000     0.000  0.0183  0.0206  0.9996
 
              Baa    -0.0000    -0.000    -0.000    -0.000  0.3567  0.4416  0.8233
     6 H(1)   Bbb     0.0000     0.000     0.000     0.000  0.9321 -0.2281 -0.2814
              Bcc     0.0000     0.000     0.000     0.000  0.0635  0.8677 -0.4929
 

 ---------------------------------------------------------------------------------

 No NMR shielding tensors so no spin-rotation constants.
 Leave Link  601 at Mon Apr 21 18:44:27 2025, MaxMem=   536870912 cpu:               1.6 elap:               0.2
 (Enter /home/szhao/Apps/g16/l701.exe)
 ... and contract with generalized density number  0.
 Compute integral first derivatives.
 Leave Link  701 at Mon Apr 21 18:44:27 2025, MaxMem=   536870912 cpu:               1.1 elap:               0.2
 (Enter /home/szhao/Apps/g16/l702.exe)
 L702 exits ... SP integral derivatives will be done elsewhere.
 Leave Link  702 at Mon Apr 21 18:44:27 2025, MaxMem=   536870912 cpu:               0.4 elap:               0.1
 (Enter /home/szhao/Apps/g16/l703.exe)
 Integral derivatives from FoFJK, PRISM(SPDF).
 Compute integral first derivatives, UseDBF=F ICtDFT=           0.
 Calling FoFJK, ICntrl=      2127 FMM=F ISym2X=0 I1Cent= 0 IOpClX= 1 NMat=1 NMatS=1 NMatT=0.
 FoFJK:  IHMeth= 1 ICntrl=    2127 DoSepK=F KAlg= 0 I1Cent=           0 FoldK=F
 IRaf=         0 NMat=       1 IRICut=       1 DoRegI=T DoRafI=F ISym2E= 0 IDoP0=0 IntGTp=1.
 FoFCou: FMM=F IPFlag=           0 FMFlag=      100000 FMFlg1=         800
         NFxFlg=           0 DoJE=F BraDBF=F KetDBF=F FulRan=T
         wScrn=  0.000000 ICntrl=      2127 IOpCl=  1 I1Cent=           0 NGrid=           0
         NMat0=    1 NMatS0=      1 NMatT0=    0 NMatD0=    1 NMtDS0=    0 NMtDT0=    0
 Symmetry not used in FoFCou.
 Leave Link  703 at Mon Apr 21 18:44:28 2025, MaxMem=   536870912 cpu:               7.3 elap:               0.9
 (Enter /home/szhao/Apps/g16/l716.exe)
 Dipole        =-2.09133482D+00-5.86841453D-01-1.25952364D-04
 -------------------------------------------------------------------
 Center     Atomic                   Forces (Hartrees/Bohr)
 Number     Number              X              Y              Z
 -------------------------------------------------------------------
      1        6          -0.000000000   -0.000000000   -0.000000000
      2        8          -0.000000000   -0.000000000   -0.000000000
      3        1           0.000373015   -0.009140623    0.000000334
      4        1           0.025014767   -0.004926901    0.004767966
      5        1           0.025039194    0.008130264   -0.000003384
      6        1           0.025003637   -0.004942804   -0.004769522
 -------------------------------------------------------------------
 Cartesian Forces:  Max     0.025039194 RMS     0.010857308
 Leave Link  716 at Mon Apr 21 18:44:29 2025, MaxMem=   536870912 cpu:               0.5 elap:               0.4
 (Enter /home/szhao/Apps/g16/l103.exe)

 GradGradGradGradGradGradGradGradGradGradGradGradGradGradGradGradGradGrad
 Berny optimization.
 FormGI is forming the generalized inverse of G from B-inverse, IUseBI=4.
 Internal  Forces:  Max     0.075057598 RMS     0.022381924
 Search for a local minimum.
 Step number   1 out of a maximum of   30
 All quantities printed in internal units (Hartrees-Bohrs-Radians)
 RMS Force = .17498D-01 SwitMx=.10000D-02 MixMth= 1
 Mixed Optimization -- RFO/linear search
 Second derivative matrix not updated -- first step.
 The second derivative matrix:
                          X1        Y1        Z1        X2        Y2
           X1           0.50000
           Y1           0.00000   0.50000
           Z1           0.00000   0.00000   0.50000
           X2           0.00000   0.00000   0.00000   0.50000
           Y2           0.00000   0.00000   0.00000   0.00000   0.50000
           Z2           0.00000   0.00000   0.00000   0.00000   0.00000
           R1           0.00000   0.00000   0.00000   0.00000   0.00000
           R2           0.00000   0.00000   0.00000   0.00000   0.00000
           R3           0.00000   0.00000   0.00000   0.00000   0.00000
           R4           0.00000   0.00000   0.00000   0.00000   0.00000
           A1           0.00000   0.00000   0.00000   0.00000   0.00000
           A2           0.00000   0.00000   0.00000   0.00000   0.00000
           A3           0.00000   0.00000   0.00000   0.00000   0.00000
           A4           0.00000   0.00000   0.00000   0.00000   0.00000
           A5           0.00000   0.00000   0.00000   0.00000   0.00000
           A6           0.00000   0.00000   0.00000   0.00000   0.00000
           A7           0.00000   0.00000   0.00000   0.00000   0.00000
           D1           0.00000   0.00000   0.00000   0.00000   0.00000
           D2           0.00000   0.00000   0.00000   0.00000   0.00000
           D3           0.00000   0.00000   0.00000   0.00000   0.00000
                          Z2        R1        R2        R3        R4
           Z2           0.50000
           R1           0.00000   0.34246
           R2           0.00000   0.00000   0.34925
           R3           0.00000   0.00000   0.00000   0.34252
           R4           0.00000   0.00000   0.00000   0.00000   0.55746
           A1           0.00000   0.00000   0.00000   0.00000   0.00000
           A2           0.00000   0.00000   0.00000   0.00000   0.00000
           A3           0.00000   0.00000   0.00000   0.00000   0.00000
           A4           0.00000   0.00000   0.00000   0.00000   0.00000
           A5           0.00000   0.00000   0.00000   0.00000   0.00000
           A6           0.00000   0.00000   0.00000   0.00000   0.00000
           A7           0.00000   0.00000   0.00000   0.00000   0.00000
           D1           0.00000   0.00000   0.00000   0.00000   0.00000
           D2           0.00000   0.00000   0.00000   0.00000   0.00000
           D3           0.00000   0.00000   0.00000   0.00000   0.00000
                          A1        A2        A3        A4        A5
           A1           0.16000
           A2           0.00000   0.16000
           A3           0.00000   0.00000   0.16000
           A4           0.00000   0.00000   0.00000   0.16000
           A5           0.00000   0.00000   0.00000   0.00000   0.16000
           A6           0.00000   0.00000   0.00000   0.00000   0.00000
           A7           0.00000   0.00000   0.00000   0.00000   0.00000
           D1           0.00000   0.00000   0.00000   0.00000   0.00000
           D2           0.00000   0.00000   0.00000   0.00000   0.00000
           D3           0.00000   0.00000   0.00000   0.00000   0.00000
                          A6        A7        D1        D2        D3
           A6           0.16000
           A7           0.00000   0.16000
           D1           0.00000   0.00000   0.00230
           D2           0.00000   0.00000   0.00000   0.00230
           D3           0.00000   0.00000   0.00000   0.00000   0.00230
 ITU=  0
     Eigenvalues ---    0.00230   0.09412   0.10080   0.16000   0.16000
     Eigenvalues ---    0.16000   0.16000   0.34246   0.34252   0.34925
     Eigenvalues ---    0.557461000.000001000.000001000.000001000.00000
     Eigenvalues --- 1000.000001000.000001000.000001000.000001000.00000
 RFO step:  Lambda=-2.31119211D-02 EMin= 2.30000000D-03
 Linear search not attempted -- first point.
 Maximum step size (   0.300) exceeded in Quadratic search.
    -- Step size scaled by   0.847
 Iteration  1 RMS(Cart)=  0.09665920 RMS(Int)=  0.00862442
 Iteration  2 RMS(Cart)=  0.00871529 RMS(Int)=  0.00508674
 Iteration  3 RMS(Cart)=  0.00013642 RMS(Int)=  0.00508605
 Iteration  4 RMS(Cart)=  0.00000255 RMS(Int)=  0.00508605
 Iteration  5 RMS(Cart)=  0.00000005 RMS(Int)=  0.00508605
 ITry= 1 IFail=0 DXMaxC= 2.53D-01 DCOld= 1.00D+10 DXMaxT= 3.00D-01 DXLimC= 3.00D+00 Rises=F
 Variable       Old X    -DE/DX   Delta X   Delta X   Delta X     New X
                                 (Linear)    (Quad)   (Total)
    X1       -3.65133   0.07506   0.00000   0.00000   0.00000  -3.65133
    Y1        0.00000  -0.00101   0.00000   0.00000   0.00000   0.00000
    Z1        0.00000  -0.00000   0.00000   0.00000   0.00000   0.00000
    X2        3.65133   0.00037   0.00000   0.00000   0.00000   3.65133
    Y2        0.00000  -0.00987   0.00000   0.00000   0.00000   0.00000
    Z2        0.00000  -0.00000   0.00000   0.00000   0.00000   0.00000
    R1        2.06916  -0.00332   0.00000  -0.00770  -0.00770   2.06146
    R2        2.05797   0.00052   0.00000   0.00118   0.00118   2.05915
    R3        2.06907  -0.00329   0.00000  -0.00763  -0.00763   2.06144
    R4        1.81175   0.00877   0.00000   0.01279   0.01279   1.82454
    A1        1.95552  -0.02563   0.00000  -0.12017  -0.12800   1.82752
    A2        1.86511  -0.02644   0.00000  -0.11915  -0.12666   1.73845
    A3        1.95494  -0.02562   0.00000  -0.12012  -0.12795   1.82698
    A4        1.89161   0.02699   0.00000   0.12787   0.11753   2.00914
    A5        1.90265   0.02627   0.00000   0.11607   0.10493   2.00757
    A6        1.89170   0.02698   0.00000   0.12786   0.11752   2.00922
    A7        1.90026  -0.00472   0.00000  -0.02182  -0.02182   1.87844
    D1        1.07305  -0.00183   0.00000  -0.01325  -0.01292   1.06012
    D2       -3.14071  -0.00001   0.00000  -0.00005  -0.00005  -3.14076
    D3       -1.07150   0.00184   0.00000   0.01328   0.01295  -1.05855
         Item               Value     Threshold  Converged?
 Maximum Force            0.026990     0.000450     NO 
 RMS     Force            0.017498     0.000300     NO 
 Maximum Displacement     0.253377     0.001800     NO 
 RMS     Displacement     0.102605     0.001200     NO 
 Predicted change in Energy=-1.222140D-02
 Lowest energy point so far.  Saving SCF results.
 GradGradGradGradGradGradGradGradGradGradGradGradGradGradGradGradGradGrad

 Leave Link  103 at Mon Apr 21 18:44:29 2025, MaxMem=   536870912 cpu:               0.3 elap:               0.1
 (Enter /home/szhao/Apps/g16/l202.exe)
                          Input orientation:                          
 ---------------------------------------------------------------------
 Center     Atomic      Atomic             Coordinates (Angstroms)
 Number     Number       Type             X           Y           Z
 ---------------------------------------------------------------------
      1          6           0       -1.932203    0.000000    0.000000
      2          8           0        1.932203    0.000000    0.000000
      3          1           0        2.224572   -0.920174    0.000002
      4          1           0       -2.209193   -0.515707    0.920511
      5          1           0       -2.114036    1.074374   -0.000899
      6          1           0       -2.208621   -0.517227   -0.919815
[...]
           D1          -0.00056   0.00485  -0.00004  -0.00057  -0.00249
           D2           0.00007   0.00009  -0.00000  -0.00001  -0.00006
           D3           0.00057  -0.00490   0.00004   0.00057   0.00250
                          Z2        R1        R2        R3        R4
           Z2           0.50000
           R1           0.00003   0.36365
           R2           0.00004   0.02218   0.37362
           R3           0.00003   0.02117   0.02217   0.36367
           R4           0.00001   0.00429   0.00766   0.00431   0.56540
           A1          -0.00001   0.00138   0.00513   0.00141   0.00346
           A2          -0.00002  -0.03959  -0.05269  -0.03967  -0.01495
           A3          -0.00001   0.00159   0.00542   0.00162   0.00356
           A4          -0.00000   0.00816   0.01374   0.00821   0.00966
           A5           0.00000  -0.01585  -0.01804  -0.01586   0.00151
           A6          -0.00000   0.00843   0.01408   0.00847   0.00975
           A7          -0.00000   0.00666   0.00972   0.00668   0.00331
           D1           0.00000   0.00633   0.00795   0.00634   0.00132
           D2           0.00000   0.00016   0.00021   0.00016   0.00006
           D3          -0.00000  -0.00631  -0.00792  -0.00632  -0.00131
                          A1        A2        A3        A4        A5
           A1           0.12996
           A2           0.00162   0.14956
           A3          -0.03020   0.00166   0.12965
           A4          -0.00208   0.00687  -0.00213   0.16853
           A5           0.01194  -0.00615   0.01202   0.01714   0.16643
           A6          -0.00224   0.00702  -0.00229   0.00844   0.01726
           A7           0.00875  -0.02115   0.00894  -0.00354   0.00650
           D1          -0.00108  -0.00276  -0.00107  -0.00286  -0.00117
           D2          -0.00006  -0.00004  -0.00006  -0.00003   0.00003
           D3           0.00104   0.00283   0.00103   0.00284   0.00121
                          A6        A7        D1        D2        D3
           A6           0.16834
           A7          -0.00364   0.01945
           D1          -0.00287  -0.00075   0.00294
           D2          -0.00003  -0.00004   0.00001   0.00230
           D3           0.00286   0.00071  -0.00064  -0.00001   0.00295
 ITU=  0  1  1  1  1  1  1  1  0
     Eigenvalues ---    0.00230   0.01416   0.08997   0.10918   0.12011
     Eigenvalues ---    0.14138   0.16000   0.34249   0.34748   0.43304
     Eigenvalues ---    0.567271000.000001000.000001000.000001000.00000
     Eigenvalues --- 1000.000001000.000001000.000001000.000001000.00000
 En-DIIS/RFO-DIIS/Sim-DIIS IScMMF=       -3 using points:     9    8    7
 RFO step:  Lambda=-9.53688444D-08.
 NNeg= 0 NGDIIS= 3 SimSw=  2.50D-01 Rises=F DC= -2.29D-07 SmlDif=  1.00D-05
 NRisDI= 0 DoIntr=F SqrtH=F CThrHd= 10.0 CDAdj=  3.0
 RMS Error=  0.2407395318D-03 NUsed= 3 OKEnD=F EnDIS=F
 InvSVX:  RCond= 1.02D-06 Info=           0 Equed=N FErr=  2.44D-15 BErr=  8.16D-17
 DidBck=F Rises=F RFO-DIIS coefs:    1.31500   -0.28032   -0.03468
 Iteration  1 RMS(Cart)=  0.00040829 RMS(Int)=  0.00000017
 Iteration  2 RMS(Cart)=  0.00000012 RMS(Int)=  0.00000012
 ITry= 1 IFail=0 DXMaxC= 1.21D-03 DCOld= 1.00D+10 DXMaxT= 8.49D-01 DXLimC= 3.00D+00 Rises=F
 Variable       Old X    -DE/DX   Delta X   Delta X   Delta X     New X
                                 (Linear)    (Quad)   (Total)
    X1       -3.65133   0.00002   0.00000   0.00000   0.00000  -3.65133
    Y1        0.00000  -0.00002   0.00000   0.00000   0.00000   0.00000
    Z1        0.00000   0.00000   0.00000   0.00000   0.00000   0.00000
    X2        3.65133   0.00001   0.00000   0.00000   0.00000   3.65133
    Y2        0.00000  -0.00001   0.00000   0.00000   0.00000   0.00000
    Z2        0.00000  -0.00000   0.00000   0.00000   0.00000   0.00000
    R1        2.04375   0.00001  -0.00017   0.00010  -0.00006   2.04369
    R2        2.04389   0.00001  -0.00023   0.00013  -0.00010   2.04379
    R3        2.04375   0.00001  -0.00017   0.00010  -0.00006   2.04369
    R4        1.82511   0.00000  -0.00005   0.00003  -0.00002   1.82509
    A1        1.63105   0.00002   0.00024  -0.00005   0.00019   1.63124
    A2        1.47381  -0.00009   0.00009  -0.00067  -0.00058   1.47323
    A3        1.63096   0.00002   0.00024  -0.00005   0.00019   1.63115
    A4        2.09260   0.00001   0.00010   0.00004   0.00013   2.09273
    A5        2.09766  -0.00002  -0.00021  -0.00006  -0.00027   2.09740
    A6        2.09259   0.00001   0.00010   0.00004   0.00014   2.09273
    A7        1.63955   0.00003   0.00052   0.00014   0.00067   1.64022
    D1        1.05196  -0.00001  -0.00005   0.00002  -0.00003   1.05193
    D2        3.14156   0.00000   0.00003   0.00005   0.00008  -3.14154
    D3       -1.05203   0.00001   0.00011   0.00009   0.00020  -1.05183
         Item               Value     Threshold  Converged?
 Maximum Force            0.000095     0.000450     YES
 RMS     Force            0.000029     0.000300     YES
 Maximum Displacement     0.001210     0.001800     YES
 RMS     Displacement     0.000408     0.001200     YES
 Predicted change in Energy=-4.736449D-08
 Optimization completed.
    -- Stationary point found.
                           ----------------------------
                           !   Optimized Parameters   !
                           ! (Angstroms and Degrees)  !
 --------------------------                            --------------------------
 ! Name  Definition              Value          Derivative Info.                !
 --------------------------------------------------------------------------------
 ! X1    R(1,-1)                -1.9322         -DE/DX =    0.0                 !
 ! Y1    R(1,-2)                 0.0            -DE/DX =    0.0                 !
 ! Z1    R(1,-3)                 0.0            -DE/DX =    0.0                 !
 ! X2    R(2,-1)                 1.9322         -DE/DX =    0.0                 !
 ! Y2    R(2,-2)                 0.0            -DE/DX =    0.0                 !
 ! Z2    R(2,-3)                 0.0            -DE/DX =    0.0                 !
 ! R1    R(1,4)                  1.0815         -DE/DX =    0.0                 !
 ! R2    R(1,5)                  1.0816         -DE/DX =    0.0                 !
 ! R3    R(1,6)                  1.0815         -DE/DX =    0.0                 !
 ! R4    R(2,3)                  0.9658         -DE/DX =    0.0                 !
 ! A1    A(2,1,4)               93.4524         -DE/DX =    0.0                 !
 ! A2    A(2,1,5)               84.4433         -DE/DX =   -0.0001              !
 ! A3    A(2,1,6)               93.4473         -DE/DX =    0.0                 !
 ! A4    A(4,1,5)              119.8971         -DE/DX =    0.0                 !
 ! A5    A(4,1,6)              120.1872         -DE/DX =    0.0                 !
 ! A6    A(5,1,6)              119.8968         -DE/DX =    0.0                 !
 ! A7    A(1,2,3)               93.9396         -DE/DX =    0.0                 !
 ! D1    D(4,1,2,3)             60.2729         -DE/DX =    0.0                 !
 ! D2    D(5,1,2,3)           -180.0021         -DE/DX =    0.0                 !
 ! D3    D(6,1,2,3)            -60.277          -DE/DX =    0.0                 !
 --------------------------------------------------------------------------------
 Lowest energy point so far.  Saving SCF results.
 Largest change from initial coordinates is atom    5       0.352 Angstoms.
 GradGradGradGradGradGradGradGradGradGradGradGradGradGradGradGradGradGrad

 Leave Link  103 at Mon Apr 21 18:46:08 2025, MaxMem=   536870912 cpu:               0.3 elap:               0.1
 (Enter /home/szhao/Apps/g16/l202.exe)
                          Input orientation:                          
 ---------------------------------------------------------------------
 Center     Atomic      Atomic             Coordinates (Angstroms)
 Number     Number       Type             X           Y           Z
 ---------------------------------------------------------------------
      1          6           0       -1.932203    0.000000    0.000000
      2          8           0        1.932203    0.000000    0.000000
      3          1           0        1.998558   -0.963525    0.000613
      4          1           0       -1.997330   -0.534716    0.937812
      5          1           0       -1.827472    1.076500   -0.000646
      6          1           0       -1.997235   -0.535845   -0.937174
 ---------------------------------------------------------------------
                    Distance matrix (angstroms):
                    1          2          3          4          5
     1  C    0.000000
     2  O    3.864405   0.000000
     3  H    4.047130   0.965807   0.000000
     4  H    1.081506   4.075124   4.126662   0.000000
     5  H    1.081582   3.910755   4.335921   1.872317   0.000000
     6  H    1.081506   4.075034   4.126586   1.874987   1.872314
                    6
     6  H    0.000000
 Symmetry turned off by external request.
 Stoichiometry    CH4O
 Framework group  C1[X(CH4O)]
 Deg. of freedom    12
 Full point group                 C1      NOp   1
 Rotational constants (GHZ):         114.8534935           4.1671562           4.1379115
 Leave Link  202 at Mon Apr 21 18:46:09 2025, MaxMem=   536870912 cpu:               0.1 elap:               0.0
 (Enter /home/szhao/Apps/g16/l601.exe)
 Copying SCF densities to generalized density rwf, IOpCl= 1 IROHF=0.

 **********************************************************************

            Population analysis using the SCF density.

 **********************************************************************

 Alpha  occ. eigenvalues --  -19.58279 -10.67236  -1.00740  -0.85164  -0.57249
 Alpha  occ. eigenvalues --   -0.57078  -0.45273  -0.32235  -0.27220
 Alpha virt. eigenvalues --   -0.17826   0.00282   0.03572   0.03801   0.06889
 Alpha virt. eigenvalues --    0.13099   0.14498   0.14652   0.18771   0.22661
 Alpha virt. eigenvalues --    0.23071   0.24987   0.28354   0.38861   0.39052
 Alpha virt. eigenvalues --    0.45197   0.54952   0.58584   0.59341   0.60228
 Alpha virt. eigenvalues --    0.73501   1.02688   1.02771   1.09644   1.13917
 Alpha virt. eigenvalues --    1.16248   1.37512   1.40175   1.40194   1.43320
 Alpha virt. eigenvalues --    1.44941   1.45686   1.48976   1.64183   1.88732
 Alpha virt. eigenvalues --    1.88886   1.91007   1.91027   2.12796   2.37615
 Alpha virt. eigenvalues --    2.41149   2.41369   2.53308   2.59723   2.59734
 Alpha virt. eigenvalues --    2.69566   2.73159   2.96085   2.96647   3.24740
 Alpha virt. eigenvalues --    3.26506   3.68285   3.68543   3.91829   5.11916
 Alpha virt. eigenvalues --    5.12258   5.59724  23.87573  49.95992
  Beta  occ. eigenvalues --  -19.58279 -10.67236  -1.00740  -0.85164  -0.57249
  Beta  occ. eigenvalues --   -0.57078  -0.45273  -0.32235  -0.27220
  Beta virt. eigenvalues --   -0.17826   0.00282   0.03572   0.03801   0.06889
  Beta virt. eigenvalues --    0.13099   0.14498   0.14652   0.18771   0.22661
  Beta virt. eigenvalues --    0.23071   0.24987   0.28354   0.38861   0.39052
  Beta virt. eigenvalues --    0.45197   0.54952   0.58584   0.59341   0.60228
  Beta virt. eigenvalues --    0.73501   1.02688   1.02771   1.09644   1.13917
  Beta virt. eigenvalues --    1.16248   1.37512   1.40175   1.40194   1.43320
  Beta virt. eigenvalues --    1.44941   1.45686   1.48976   1.64183   1.88732
  Beta virt. eigenvalues --    1.88886   1.91007   1.91027   2.12796   2.37615
  Beta virt. eigenvalues --    2.41149   2.41369   2.53308   2.59723   2.59734
  Beta virt. eigenvalues --    2.69566   2.73159   2.96085   2.96647   3.24740
  Beta virt. eigenvalues --    3.26506   3.68285   3.68543   3.91829   5.11916
  Beta virt. eigenvalues --    5.12258   5.59724  23.87573  49.95992
          Condensed to atoms (all electrons):
               1          2          3          4          5          6
     1  C    5.077128   0.053340   0.000350   0.386105   0.388626   0.386105
     2  O    0.053340   8.276491   0.235367  -0.001143  -0.000847  -0.001144
     3  H    0.000350   0.235367   0.551142  -0.000006   0.000009  -0.000006
     4  H    0.386105  -0.001143  -0.000006   0.443790  -0.018469  -0.020233
     5  H    0.388626  -0.000847   0.000009  -0.018469   0.428488  -0.018468
     6  H    0.386105  -0.001144  -0.000006  -0.020233  -0.018468   0.443786
          Atomic-Atomic Spin Densities.
               1          2          3          4          5          6
     1  C    0.000000   0.000000   0.000000   0.000000   0.000000  -0.000000
     2  O    0.000000  -0.000000  -0.000000   0.000000   0.000000  -0.000000
     3  H    0.000000  -0.000000   0.000000   0.000000  -0.000000  -0.000000
     4  H    0.000000   0.000000   0.000000  -0.000000  -0.000000  -0.000000
     5  H    0.000000   0.000000  -0.000000  -0.000000  -0.000000   0.000000
     6  H   -0.000000  -0.000000  -0.000000  -0.000000   0.000000  -0.000000
 Mulliken charges and spin densities:
               1          2
     1  C   -0.291654   0.000000
     2  O   -0.562064  -0.000000
     3  H    0.213143  -0.000000
     4  H    0.209956   0.000000
     5  H    0.220660  -0.000000
     6  H    0.209959  -0.000000
 Sum of Mulliken charges =  -0.00000   0.00000
 Mulliken charges and spin densities with hydrogens summed into heavy atoms:
               1          2
     1  C    0.348921   0.000000
     2  O   -0.348921  -0.000000
 Electronic spatial extent (au):  <R**2>=            285.7824
 Charge=              0.0000 electrons
 Dipole moment (field-independent basis, Debye):
    X=             -6.5357    Y=             -1.5882    Z=              0.0010  Tot=              6.7259
 Quadrupole moment (field-independent basis, Debye-Ang):
   XX=            -13.1389   YY=            -11.5065   ZZ=            -13.9209
   XY=             -3.2574   XZ=              0.0020   YZ=             -0.0015
 Traceless Quadrupole moment (field-independent basis, Debye-Ang):
   XX=             -0.2835   YY=              1.3489   ZZ=             -1.0654
   XY=             -3.2574   XZ=              0.0020   YZ=             -0.0015
 Octapole moment (field-independent basis, Debye-Ang**2):
  XXX=            -17.9040  YYY=              1.2969  ZZZ=              0.0014  XYY=              1.6940
  XXY=             -7.0092  XXZ=              0.0047  XZZ=             -3.4218  YZZ=             -0.8062
  YYZ=             -0.0017  XYZ=             -0.0032
 Hexadecapole moment (field-independent basis, Debye-Ang**3):
 XXXX=           -337.7010 YYYY=            -19.8211 ZZZZ=            -20.6676 XXXY=             -9.6520
 XXXZ=              0.0052 YYYX=             -3.0411 YYYZ=             -0.0009 ZZZX=             -0.0059
 ZZZY=              0.0004 XXYY=            -48.9318 XXZZ=            -57.1645 YYZZ=             -7.0657
 XXYZ=             -0.0055 YYXZ=              0.0058 ZZXY=              3.2472
 N-N= 2.493411831416D+01 E-N=-3.211234950297D+02  KE= 1.149797102161D+02
                          Isotropic Fermi Contact Couplings
        Atom                 a.u.       MegaHertz       Gauss      10(-4) cm-1
     1  C(13)              0.00000       0.00000       0.00000       0.00000
     2  O(17)             -0.00000       0.00000       0.00000       0.00000
     3  H(1)               0.00000       0.00000       0.00000       0.00000
     4  H(1)              -0.00000      -0.00000      -0.00000      -0.00000
     5  H(1)              -0.00000      -0.00000      -0.00000      -0.00000
     6  H(1)              -0.00000      -0.00000      -0.00000      -0.00000
 --------------------------------------------------------
       Center         ----  Spin Dipole Couplings  ----
                      3XX-RR        3YY-RR        3ZZ-RR
 --------------------------------------------------------
     1   Atom        0.000000     -0.000000     -0.000000
     2   Atom       -0.000000      0.000000      0.000000
     3   Atom        0.000000     -0.000000      0.000000
     4   Atom       -0.000000     -0.000000      0.000000
     5   Atom       -0.000000      0.000000     -0.000000
     6   Atom        0.000000     -0.000000      0.000000
 --------------------------------------------------------
                        XY            XZ            YZ
 --------------------------------------------------------
     1   Atom       -0.000000      0.000000     -0.000000
     2   Atom       -0.000000     -0.000001     -0.000000
     3   Atom        0.000000     -0.000000      0.000000
     4   Atom        0.000000     -0.000000     -0.000000
     5   Atom        0.000000      0.000000      0.000000
     6   Atom       -0.000000     -0.000000      0.000000
 --------------------------------------------------------


 ---------------------------------------------------------------------------------
              Anisotropic Spin Dipole Couplings in Principal Axis System
 ---------------------------------------------------------------------------------

       Atom             a.u.   MegaHertz   Gauss  10(-4) cm-1        Axes

              Baa    -0.0000    -0.000    -0.000    -0.000 -0.3714  0.0013  0.9285
     1 C(13)  Bbb    -0.0000    -0.000    -0.000    -0.000  0.0868  0.9957  0.0333
              Bcc     0.0000     0.000     0.000     0.000  0.9244 -0.0930  0.3699
 
              Baa    -0.0000     0.000     0.000     0.000  0.7094  0.0452  0.7033
     2 O(17)  Bbb     0.0000    -0.000    -0.000    -0.000 -0.0630  0.9980 -0.0006
              Bcc     0.0000    -0.000    -0.000    -0.000 -0.7020 -0.0438  0.7109
 
              Baa    -0.0000    -0.000    -0.000    -0.000  0.7116 -0.0021  0.7026
     3 H(1)   Bbb    -0.0000    -0.000    -0.000    -0.000  0.0012  1.0000  0.0018
              Bcc     0.0000     0.000     0.000     0.000 -0.7026 -0.0005  0.7116
 
              Baa    -0.0000    -0.000    -0.000    -0.000 -0.3915  0.9057  0.1623
     4 H(1)   Bbb    -0.0000    -0.000    -0.000    -0.000  0.7588  0.2180  0.6138
              Bcc     0.0000     0.000     0.000     0.000 -0.5205 -0.3635  0.7726
 
              Baa    -0.0000    -0.000    -0.000    -0.000 -0.0500 -0.0655  0.9966
     5 H(1)   Bbb    -0.0000    -0.000    -0.000    -0.000  0.9934 -0.1062  0.0428
              Bcc     0.0000     0.000     0.000     0.000  0.1030  0.9922  0.0704
 
              Baa    -0.0000    -0.000    -0.000    -0.000  0.0835  0.8444 -0.5292
     6 H(1)   Bbb    -0.0000    -0.000    -0.000    -0.000  0.8371  0.2287  0.4969
              Bcc     0.0000     0.000     0.000     0.000 -0.5406  0.4845  0.6878
 

 ---------------------------------------------------------------------------------

 No NMR shielding tensors so no spin-rotation constants.
 Leave Link  601 at Mon Apr 21 18:46:09 2025, MaxMem=   536870912 cpu:               1.6 elap:               0.2
 (Enter /home/szhao/Apps/g16/l9999.exe)
 1\1\GINC-NODE06\FOpt\UM062X\6-311+G(d,p)\C1H4O1\SZHAO\21-Apr-2025\0\\#
 p opt UM062X/6-311+G** nosymm int=superfine\\Title Card Required\\0,1\
 C,-1.93220268,0.,0.\O,1.93220268,0.,0.\H,1.9985577024,-0.9635248832,0.
 000613403\H,-1.9973299553,-0.5347156823,0.9378122418\H,-1.8274724132,1
 .0764995358,-0.0006458734\H,-1.9972349786,-0.5358452458,-0.9371739443\
 \Version=ES64L-G16RevA.03\HF=-115.4650641\S2=0.\S2-1=0.\S2A=0.\RMSD=4.
 049e-09\RMSF=1.388e-05\Dipole=-2.5713396,-0.6248508,0.0003916\Quadrupo
 le=-0.2107387,1.0028699,-0.7921312,-2.4217982,0.0014827,-0.0011376\PG=
 C01 [X(C1H4O1)]\\@


 THERE IS NO SUBJECT, HOWEVER COMPLEX,
 WHICH, IF STUDIED WITH PATIENCE AND INTELLIGIENCE
 WILL NOT BECOME
 MORE COMPLEX
                        QUOTED BY D. GORDON ROHMAN
 Job cpu time:       0 days  0 hours 14 minutes  0.3 seconds.
 Elapsed time:       0 days  0 hours  1 minutes 55.4 seconds.
 File lengths (MBytes):  RWF=     22 Int=      0 D2E=      0 Chk=      2 Scr=      2
 Normal termination of Gaussian 16 at Mon Apr 21 18:46:10 2025.
