Title Card Required                                                     
FOpt      UM062X                                                      6-311+G(d,p)        
Number of atoms                            I                4
Info1-9                                    I   N=           9
          13          13           0           0           0         110
           2          18        -502
Full Title                                 C   N=           2
Title Card Required     
Route                                      C   N=           4
#p opt UM062X/6-311+G** nosymm int=superfine    
Charge                                     I                0
Multiplicity                               I                1
Number of electrons                        I               14
Number of alpha electrons                  I                7
Number of beta electrons                   I                7
Number of basis functions                  I               56
Number of independent functions            I               56
Number of point charges in /Mol/           I                0
Number of translation vectors              I                0
Atomic numbers                             I   N=           4
           6           6           1           1
Nuclear charges                            R   N=           4
  6.00000000E+00  6.00000000E+00  1.00000000E+00  1.00000000E+00
Current cartesian coordinates              R   N=          12
 -2.75451204E+00  0.00000000E+00  0.00000000E+00  2.75451204E+00  0.00000000E+00
  0.00000000E+00 -2.58572386E+00 -1.69887458E-01  2.09759346E+00  2.58607406E+00
  1.72903533E+00 -1.19970021E+00
Number of symbols in /Mol/                 I                0
Force Field                                I                0
Atom Types                                 C   N=           4
                                                
Int Atom Types                             I   N=           4
           0           0           0           0
MM charges                                 R   N=           4
  0.00000000E+00  0.00000000E+00  0.00000000E+00  0.00000000E+00
Integer atomic weights                     I   N=           4
          12          12           1           1
Real atomic weights                        R   N=           4
  1.20000000E+01  1.20000000E+01  1.00782504E+00  1.00782504E+00
Atom fragment info                         I   N=           4
           0           0           0           0
Atom residue num                           I   N=           4
           0           0           0           0
Nuclear spins                              I   N=           4
           0           0           1           1
Nuclear ZEff                               R   N=           4
 -3.60000000E+00 -3.60000000E+00 -1.00000000E+00 -1.00000000E+00
Nuclear ZNuc                               R   N=           4
  6.00000000E+00  6.00000000E+00  1.00000000E+00  1.00000000E+00
Nuclear QMom                               R   N=           4
  0.00000000E+00  0.00000000E+00  0.00000000E+00  0.00000000E+00
Nuclear GFac                               R   N=           4
  0.00000000E+00  0.00000000E+00  2.79284600E+00  2.79284600E+00
MicOpt                                     I   N=           4
          -2          -2          -1          -1
Number of residues                         I                0
Number of secondary structures             I                0
Redundant internal dimensions              I   N=           4
          11           8           2           1
Redundant internal coordinate indices      I   N=          44
           1          -1           0           0           1          -2
           0           0           1          -3           0           0
           2          -1           0           0           2          -2
           0           0           2          -3           0           0
           1           3           0           0           2           4
           0           0           2           1           3           0
           1           2           4           0           3           1
           2           4
Redundant internal coordinates             R   N=          11
 -2.75451204E+00  0.00000000E+00  0.00000000E+00  2.75451204E+00  0.00000000E+00
  0.00000000E+00  2.11121991E+00  2.11121177E+00  1.49076273E+00  1.49092883E+00
 -2.25820157E+00
ZRed-IntVec                                I   N=          11
          -1          -1          -1          -1          -1          -1
           0           0           0           0           0
ZRed-FPVec                                 R   N=          11
  0.00000000E+00  0.00000000E+00  0.00000000E+00  0.00000000E+00  0.00000000E+00
  0.00000000E+00  0.00000000E+00  0.00000000E+00  0.00000000E+00  0.00000000E+00
  0.00000000E+00
ZRed-Constraint1                           R   N=          11
 -2.75451204E+00  0.00000000E+00  0.00000000E+00  2.75451204E+00  0.00000000E+00
  0.00000000E+00  2.11079913E+00  2.11070705E+00  1.67217611E+00  1.67276462E+00
 -1.65242814E+00
ZRed-Constraint2                           R   N=          11
 -2.75451204E+00  0.00000000E+00  0.00000000E+00  2.75451204E+00  0.00000000E+00
  0.00000000E+00  0.00000000E+00  0.00000000E+00  0.00000000E+00  0.00000000E+00
  0.00000000E+00
Number of contracted shells                I               20
Number of primitive shells                 I               38
Pure/Cartesian d shells                    I                0
Pure/Cartesian f shells                    I                0
Highest angular momentum                   I                2
Largest degree of contraction              I                6
Shell types                                I   N=          20
           0          -1          -1          -1          -1          -2
           0          -1          -1          -1          -1          -2
           0           0           0           1           0           0
           0           1
Number of primitives per shell             I   N=          20
           6           3           1           1           1           1
           6           3           1           1           1           1
           3           1           1           1           3           1
           1           1
Shell to atom map                          I   N=          20
           1           1           1           1           1           1
           2           2           2           2           2           2
           3           3           3           3           4           4
           4           4
Primitive exponents                        R   N=          38
  4.56324000E+03  6.82024000E+02  1.54973000E+02  4.44553000E+01  1.30290000E+01
  1.82773000E+00  2.09642000E+01  4.80331000E+00  1.45933000E+00  4.83456000E-01
  1.45585000E-01  4.38000000E-02  6.26000000E-01  4.56324000E+03  6.82024000E+02
  1.54973000E+02  4.44553000E+01  1.30290000E+01  1.82773000E+00  2.09642000E+01
  4.80331000E+00  1.45933000E+00  4.83456000E-01  1.45585000E-01  4.38000000E-02
  6.26000000E-01  3.38650000E+01  5.09479000E+00  1.15879000E+00  3.25840000E-01
  1.02741000E-01  7.50000000E-01  3.38650000E+01  5.09479000E+00  1.15879000E+00
  3.25840000E-01  1.02741000E-01  7.50000000E-01
Contraction coefficients                   R   N=          38
  1.96665025E-03  1.52306019E-02  7.61269097E-02  2.60801033E-01  6.16462078E-01
  2.21006028E-01  1.14660081E-01  9.19999648E-01 -3.03068213E-03  1.00000000E+00
  1.00000000E+00  1.00000000E+00  1.00000000E+00  1.96665025E-03  1.52306019E-02
  7.61269097E-02  2.60801033E-01  6.16462078E-01  2.21006028E-01  1.14660081E-01
  9.19999648E-01 -3.03068213E-03  1.00000000E+00  1.00000000E+00  1.00000000E+00
  1.00000000E+00  2.54938145E-02  1.90373109E-01  8.52161486E-01  1.00000000E+00
  1.00000000E+00  1.00000000E+00  2.54938145E-02  1.90373109E-01  8.52161486E-01
  1.00000000E+00  1.00000000E+00  1.00000000E+00
P(S=P) Contraction coefficients            R   N=          38
  0.00000000E+00  0.00000000E+00  0.00000000E+00  0.00000000E+00  0.00000000E+00
  0.00000000E+00  4.02486927E-02  2.37593957E-01  8.15853851E-01  1.00000000E+00
  1.00000000E+00  1.00000000E+00  0.00000000E+00  0.00000000E+00  0.00000000E+00
  0.00000000E+00  0.00000000E+00  0.00000000E+00  0.00000000E+00  4.02486927E-02
  2.37593957E-01  8.15853851E-01  1.00000000E+00  1.00000000E+00  1.00000000E+00
  0.00000000E+00  0.00000000E+00  0.00000000E+00  0.00000000E+00  0.00000000E+00
  0.00000000E+00  0.00000000E+00  0.00000000E+00  0.00000000E+00  0.00000000E+00
  0.00000000E+00  0.00000000E+00  0.00000000E+00
Coordinates of each shell                  R   N=          60
 -2.75451204E+00  0.00000000E+00  0.00000000E+00 -2.75451204E+00  0.00000000E+00
  0.00000000E+00 -2.75451204E+00  0.00000000E+00  0.00000000E+00 -2.75451204E+00
  0.00000000E+00  0.00000000E+00 -2.75451204E+00  0.00000000E+00  0.00000000E+00
 -2.75451204E+00  0.00000000E+00  0.00000000E+00  2.75451204E+00  0.00000000E+00
  0.00000000E+00  2.75451204E+00  0.00000000E+00  0.00000000E+00  2.75451204E+00
  0.00000000E+00  0.00000000E+00  2.75451204E+00  0.00000000E+00  0.00000000E+00
  2.75451204E+00  0.00000000E+00  0.00000000E+00  2.75451204E+00  0.00000000E+00
  0.00000000E+00 -2.58572386E+00 -1.69887458E-01  2.09759346E+00 -2.58572386E+00
 -1.69887458E-01  2.09759346E+00 -2.58572386E+00 -1.69887458E-01  2.09759346E+00
 -2.58572386E+00 -1.69887458E-01  2.09759346E+00  2.58607406E+00  1.72903533E+00
 -1.19970021E+00  2.58607406E+00  1.72903533E+00 -1.19970021E+00  2.58607406E+00
  1.72903533E+00 -1.19970021E+00  2.58607406E+00  1.72903533E+00 -1.19970021E+00
Num ILSW                                   I              100
ILSW                                       I   N=         100
           1           0           0           1           2           0
           0           0           0           0        4336          -1
           7           0           0           0           2           0
           0           0           0           0           1           0
           1           1           0           0           0           0
           0           0      100000           0          -1           0
           0           0           0           0           0           0
           0           0           0           1           0           0
           0 -2000000000           1           0           0           0
           0           0           4          52           0           0
           0           0          55           0           0           0
           0           0           0           4           0           1
           0           0           0           0           0           0
           0           0           0           0           0           0
           0           0           0           0           0           0
           0           0           0           0           0           0
           0           0           0           0
Num RLSW                                   I               52
RLSW                                       R   N=          52
  1.00000000E+00  1.00000000E+00  1.00000000E+00  1.00000000E+00  5.40000000E-01
  0.00000000E+00  0.00000000E+00  1.00000000E+00  0.00000000E+00  0.00000000E+00
  0.00000000E+00  0.00000000E+00  1.00000000E+00  0.00000000E+00  0.00000000E+00
  0.00000000E+00  0.00000000E+00  1.00000000E+00  0.00000000E+00  0.00000000E+00
  0.00000000E+00  0.00000000E+00  1.00000000E+00  0.00000000E+00  0.00000000E+00
  0.00000000E+00  0.00000000E+00  1.00000000E+00  0.00000000E+00  0.00000000E+00
  0.00000000E+00  0.00000000E+00  1.00000000E+00  0.00000000E+00  0.00000000E+00
  0.00000000E+00  0.00000000E+00  0.00000000E+00  1.00000000E+00  1.00000000E+00
  0.00000000E+00  1.00000000E+00  0.00000000E+00  0.00000000E+00  0.00000000E+00
  0.00000000E+00  0.00000000E+00  0.00000000E+00  0.00000000E+00  0.00000000E+00
  0.00000000E+00  0.00000000E+00
MxBond                                     I                2
NBond                                      I   N=           4
           2           2           1           1
IBond                                      I   N=           8
           2           3           1           4           1           0
           2           0
RBond                                      R   N=           8
  1.00000000E-01  1.00000000E+00  1.00000000E-01  1.00000000E+00  1.00000000E+00
  0.00000000E+00  1.00000000E+00  0.00000000E+00
Virial Ratio                               R      2.006142288663006E+00
SCF Energy                                 R     -7.692157559445315E+01
Total Energy                               R     -7.692157559445315E+01
S**2                                       R      1.953992523340276E-14
S**2 after annihilation                    R     -1.350031197944205E-13
RMS Force                                  R      4.966965756469045E-07
RMS Density                                R      4.468280257678945E-09
Job Status                                 I                1
Nuclear derivative order                   I                1
External E-field                           R   N=          35
  0.00000000E+00  0.00000000E+00  0.00000000E+00  0.00000000E+00  0.00000000E+00
  0.00000000E+00  0.00000000E+00  0.00000000E+00  0.00000000E+00  0.00000000E+00
  0.00000000E+00  0.00000000E+00  0.00000000E+00  0.00000000E+00  0.00000000E+00
  0.00000000E+00  0.00000000E+00  0.00000000E+00  0.00000000E+00  0.00000000E+00
  0.00000000E+00  0.00000000E+00  0.00000000E+00  0.00000000E+00  0.00000000E+00
  0.00000000E+00  0.00000000E+00  0.00000000E+00  0.00000000E+00  0.00000000E+00
  0.00000000E+00  0.00000000E+00  0.00000000E+00  0.00000000E+00  0.00000000E+00
IOpCl                                      I                1
IROHF                                      I                0
Alpha Orbital Energies                     R   N=          56
 -1.06718729E+01 -1.06718440E+01 -7.32674130E-01 -7.12844189E-01 -3.88043635E-01
 -3.85089385E-01 -2.62588179E-01 -1.03111817E-01 -9.01737180E-02 -8.37206027E-02
  3.14546631E-02  5.26576639E-02  7.35415272E-02  7.52614204E-02  9.72037837E-02
  9.98580047E-02  1.06797830E-01  1.47628470E-01  1.83273112E-01  1.91263508E-01
  4.43752279E-01  4.59701158E-01  5.57744408E-01  5.76222748E-01  5.90447309E-01
  6.06416419E-01  6.28020595E-01  6.32593156E-01  6.69814275E-01  8.17747096E-01
  1.13064165E+00  1.13124562E+00  1.14119603E+00  1.15662120E+00  1.33390866E+00
  1.34372858E+00  1.35077600E+00  1.43395810E+00  1.58314562E+00  1.61527468E+00
  1.85224233E+00  1.85889645E+00  1.87105480E+00  1.89770618E+00  2.39698666E+00
  2.40690620E+00  2.50511380E+00  2.54048788E+00  2.70141695E+00  2.71640944E+00
  2.72562804E+00  2.79139733E+00  3.18415136E+00  3.19299292E+00  2.35059056E+01
  2.35283478E+01
Beta Orbital Energies                      R   N=          56
 -1.06718729E+01 -1.06718440E+01 -7.32674130E-01 -7.12844189E-01 -3.88043635E-01
 -3.85089385E-01 -2.62588179E-01 -1.03111817E-01 -9.01737179E-02 -8.37206027E-02
  3.14546631E-02  5.26576639E-02  7.35415272E-02  7.52614204E-02  9.72037837E-02
  9.98580047E-02  1.06797830E-01  1.47628470E-01  1.83273112E-01  1.91263508E-01
  4.43752279E-01  4.59701158E-01  5.57744408E-01  5.76222748E-01  5.90447309E-01
  6.06416419E-01  6.28020595E-01  6.32593156E-01  6.69814275E-01  8.17747096E-01
  1.13064165E+00  1.13124562E+00  1.14119603E+00  1.15662120E+00  1.33390866E+00
  1.34372858E+00  1.35077600E+00  1.43395810E+00  1.58314562E+00  1.61527468E+00
  1.85224233E+00  1.85889645E+00  1.87105480E+00  1.89770618E+00  2.39698666E+00
  2.40690620E+00  2.50511380E+00  2.54048788E+00  2.70141695E+00  2.71640944E+00
  2.72562804E+00  2.79139733E+00  3.18415136E+00  3.19299292E+00  2.35059056E+01
  2.35283478E+01
Alpha MO coefficients                      R   N=        3136
  4.11227301E-01  3.38761622E-01  6.70880135E-04 -9.39169387E-05  1.17281768E-03
  6.82424104E-03 -1.89431832E-04 -7.58599211E-05  1.12034334E-03 -2.69364472E-03
  2.57610887E-04 -4.17385241E-05  9.67475656E-05  2.02923172E-04 -1.33699392E-04
  9.87567494E-05 -5.83183320E-04  8.14037896E-04  1.22491745E-04 -1.10592237E-04
 -1.64105316E-05 -2.13107860E-05  3.86051370E-01  3.18023731E-01 -6.35112373E-04
  9.05643022E-04 -6.27349704E-04  6.39030382E-03  1.92713855E-04  8.87496259E-04
 -5.97664419E-04 -2.47156418E-03 -2.85398810E-04  6.46691382E-05 -8.67873686E-05
  7.72703276E-05  1.88715546E-04 -4.38510557E-04  3.68742086E-04 -8.65681902E-06
  7.77886837E-05 -6.28465570E-04 -4.61143201E-04 -9.19738129E-05  2.56707483E-04
 -2.25571798E-03  1.79874399E-03  1.14579727E-04 -1.11896377E-04  1.45862644E-03
  2.46480096E-04 -2.16796842E-03  1.73133343E-03 -1.03952032E-04  1.14114869E-03
 -7.83962422E-04 -3.86053682E-01 -3.17999446E-01 -5.44131661E-04  9.06166520E-05
 -1.14784707E-03 -6.66241040E-03 -5.38159851E-05  6.57233776E-05 -8.00848599E-04
  3.43442403E-03  4.48142105E-04 -1.48347478E-05  4.60386687E-05 -1.98389604E-03
 -8.76604177E-04  5.06136286E-06  2.80440180E-04 -6.36045410E-04 -5.39023817E-05
  8.25138582E-05  9.77509961E-05  2.17950580E-06  4.11229440E-01  3.38738867E-01
 -5.85255739E-04  1.00653952E-03 -6.95556299E-04  7.07968147E-03 -4.15311558E-05
  7.17117646E-04 -4.97413723E-04 -3.59751099E-03  4.30955824E-04 -2.83226721E-05
  3.04705990E-05  1.99270362E-03 -8.66463067E-04 -2.73361471E-04  1.60028173E-04
  4.72156515E-05  3.37953198E-05 -5.17462010E-04 -4.67512422E-04 -5.12523977E-05
 -1.54021442E-04  1.32051795E-03 -1.01221468E-03 -1.61332654E-04  1.00312118E-04
 -1.19333649E-03  1.69907784E-04 -1.46029859E-03  1.12377274E-03 -1.68052716E-04
  1.05593428E-03 -7.36626604E-04 -7.64879213E-02 -1.23605059E-01  9.68916161E-03
 -3.31361600E-03  5.09307222E-02  3.51061291E-01  1.41334339E-02 -5.02370519E-03
  7.71500583E-02  2.46683609E-01  1.06357701E-02 -1.07623028E-04  3.03260844E-02
 -2.18418238E-04 -9.72488262E-04  7.57213144E-05  5.55909230E-04  9.59000269E-03
  1.83077603E-03 -9.55187065E-04 -2.19870393E-03  5.28057740E-05 -7.64894441E-02
 -1.23607470E-01 -9.68070123E-03  4.23906272E-02 -2.84284359E-02  3.51067291E-01
 -1.41219627E-02  6.42108820E-02 -4.30667060E-02  2.46689039E-01 -1.06314544E-02
  2.61776032E-02 -1.53140294E-02 -2.17334670E-04  9.72233216E-04  5.19220469E-04
 -2.13622702E-04  9.71262123E-04  8.70935450E-04 -6.73045546E-03 -7.17542584E-03
 -1.60717905E-03  9.96425225E-02  1.21824844E-01  1.47330853E-02 -1.28643212E-03
  1.38456015E-03 -1.46311871E-02  9.96447216E-02  1.21828170E-01  1.47321679E-02
  1.28400616E-03 -1.19608859E-02  8.54108292E-03 -7.70877203E-02 -1.24671095E-01
 -1.15279445E-03 -4.54191120E-03  5.68803904E-02  3.55466980E-01 -3.67874260E-03
 -6.79415268E-03  8.64696770E-02  2.49559247E-01 -2.51055478E-03 -1.84060641E-03
  3.35776157E-02 -1.53527732E-02 -8.07330875E-03 -7.62139466E-05 -6.13185398E-04
  1.17617003E-02  1.30566198E-03 -1.08330646E-03 -4.37965484E-03 -3.62538999E-04
  7.70857859E-02  1.24667926E-01 -1.16287470E-03 -4.69188106E-02  3.24757604E-02
 -3.55457237E-01 -3.69284825E-03 -7.13811380E-02  4.92737951E-02 -2.49552283E-01
 -2.51614523E-03 -2.81183253E-02  1.84436909E-02  1.53527078E-02 -8.07314136E-03
  5.68541815E-04 -2.41685243E-04 -2.21524280E-03 -9.66449846E-04  7.48013822E-03
  9.89193165E-03  9.44135928E-04  1.04939858E-01  1.30104735E-01  2.15276335E-02
 -2.60439610E-03  1.42424556E-03 -1.51327742E-02 -1.04939618E-01 -1.30104949E-01
 -2.15276391E-02 -2.60168530E-03  1.23743678E-02 -8.82687666E-03  4.39673562E-02
  7.25441032E-02  2.36892280E-02 -1.56587308E-02  1.50029092E-01 -2.14899415E-01
  3.48866458E-02 -2.27049602E-02  2.14924990E-01 -2.93805960E-01  3.13225547E-02
 -1.89711780E-02  1.46326979E-01 -5.26690784E-02 -1.35487074E-03 -2.55171206E-03
  8.59423561E-03  2.26170757E-02  6.44338914E-03 -3.53097822E-03  4.39934024E-03
 -1.40392449E-03 -4.39682386E-02 -7.25455718E-02  2.36594576E-02 -1.21917403E-01
  8.88497092E-02  2.14902788E-01  3.48431017E-02 -1.74516377E-01  1.27518103E-01
  2.93817043E-01  3.12890968E-02 -1.17052859E-01  8.98576180E-02  5.26687630E-02
 -1.35489884E-03 -6.15534391E-03  6.52288051E-03  2.95740060E-03 -4.44539008E-03
  2.06694345E-02  1.03696526E-02  4.86375045E-03  9.14871059E-02  1.62830202E-01
  1.14176407E-01  7.11323944E-04  5.71245650E-04 -6.50737778E-03 -9.14938274E-02
 -1.62843429E-01 -1.14177639E-01  7.11521024E-04  5.34236711E-03 -3.76047685E-03
 -3.93860853E-02 -6.49082083E-02  6.70811621E-04  1.00132548E-02 -1.57870609E-01
  1.89017558E-01  1.29283222E-03  1.42342177E-02 -2.25398603E-01  2.85132808E-01
  1.35173045E-02  7.36824617E-03 -1.51190639E-01  3.81774813E-02 -1.25543673E-03
  2.45420644E-04 -1.24080365E-02 -2.44953492E-02 -3.12959686E-03  3.20866252E-03
 -1.18632433E-03 -9.95503712E-04 -3.93848892E-02 -6.49062924E-02 -6.93905055E-04
 -1.31513875E-01  8.78869298E-02  1.89012209E-01 -1.32611262E-03 -1.87799016E-01
  1.25425835E-01  2.85122390E-01 -1.35373214E-02 -1.27061529E-01  8.22447044E-02
  3.81811313E-02  1.25120051E-03 -1.06084271E-02  6.43875065E-03  1.34831271E-03
 -7.06349668E-04  2.05240428E-02  1.37343508E-02  3.20159221E-03 -9.87440468E-02
 -1.81616859E-01 -1.07885553E-01  3.07996292E-03 -1.29330674E-03  8.35537691E-03
 -9.87371366E-02 -1.81605340E-01 -1.07880573E-01 -3.07771704E-03  6.57757553E-03
 -5.31178568E-03 -1.12299614E-02 -1.90330151E-02 -1.80103207E-01 -9.50845207E-03
  2.08619396E-03  6.48673113E-02 -2.69887679E-01 -1.33506620E-02  2.63577423E-03
  5.04325883E-02 -3.05232004E-01 -1.71353896E-02 -2.14885671E-03  7.13154021E-03
 -5.51833106E-02 -1.16373270E-02  1.01763986E-02  2.60646821E-03 -1.51715602E-02
 -4.74841091E-04 -9.12430486E-03  1.94161853E-04 -1.12313184E-02 -1.90353053E-02
  1.80106765E-01 -2.99274038E-03 -9.24566440E-03  6.48748203E-02  2.69891170E-01
 -4.45828264E-03 -1.28319044E-02  5.04439539E-02  3.05241679E-01 -1.04989131E-02
 -1.37025095E-02  7.11018183E-03  5.51977760E-02  2.95227579E-03 -1.51633722E-02
  5.94869725E-03 -7.78365663E-03  1.76878970E-03 -7.19004631E-03  1.30260097E-02
 -7.38948181E-05  9.48952917E-03 -5.88618496E-03 -1.67331178E-02 -6.24700038E-04
 -1.65252758E-03 -7.75320339E-05  9.48385986E-03 -5.89073698E-03  1.67324835E-02
 -1.74435560E-03  2.90905859E-04 -7.84723897E-04 -1.29506510E-03 -1.04423902E-02
  1.69055571E-01  3.83548493E-03  2.91539207E-03 -1.65911185E-02  2.64980345E-01
  6.11554556E-03  1.26207888E-02 -1.78820947E-02  2.93453833E-01  1.96638661E-02
  3.28380008E-02  5.87449883E-04  1.42737695E-01  1.93743315E-02  4.03658569E-05
  1.40411720E-03  1.36441597E-02  2.32787887E-04  3.67924578E-03 -7.84592480E-04
 -1.29492887E-03  1.04439302E-02  8.81582820E-02  1.44289142E-01  2.91467398E-03
  1.65929116E-02  1.38270652E-01  2.26109309E-01  1.26242825E-02  1.78852918E-02
  1.64281637E-01  2.43935210E-01  3.28449916E-02 -5.87996075E-04  8.83956908E-02
  1.13731918E-01 -1.04143311E-02 -2.47613954E-03  6.63911025E-03 -5.80294621E-03
 -3.06021413E-03 -7.01266596E-03 -9.47195624E-03 -3.56911721E-02  9.51571920E-04
  1.61938822E-02  2.57510055E-03 -7.01319223E-03 -9.47486520E-03 -3.56989789E-02
 -9.50850550E-04  1.03542709E-02  1.27135099E-02 -7.07516689E-03 -1.16764602E-02
  1.23964672E-01  1.41346030E-01  6.44069954E-03  3.65827941E-02  1.85659077E-01
  2.21083347E-01  1.22041629E-02  4.45419602E-02  2.20042101E-01  2.49341762E-01
  5.64306237E-03  2.69941373E-02  1.14827408E-01  1.23044766E-01 -1.07438434E-02
  3.45025841E-03  8.64259509E-03  1.11464075E-02 -1.91948780E-03  3.87544678E-05
  7.07521627E-03  1.16766291E-02  1.23968437E-01 -7.65248581E-02 -1.19018901E-01
 -3.65833473E-02  1.85665522E-01 -1.21536500E-01 -1.85093353E-01 -4.45421555E-02
  2.20049424E-01 -1.30051525E-01 -2.12825100E-01 -2.70025252E-02  1.14839077E-01
 -5.24785350E-02 -1.11817559E-01  7.55845705E-03 -4.30481902E-03 -3.77002529E-03
  8.27746771E-03  7.49422600E-03  8.01673587E-03  4.09764046E-03  1.97467367E-02
  8.69004638E-03  1.33731269E-02 -9.55333628E-04 -8.01384938E-03 -4.09578888E-03
 -1.97343824E-02  8.69189886E-03 -5.88763431E-03 -1.20460529E-02 -1.21654534E-02
 -2.01356183E-02  1.56766990E-01 -1.07526886E-01 -3.23970834E-02  6.31968543E-02
  2.36224938E-01 -1.69111047E-01 -4.64318048E-02  8.42083958E-02  2.76421269E-01
 -1.87471131E-01 -5.83573146E-02  3.04346644E-02  1.50525961E-01 -1.14688746E-01
 -4.23603464E-02 -1.62266160E-03  1.36800338E-02 -8.30680335E-03 -3.80944359E-03
 -7.79569621E-04  1.21662622E-02  2.01369057E-02  1.56764535E-01  8.19721273E-02
  7.67607302E-02 -6.32001219E-02  2.36221663E-01  1.25011926E-01  1.22991121E-01
 -8.42189972E-02  2.76415433E-01  1.44532202E-01  1.32895393E-01 -3.04442177E-02
  1.50531212E-01  9.41821931E-02  7.79562273E-02 -8.91353480E-03 -7.53898415E-03
  1.24982290E-03 -2.27026750E-03  1.14418758E-02  5.64251809E-04 -5.26745380E-03
  6.25712224E-03  1.44636562E-02 -1.00988786E-02 -2.47460296E-03 -5.60814682E-04
  5.27334522E-03 -6.23907898E-03  1.44641658E-02  7.20730104E-03  7.49491780E-03
  2.49775048E-02  4.04431041E-02  3.37908282E-03 -2.04791413E-02 -2.81233708E-02
 -9.19627964E-02 -3.55208396E-03 -2.24392576E-02 -7.89327893E-02 -5.33355574E-01
 -1.70335246E-03 -6.92950424E-02 -4.72610636E-02  1.05258853E+00 -7.33186764E-02
  5.73128471E-03  4.90563454E-01 -1.45729211E-02 -2.58100353E-03  5.75788917E-04
 -1.08074632E-03  5.17684817E-04  2.49789800E-02  4.04456011E-02 -3.38532637E-03
 -3.46052585E-02 -3.59838231E-03 -9.19694960E-02  3.53994031E-03 -7.95401266E-02
  2.02093371E-02 -5.33386834E-01  1.68609684E-03 -7.56598248E-02 -3.62196395E-02
  1.05267021E+00  7.33936769E-02  4.27229334E-01 -2.41245143E-01  2.04748288E-03
 -1.74038239E-03  1.17137000E-02  8.51702680E-03  1.96851203E-03 -1.26571720E-02
  1.32700528E-01 -4.17565078E-01 -1.32355545E-03 -2.19045000E-04 -1.25899547E-03
 -1.26592948E-02  1.32713468E-01 -4.17609861E-01  1.32240688E-03 -1.19956329E-03
  4.42645808E-04  8.04289931E-03  1.32895653E-02  5.33507364E-02  2.64113323E-02
 -5.48349704E-02 -3.03529116E-02  5.47161016E-02  3.32167256E-02 -8.75916034E-02
 -2.03476986E-01  1.91348423E-01  8.69474347E-02 -1.59087715E-01  1.15062945E+00
 -1.04412397E-02 -7.95927935E-02  7.36217505E-01 -1.69823868E-02  1.91035530E-03
  3.76993011E-03 -1.02031493E-03 -7.49564042E-04 -8.03969434E-03 -1.32844469E-02
  5.33538436E-02  3.41675400E-02 -5.03646885E-02  3.03423799E-02  5.47246235E-02
  5.90787906E-02 -7.26874176E-02  2.03397171E-01  1.91358186E-01  9.39540573E-02
 -1.55058177E-01 -1.15055634E+00 -1.05344886E-02 -5.96849801E-01  4.38398157E-01
  9.90557885E-05 -1.60950764E-03 -1.50829865E-02 -8.72776758E-03  1.27977230E-03
 -2.19232675E-02  1.07090540E-01 -5.11778128E-01  3.07402682E-04 -3.59946307E-04
  3.85751419E-03  2.19270428E-02 -1.07082645E-01  5.11771531E-01  3.07544779E-04
 -3.15658496E-03  2.24756335E-03 -1.36796271E-02 -2.23385902E-02 -6.74850583E-02
  3.57858797E-02 -2.14695907E-02  5.87989524E-02 -6.05423365E-02  3.76939999E-02
 -1.26809916E-02  2.69309078E-01 -2.71866667E-01  1.39709543E-01 -8.73146550E-02
  7.17030296E-01  1.16885903E+00 -2.68818366E-01  4.03131374E-01 -6.82675867E-03
 -6.19889818E-03  3.51988636E-03 -1.94573690E-03  5.57547822E-04  1.36744806E-02
  2.23304315E-02 -6.74833803E-02  5.94576471E-04 -4.17441347E-02 -5.87811519E-02
 -6.05433795E-02 -7.96109442E-03 -3.89871913E-02 -2.69189572E-01 -2.71854810E-01
  5.34118457E-03 -1.64724330E-01 -7.17140605E-01  1.16875548E+00 -2.13583754E-01
  4.34882019E-01  5.54006996E-04  3.59233700E-03 -7.72325228E-03 -1.67636718E-03
 -5.08048661E-03 -1.73014175E-02  1.46480339E-02 -2.85002981E-01  1.45735728E-03
 -2.90272554E-04  2.25318594E-03  1.72947290E-02 -1.46423583E-02  2.84904377E-01
  1.45707859E-03 -1.80153704E-03  1.38080899E-03 -1.02206376E-02 -1.63188453E-02
 -9.76685093E-03 -9.06909050E-02 -2.95440045E-02  3.63169258E-02 -5.25055771E-03
 -9.51233405E-02 -1.99633187E-02  2.40270275E-01 -5.41781972E-02 -3.59906153E-01
 -1.23055453E-01 -2.08227504E-01  1.70592997E-01  5.70644010E-01  4.09252576E-01
 -5.35319750E-03 -1.40796747E-03 -6.30685449E-03 -1.62614525E-03 -5.43923159E-04
 -1.02243329E-02 -1.63248728E-02  9.78972537E-03 -7.10712455E-02 -6.36016950E-02
  3.63330404E-02  5.27371932E-03 -6.50056489E-02 -7.22453726E-02  2.40337415E-01
  5.42677274E-02 -2.87080383E-01 -2.49484630E-01 -2.08082164E-01 -1.70885293E-01
  6.40436967E-01  2.88059954E-01  6.44926708E-03 -2.37586813E-04  1.60328660E-03
  5.18899947E-03  1.49130475E-03 -1.21678334E-02  8.94371170E-03 -2.03436238E-01
  1.88630781E-04  4.30606851E-05  3.84811582E-03 -1.21724234E-02  8.94664091E-03
 -2.03479200E-01 -1.88954843E-04  3.35040009E-03 -1.89463034E-03  1.05831195E-02
  1.64461308E-02 -5.52791021E-03 -4.74232352E-02  3.39836694E-02 -2.88927052E-02
 -9.30242739E-03 -4.23814358E-02  1.91871532E-02 -3.14471607E-01 -1.81861106E-02
 -2.15631758E-01  1.61948910E-01  4.08143505E-02 -2.23778137E-02  6.57214398E-01
 -1.11587087E+00  1.11913088E-02  5.37122222E-03 -5.44920546E-03 -5.45836603E-04
 -3.14051922E-03  1.05829413E-02  1.64458542E-02  5.51812722E-03  5.57961566E-03
 -5.80925849E-02 -2.88898235E-02  9.29061845E-03 -4.68834704E-03 -4.63044187E-02
 -3.14480507E-01  1.81527013E-02  3.17970546E-02 -2.67870858E-01  4.10694665E-02
  2.22653110E-02 -6.35029851E-01  1.12862957E+00  3.08568059E-03  5.41114285E-03
 -1.08803462E-02 -5.22517927E-03 -3.06690947E-03  2.48767644E-02 -2.67102635E-02
  4.26886440E-01  4.28076671E-03  4.89783420E-04 -4.95778973E-03  2.48711454E-02
 -2.67052914E-02  4.26777352E-01 -4.28145270E-03 -4.04358553E-03  2.91303936E-03
 -1.95711387E-03 -3.31756098E-03 -1.08341128E-02 -8.52073551E-02 -1.82169009E-02
  1.32851033E-02 -5.79666794E-03 -7.90065002E-02 -2.29078768E-02  5.90463879E-03
 -5.67197786E-02 -3.84168298E-01 -6.15775952E-02  8.25007538E-01  5.86123505E-01
  1.07597536E+00  5.68255187E-01 -5.87626931E-03 -4.36502711E-03 -6.04021241E-03
 -1.91361831E-03 -4.98337573E-03  1.95987917E-03  3.32182220E-03 -1.08329119E-02
  5.85240207E-02  6.45408472E-02 -1.32919183E-02 -5.79351672E-03  5.94678234E-02