Title Card Required                                                     
FOpt      UM062X                                                      6-311+G(d,p)        
Number of atoms                            I                6
Info1-9                                    I   N=           9
          15          15           0           0           0         110
           2          18        -502
Full Title                                 C   N=           2
Title Card Required     
Route                                      C   N=           4
#p opt UM062X/6-311+G** nosymm int=superfine    
Charge                                     I                0
Multiplicity                               I                1
Number of electrons                        I               16
Number of alpha electrons                  I                8
Number of beta electrons                   I                8
Number of basis functions                  I               68
Number of independent functions            I               68
Number of point charges in /Mol/           I                0
Number of translation vectors              I                0
Atomic numbers                             I   N=           6
           6           6           1           1           1           1
Nuclear charges                            R   N=           6
  6.00000000E+00  6.00000000E+00  1.00000000E+00  1.00000000E+00  1.00000000E+00
  1.00000000E+00
Current cartesian coordinates              R   N=          18
 -1.70359929E+00  0.00000000E+00  0.00000000E+00  1.70359929E+00  0.00000000E+00
  0.00000000E+00 -2.63395809E+00 -1.81350725E+00  5.65157922E-08 -2.63402534E+00
  1.81328771E+00 -4.56948515E-08  2.63395809E+00  1.81350719E+00  7.60881813E-08
  2.63402534E+00 -1.81328765E+00 -2.61208695E-08
Number of symbols in /Mol/                 I                0
Force Field                                I                0
Atom Types                                 C   N=           6
                                                            
            
Int Atom Types                             I   N=           6
           0           0           0           0           0           0
MM charges                                 R   N=           6
  0.00000000E+00  0.00000000E+00  0.00000000E+00  0.00000000E+00  0.00000000E+00
  0.00000000E+00
Integer atomic weights                     I   N=           6
          12          12           1           1           1           1
Real atomic weights                        R   N=           6
  1.20000000E+01  1.20000000E+01  1.00782504E+00  1.00782504E+00  1.00782504E+00
  1.00782504E+00
Atom fragment info                         I   N=           6
           0           0           0           0           0           0
Atom residue num                           I   N=           6
           0           0           0           0           0           0
Nuclear spins                              I   N=           6
           0           0           1           1           1           1
Nuclear ZEff                               R   N=           6
 -3.60000000E+00 -3.60000000E+00 -1.00000000E+00 -1.00000000E+00 -1.00000000E+00
 -1.00000000E+00
Nuclear ZNuc                               R   N=           6
  6.00000000E+00  6.00000000E+00  1.00000000E+00  1.00000000E+00  1.00000000E+00
  1.00000000E+00
Nuclear QMom                               R   N=           6
  0.00000000E+00  0.00000000E+00  0.00000000E+00  0.00000000E+00  0.00000000E+00
  0.00000000E+00
Nuclear GFac                               R   N=           6
  0.00000000E+00  0.00000000E+00  2.79284600E+00  2.79284600E+00  2.79284600E+00
  2.79284600E+00
MicOpt                                     I   N=           6
          -2          -2          -1          -1          -1          -1
Number of residues                         I                0
Number of secondary structures             I                0
Redundant internal dimensions              I   N=           4
          20          10           6           4
Redundant internal coordinate indices      I   N=          80
           1          -1           0           0           1          -2
           0           0           1          -3           0           0
           2          -1           0           0           2          -2
           0           0           2          -3           0           0
           1           3           0           0           1           4
           0           0           2           5           0           0
           2           6           0           0           2           1
           3           0           2           1           4           0
           3           1           4           0           1           2
           5           0           1           2           6           0
           5           2           6           0           3           1
           2           5           3           1           2           6
           4           1           2           5           4           1
           2           6
Redundant internal coordinates             R   N=          20
 -1.70359929E+00  0.00000000E+00  0.00000000E+00  1.70359929E+00  0.00000000E+00
  0.00000000E+00  2.03822865E+00  2.03806402E+00  2.03822860E+00  2.03806397E+00
  2.04480268E+00  2.04488121E+00  2.19350142E+00  2.04480269E+00  2.04488122E+00
  2.19350139E+00 -3.14159258E+00  4.71216092E-08  6.49526558E-08 -3.14159262E+00
ZRed-IntVec                                I   N=          20
          -1          -1          -1          -1          -1          -1
           0           0           0           0           0           0
           0           0           0           0           0           0
           0           0
ZRed-FPVec                                 R   N=          20
  0.00000000E+00  0.00000000E+00  0.00000000E+00  0.00000000E+00  0.00000000E+00
  0.00000000E+00  0.00000000E+00  0.00000000E+00  0.00000000E+00  0.00000000E+00
  0.00000000E+00  0.00000000E+00  0.00000000E+00  0.00000000E+00  0.00000000E+00
  0.00000000E+00  0.00000000E+00  0.00000000E+00  0.00000000E+00  0.00000000E+00
ZRed-Constraint1                           R   N=          20
 -1.70359929E+00  0.00000000E+00  0.00000000E+00  1.70359929E+00  0.00000000E+00
  0.00000000E+00  2.27473094E+00  2.27567025E+00  2.27473094E+00  2.27567025E+00
  2.26987496E+00  2.26477322E+00  1.74853713E+00  2.26987496E+00  2.26477322E+00
  1.74853713E+00  3.14159265E+00  0.00000000E+00  0.00000000E+00  3.14159265E+00
ZRed-Constraint2                           R   N=          20
 -1.70359929E+00  0.00000000E+00  0.00000000E+00  1.70359929E+00  0.00000000E+00
  0.00000000E+00  0.00000000E+00  0.00000000E+00  0.00000000E+00  0.00000000E+00
  0.00000000E+00  0.00000000E+00  0.00000000E+00  0.00000000E+00  0.00000000E+00
  0.00000000E+00  0.00000000E+00  0.00000000E+00  0.00000000E+00  0.00000000E+00
Number of contracted shells                I               28
Number of primitive shells                 I               50
Pure/Cartesian d shells                    I                0
Pure/Cartesian f shells                    I                0
Highest angular momentum                   I                2
Largest degree of contraction              I                6
Shell types                                I   N=          28
           0          -1          -1          -1          -1          -2
           0          -1          -1          -1          -1          -2
           0           0           0           1           0           0
           0           1           0           0           0           1
           0           0           0           1
Number of primitives per shell             I   N=          28
           6           3           1           1           1           1
           6           3           1           1           1           1
           3           1           1           1           3           1
           1           1           3           1           1           1
           3           1           1           1
Shell to atom map                          I   N=          28
           1           1           1           1           1           1
           2           2           2           2           2           2
           3           3           3           3           4           4
           4           4           5           5           5           5
           6           6           6           6
Primitive exponents                        R   N=          50
  4.56324000E+03  6.82024000E+02  1.54973000E+02  4.44553000E+01  1.30290000E+01
  1.82773000E+00  2.09642000E+01  4.80331000E+00  1.45933000E+00  4.83456000E-01
  1.45585000E-01  4.38000000E-02  6.26000000E-01  4.56324000E+03  6.82024000E+02
  1.54973000E+02  4.44553000E+01  1.30290000E+01  1.82773000E+00  2.09642000E+01
  4.80331000E+00  1.45933000E+00  4.83456000E-01  1.45585000E-01  4.38000000E-02
  6.26000000E-01  3.38650000E+01  5.09479000E+00  1.15879000E+00  3.25840000E-01
  1.02741000E-01  7.50000000E-01  3.38650000E+01  5.09479000E+00  1.15879000E+00
  3.25840000E-01  1.02741000E-01  7.50000000E-01  3.38650000E+01  5.09479000E+00
  1.15879000E+00  3.25840000E-01  1.02741000E-01  7.50000000E-01  3.38650000E+01
  5.09479000E+00  1.15879000E+00  3.25840000E-01  1.02741000E-01  7.50000000E-01
Contraction coefficients                   R   N=          50
  1.96665025E-03  1.52306019E-02  7.61269097E-02  2.60801033E-01  6.16462078E-01
  2.21006028E-01  1.14660081E-01  9.19999648E-01 -3.03068213E-03  1.00000000E+00
  1.00000000E+00  1.00000000E+00  1.00000000E+00  1.96665025E-03  1.52306019E-02
  7.61269097E-02  2.60801033E-01  6.16462078E-01  2.21006028E-01  1.14660081E-01
  9.19999648E-01 -3.03068213E-03  1.00000000E+00  1.00000000E+00  1.00000000E+00
  1.00000000E+00  2.54938145E-02  1.90373109E-01  8.52161486E-01  1.00000000E+00
  1.00000000E+00  1.00000000E+00  2.54938145E-02  1.90373109E-01  8.52161486E-01
  1.00000000E+00  1.00000000E+00  1.00000000E+00  2.54938145E-02  1.90373109E-01
  8.52161486E-01  1.00000000E+00  1.00000000E+00  1.00000000E+00  2.54938145E-02
  1.90373109E-01  8.52161486E-01  1.00000000E+00  1.00000000E+00  1.00000000E+00
P(S=P) Contraction coefficients            R   N=          50
  0.00000000E+00  0.00000000E+00  0.00000000E+00  0.00000000E+00  0.00000000E+00
  0.00000000E+00  4.02486927E-02  2.37593957E-01  8.15853851E-01  1.00000000E+00
  1.00000000E+00  1.00000000E+00  0.00000000E+00  0.00000000E+00  0.00000000E+00
  0.00000000E+00  0.00000000E+00  0.00000000E+00  0.00000000E+00  4.02486927E-02
  2.37593957E-01  8.15853851E-01  1.00000000E+00  1.00000000E+00  1.00000000E+00
  0.00000000E+00  0.00000000E+00  0.00000000E+00  0.00000000E+00  0.00000000E+00
  0.00000000E+00  0.00000000E+00  0.00000000E+00  0.00000000E+00  0.00000000E+00
  0.00000000E+00  0.00000000E+00  0.00000000E+00  0.00000000E+00  0.00000000E+00
  0.00000000E+00  0.00000000E+00  0.00000000E+00  0.00000000E+00  0.00000000E+00
  0.00000000E+00  0.00000000E+00  0.00000000E+00  0.00000000E+00  0.00000000E+00
Coordinates of each shell                  R   N=          84
 -1.70359929E+00  0.00000000E+00  0.00000000E+00 -1.70359929E+00  0.00000000E+00
  0.00000000E+00 -1.70359929E+00  0.00000000E+00  0.00000000E+00 -1.70359929E+00
  0.00000000E+00  0.00000000E+00 -1.70359929E+00  0.00000000E+00  0.00000000E+00
 -1.70359929E+00  0.00000000E+00  0.00000000E+00  1.70359929E+00  0.00000000E+00
  0.00000000E+00  1.70359929E+00  0.00000000E+00  0.00000000E+00  1.70359929E+00
  0.00000000E+00  0.00000000E+00  1.70359929E+00  0.00000000E+00  0.00000000E+00
  1.70359929E+00  0.00000000E+00  0.00000000E+00  1.70359929E+00  0.00000000E+00
  0.00000000E+00 -2.63395809E+00 -1.81350725E+00  5.65157922E-08 -2.63395809E+00
 -1.81350725E+00  5.65157922E-08 -2.63395809E+00 -1.81350725E+00  5.65157922E-08
 -2.63395809E+00 -1.81350725E+00  5.65157922E-08 -2.63402534E+00  1.81328771E+00
 -4.56948515E-08 -2.63402534E+00  1.81328771E+00 -4.56948515E-08 -2.63402534E+00
  1.81328771E+00 -4.56948515E-08 -2.63402534E+00  1.81328771E+00 -4.56948515E-08
  2.63395809E+00  1.81350719E+00  7.60881813E-08  2.63395809E+00  1.81350719E+00
  7.60881813E-08  2.63395809E+00  1.81350719E+00  7.60881813E-08  2.63395809E+00
  1.81350719E+00  7.60881813E-08  2.63402534E+00 -1.81328765E+00 -2.61208695E-08
  2.63402534E+00 -1.81328765E+00 -2.61208695E-08  2.63402534E+00 -1.81328765E+00
 -2.61208695E-08  2.63402534E+00 -1.81328765E+00 -2.61208695E-08
Num ILSW                                   I              100
ILSW                                       I   N=         100
           1           0           0           0           2           0
           0           0           0           0        4336          -1
           7           0           0           0           2           0
           0           0           0           0           1           0
           1           1           0           0           0           0
           0           0      100000           0          -1           0
           0           0           0           0           0           0
           0           0           0           1           0           0
           0 -2000000000           1           0           0           0
           0           0           4          52           0           0
           0           0          55           0           0           0
           0           0           0           6           0           1
           0           0           0           0           0           0
           0           0           0           0           0           0
           0           0           0           0           0           0
           0           0           0           0           0           0
           0           0           0           0
Num RLSW                                   I               52
RLSW                                       R   N=          52
  1.00000000E+00  1.00000000E+00  1.00000000E+00  1.00000000E+00  5.40000000E-01
  0.00000000E+00  0.00000000E+00  1.00000000E+00  0.00000000E+00  0.00000000E+00
  0.00000000E+00  0.00000000E+00  1.00000000E+00  0.00000000E+00  0.00000000E+00
  0.00000000E+00  0.00000000E+00  1.00000000E+00  0.00000000E+00  0.00000000E+00
  0.00000000E+00  0.00000000E+00  1.00000000E+00  0.00000000E+00  0.00000000E+00
  0.00000000E+00  0.00000000E+00  1.00000000E+00  0.00000000E+00  0.00000000E+00
  0.00000000E+00  0.00000000E+00  1.00000000E+00  0.00000000E+00  0.00000000E+00
  0.00000000E+00  0.00000000E+00  0.00000000E+00  1.00000000E+00  1.00000000E+00
  0.00000000E+00  1.00000000E+00  0.00000000E+00  0.00000000E+00  0.00000000E+00
  0.00000000E+00  0.00000000E+00  0.00000000E+00  0.00000000E+00  0.00000000E+00
  0.00000000E+00  0.00000000E+00
MxBond                                     I                3
NBond                                      I   N=           6
           3           3           1           1           1           1
IBond                                      I   N=          18
           2           3           4           1           5           6
           1           0           0           1           0           0
           2           0           0           2           0           0
RBond                                      R   N=          18
  1.00000000E+00  1.00000000E+00  1.00000000E+00  1.00000000E+00  1.00000000E+00
  1.00000000E+00  1.00000000E+00  0.00000000E+00  0.00000000E+00  1.00000000E+00
  0.00000000E+00  0.00000000E+00  1.00000000E+00  0.00000000E+00  0.00000000E+00
  1.00000000E+00  0.00000000E+00  0.00000000E+00
Virial Ratio                               R      2.012023726658178E+00
SCF Energy                                 R     -7.844247693452633E+01
Total Energy                               R     -7.844247693452633E+01
S**2                                       R     -6.572520305780927E-14
S**2 after annihilation                    R     -5.506706202140586E-14
RMS Force                                  R      1.022207181567249E-04
RMS Density                                R      5.352097678110710E-09
Job Status                                 I                1
Nuclear derivative order                   I                1
External E-field                           R   N=          35
  0.00000000E+00  0.00000000E+00  0.00000000E+00  0.00000000E+00  0.00000000E+00
  0.00000000E+00  0.00000000E+00  0.00000000E+00  0.00000000E+00  0.00000000E+00
  0.00000000E+00  0.00000000E+00  0.00000000E+00  0.00000000E+00  0.00000000E+00
  0.00000000E+00  0.00000000E+00  0.00000000E+00  0.00000000E+00  0.00000000E+00
  0.00000000E+00  0.00000000E+00  0.00000000E+00  0.00000000E+00  0.00000000E+00
  0.00000000E+00  0.00000000E+00  0.00000000E+00  0.00000000E+00  0.00000000E+00
  0.00000000E+00  0.00000000E+00  0.00000000E+00  0.00000000E+00  0.00000000E+00
IOpCl                                      I                1
IROHF                                      I                0
Alpha Orbital Energies                     R   N=          68
 -1.05962889E+01 -1.05960789E+01 -7.89115235E-01 -7.02073859E-01 -5.29720871E-01
 -4.81010187E-01 -4.10045772E-01 -2.76395909E-01 -4.32167815E-02  3.16629533E-02
  3.36637921E-02  5.38721895E-02  7.53505993E-02  8.78783256E-02  9.78250824E-02
  1.16267749E-01  1.51677971E-01  1.58619135E-01  1.66342865E-01  2.10620222E-01
  2.20534058E-01  2.88072912E-01  4.05297581E-01  4.41521782E-01  4.66321529E-01
  5.96140051E-01  6.11324929E-01  6.19717050E-01  6.59737161E-01  6.97778555E-01
  7.02307101E-01  7.41935383E-01  7.73543237E-01  8.33503470E-01  1.07715414E+00
  1.10981201E+00  1.11338760E+00  1.33343586E+00  1.41969304E+00  1.44573795E+00
  1.50121267E+00  1.54029755E+00  1.54169979E+00  1.59873590E+00  1.74099646E+00
  1.86594212E+00  1.90438338E+00  1.93302820E+00  1.95404719E+00  2.00066594E+00
  2.07940363E+00  2.09006004E+00  2.37480307E+00  2.52710625E+00  2.56613937E+00
  2.58245423E+00  2.62131641E+00  2.63430020E+00  2.74561696E+00  2.75481450E+00
  2.75984280E+00  2.82763287E+00  2.83633634E+00  3.73286472E+00  3.75780972E+00
  3.78484420E+00  2.37987749E+01  2.38703437E+01
Beta Orbital Energies                      R   N=          68
 -1.05962889E+01 -1.05960789E+01 -7.89115235E-01 -7.02073859E-01 -5.29720871E-01
 -4.81010187E-01 -4.10045772E-01 -2.76395909E-01 -4.32167815E-02  3.16629533E-02
  3.36637921E-02  5.38721895E-02  7.53505993E-02  8.78783256E-02  9.78250824E-02
  1.16267749E-01  1.51677971E-01  1.58619135E-01  1.66342865E-01  2.10620222E-01
  2.20534058E-01  2.88072912E-01  4.05297581E-01  4.41521782E-01  4.66321529E-01
  5.96140051E-01  6.11324929E-01  6.19717050E-01  6.59737161E-01  6.97778555E-01
  7.02307101E-01  7.41935383E-01  7.73543237E-01  8.33503470E-01  1.07715414E+00
  1.10981201E+00  1.11338760E+00  1.33343586E+00  1.41969304E+00  1.44573795E+00
  1.50121267E+00  1.54029755E+00  1.54169979E+00  1.59873590E+00  1.74099646E+00
  1.86594212E+00  1.90438338E+00  1.93302820E+00  1.95404719E+00  2.00066594E+00
  2.07940363E+00  2.09006004E+00  2.37480307E+00  2.52710625E+00  2.56613937E+00
  2.58245423E+00  2.62131641E+00  2.63430020E+00  2.74561696E+00  2.75481450E+00
  2.75984280E+00  2.82763287E+00  2.83633634E+00  3.73286472E+00  3.75780972E+00
  3.78484420E+00  2.37987749E+01  2.38703437E+01
Alpha MO coefficients                      R   N=        4624
  3.98855385E-01  3.27945586E-01  3.40499438E-04 -6.13631875E-08 -9.07667519E-12
  8.29621440E-03 -1.41375028E-03  9.21710387E-07  1.28478418E-11 -2.01769320E-03
 -8.44314117E-05  8.57271502E-08 -2.99747017E-12 -5.73586731E-04  4.96835185E-04
 -4.05364205E-07  2.31972671E-12 -8.39297352E-04 -5.31602165E-12 -7.37381325E-11
 -9.60545411E-04 -4.43889974E-07  3.99086593E-01  3.28135729E-01 -3.40660460E-04
  6.13977394E-08 -5.58354506E-12  8.30093452E-03  1.41476518E-03 -9.22208136E-07
  4.39957941E-11 -2.01979675E-03  8.48051560E-05 -8.56931775E-08 -1.03362980E-12
 -5.72714404E-04 -4.97494045E-04  4.05431925E-07 -1.09836361E-11 -8.39756412E-04
  1.63192552E-11  7.37660066E-11 -9.61126138E-04 -4.44124526E-07  1.28914115E-04
 -2.40054758E-03  1.52582031E-03 -7.20158616E-04 -1.30644434E-03  3.92090249E-11
  1.28711245E-04 -2.40225354E-03  1.52696879E-03 -7.20614268E-04  1.30706108E-03
 -3.17181568E-11  1.28978337E-04 -2.40180941E-03  1.52677770E-03  7.20527184E-04
  1.30719202E-03  5.43802666E-11  1.28775334E-04 -2.40351619E-03  1.52792670E-03
  7.20983079E-04 -1.30780908E-03 -1.65787942E-11  3.99103184E-01  3.28217947E-01
  2.78075448E-04 -5.95502695E-08 -9.59951898E-12  8.14782063E-03 -1.75141217E-03
  8.57939828E-07  1.24548295E-11 -3.63114320E-03 -6.45190786E-04 -5.85014433E-08
 -2.59262540E-12  1.50705195E-03  1.13762469E-03 -1.16790111E-07 -6.78810412E-12
 -7.92376802E-04 -4.49343935E-12 -6.38466627E-11 -1.00234325E-03 -4.04596668E-07
 -3.98871986E-01 -3.28027852E-01  2.77878005E-04 -5.95147564E-08  5.19559538E-12
 -8.14301167E-03 -1.75059277E-03  8.57406277E-07 -4.24715012E-11  3.62997326E-03
 -6.45141742E-04 -5.85511572E-08  5.45800890E-12 -1.50738399E-03  1.13733659E-03
 -1.16555361E-07  1.35251784E-11  7.91890328E-04 -1.61005277E-11 -6.37954868E-11
  1.00178645E-03  4.04339490E-07  1.10919404E-04 -2.17774904E-03  1.65226937E-03
 -6.36129443E-04 -1.29048702E-03  3.97245348E-11  1.10691606E-04 -2.17914675E-03
  1.65317737E-03 -6.36548443E-04  1.29106081E-03 -3.22528651E-11 -1.10844649E-04
  2.17635777E-03 -1.65138500E-03 -6.35712053E-04 -1.28972979E-03 -5.49719132E-11
 -1.10616969E-04  2.17775449E-03 -1.65229233E-03 -6.36130789E-04  1.29030322E-03
  1.69547316E-11 -7.90440276E-02 -1.27378478E-01  2.79376009E-04  7.38612613E-06
  1.70672093E-10  3.39571978E-01  8.65496680E-03  6.74484879E-06  1.72510471E-10
  2.26982722E-01  2.74649919E-03  2.22688794E-06  1.24172858E-10  2.40921488E-03
 -4.80167065E-03  1.29900241E-06 -1.97651951E-11 -9.34641142E-03 -5.10711721E-11
 -4.05278277E-10  1.66928868E-03 -1.14031133E-06 -7.90440824E-02 -1.27378566E-01
 -2.79337017E-04 -7.38614381E-06  6.49990339E-10  3.39572226E-01 -8.65490981E-03
 -6.74486717E-06  8.57071206E-10  2.26982875E-01 -2.74647260E-03 -2.22689530E-06
  3.48198452E-10  2.40919827E-03  4.80167814E-03 -1.29900264E-06  6.58498808E-11
 -9.34641485E-03  9.21380595E-11  4.05253828E-10  1.66928183E-03 -1.14031191E-06
  6.88972948E-02  7.85917389E-02  3.21487121E-03  4.91771897E-03  1.05246778E-02
 -3.11399618E-10  6.89122188E-02  7.86066510E-02  3.21296962E-03  4.91981515E-03
 -1.05260814E-02  2.67218320E-10  6.88973576E-02  7.85918117E-02  3.21487599E-03
 -4.91772178E-03 -1.05246872E-02 -4.02158723E-10  6.89122817E-02  7.86067238E-02
  3.21297439E-03 -4.91981796E-03  1.05260908E-02  1.76420224E-10 -7.27158759E-02
 -1.17507710E-01 -5.60820644E-02  1.45163933E-05  1.24367258E-10  3.18448739E-01
 -8.19788272E-02  1.62706927E-05  9.77131004E-11  2.25820378E-01 -3.89999505E-02
  6.65499083E-06  9.15328608E-11 -3.11078656E-02 -1.34065195E-02  1.41938990E-07
  3.94627348E-11 -6.22147149E-03 -9.28694478E-11 -5.82054896E-10 -9.66902148E-03
 -1.70281103E-06  7.27158201E-02  1.17507620E-01 -5.60820866E-02  1.45164020E-05
 -9.74348779E-10 -3.18448507E-01 -8.19788664E-02  1.62707035E-05 -1.32394900E-09
 -2.25820198E-01 -3.89999710E-02  6.65499765E-06 -5.78170446E-10  3.11078683E-02
 -1.34065155E-02  1.41938296E-07 -6.76962545E-11  6.22146383E-03 -1.89891423E-10
 -5.82000541E-10  9.66902427E-03  1.70281134E-06  8.68771733E-02  1.05189388E-01
  1.34137621E-02  3.32078247E-03  1.24098309E-02 -3.98694796E-10  8.69040981E-02
  1.05217099E-01  1.34159092E-02  3.32343682E-03 -1.24125708E-02  3.24878272E-10
 -8.68771314E-02 -1.05189338E-01 -1.34137580E-02  3.32077864E-03  1.24098250E-02
  4.93903751E-10 -8.69040562E-02 -1.05217049E-01 -1.34159051E-02  3.32343298E-03
 -1.24125649E-02 -2.29591839E-10  5.45758799E-06  9.14311697E-06  2.08411039E-07
  1.47448890E-01 -3.25375177E-09 -2.64245915E-05  3.63228521E-06  2.07458889E-01
 -4.37372827E-09 -3.27729090E-05  2.75065039E-06  1.23354871E-01 -2.52778623E-09
  1.45942278E-06  1.91122548E-06  4.55397252E-03 -1.82705944E-10  4.65555311E-07
  4.76920965E-10  7.32965588E-11  1.75650748E-06 -7.71663494E-03 -5.45759390E-06
 -9.14312708E-06  2.08390907E-07  1.47449078E-01  3.25366502E-09  2.64246228E-05
  3.63225893E-06  2.07459147E-01  4.37350511E-09  3.27729559E-05  2.75063881E-06
  1.23355025E-01  2.52780956E-09 -1.45941841E-06  1.91122737E-06  4.55398454E-03
  1.82685622E-10 -4.65555396E-07  4.76852880E-10  4.27688242E-10 -1.75650511E-06
  7.71666264E-03 -1.04367399E-01 -1.42700609E-01 -4.03076585E-02 -7.53442701E-03
 -9.37339577E-03  3.71829098E-10  1.04354831E-01  1.42677042E-01  4.03011170E-02
  7.53542580E-03 -9.37074285E-03  2.81433297E-10  1.04367534E-01  1.42700799E-01
  4.03077159E-02 -7.53443682E-03 -9.37340720E-03 -5.63137487E-10 -1.04354967E-01
 -1.42677231E-01 -4.03011744E-02  7.53543560E-03 -9.37075428E-03 -9.00863845E-11
  3.51953611E-06  6.04306864E-06 -3.44547358E-05  1.50425558E-01 -5.32100568E-09
 -1.79209110E-05 -4.94746307E-05  2.08279647E-01 -7.69228092E-09 -2.83919414E-05
 -2.97557952E-05  1.32894259E-01 -4.80205511E-09 -2.06685408E-06 -1.91001955E-07
  1.25020365E-02 -1.97582615E-10  3.85172046E-07  2.40517327E-10  4.60922700E-11
 -1.64949181E-06 -2.20493153E-02  3.51953539E-06  6.04306735E-06  3.44547316E-05
 -1.50425392E-01 -5.32065841E-09 -1.79209077E-05  4.94746269E-05 -2.08279410E-01
 -7.69203079E-09 -2.83919355E-05  2.97557923E-05 -1.32894099E-01 -4.80165610E-09
 -2.06684892E-06  1.90999745E-07 -1.25020273E-02 -1.97650104E-10  3.85171570E-07
 -2.40521328E-10 -4.62869027E-10 -1.64949475E-06 -2.20493098E-02 -1.13412967E-01
 -1.62743383E-01 -5.69960077E-02 -7.87751077E-03 -8.78559353E-03  2.15172167E-10
  1.13431076E-01  1.62762478E-01  5.70024037E-02  7.87698707E-03 -8.78669917E-03
  1.30201722E-10 -1.13412844E-01 -1.62743214E-01 -5.69959560E-02  7.87750229E-03
  8.78558350E-03  4.00440745E-10  1.13430953E-01  1.62762309E-01  5.70023520E-02
 -7.87697858E-03  8.78668914E-03 -5.50808418E-11 -1.21558281E-02 -2.03766458E-02
  1.77180378E-01  2.61723324E-05 -6.62401133E-10  5.87250923E-02  2.71288778E-01
  3.98610873E-05 -1.11236727E-09  7.68635895E-02  1.92547893E-01  2.84156869E-05
 -6.67308963E-10  6.10128010E-05  1.11148304E-02  3.72635113E-06  1.66065876E-11
 -4.44948429E-04 -7.26073901E-11  3.80002667E-10  1.45652651E-02 -3.32976850E-06
 -1.21558394E-02 -2.03766644E-02 -1.77180395E-01 -2.61723141E-05 -1.84744821E-09
  5.87251460E-02 -2.71288800E-01 -3.98610622E-05 -2.68250526E-09  7.68636567E-02
 -1.92547920E-01 -2.84156676E-05 -2.02686942E-09  6.10140026E-05 -1.11148299E-02
 -3.72634967E-06 -2.23032867E-10 -4.44947179E-04 -2.11349955E-10 -3.80073375E-10
  1.45652616E-02 -3.32976875E-06 -6.15066017E-02 -9.37132998E-02 -4.37582541E-02
  6.04477957E-03 -8.81882719E-03  2.47410153E-10 -6.14733620E-02 -9.36578815E-02
 -4.37302256E-02  6.04698921E-03  8.81776783E-03 -2.78414772E-10 -6.15065948E-02
 -9.37132905E-02 -4.37582481E-02 -6.04478067E-03  8.81882724E-03  2.78982936E-10
 -6.14733552E-02 -9.36578722E-02 -4.37302196E-02 -6.04699031E-03 -8.81776789E-03
 -2.46918919E-10 -7.29825684E-11 -1.24672716E-10  1.45668646E-09  6.03458974E-09
  1.70925768E-01  3.89128395E-10  2.19291927E-09  9.01461580E-09  2.69566371E-01
  1.09298229E-10  1.88321644E-09  7.46622320E-09  2.87537799E-01 -1.77315464E-09
 -5.10297531E-11  1.97921081E-09  5.14204034E-02 -2.10525035E-11  1.11301368E-02
  3.49075931E-07  1.45311861E-11 -6.19877705E-10  5.75754759E-10  9.59652221E-10
 -1.74303968E-09 -6.03449511E-09  1.70925809E-01 -2.83700368E-09 -2.81497077E-09
 -9.01421072E-09  2.69566435E-01 -3.94243393E-09 -2.66278368E-09 -7.46596257E-09
  2.87537855E-01  1.51349359E-09 -1.30554986E-09 -1.97911279E-09  5.14204113E-02
  1.05830717E-10 -1.11301331E-02 -3.49076831E-07  1.65503316E-11 -6.19813143E-10
 -1.62700074E-09 -3.59930581E-09 -3.16465519E-09  7.17508796E-11  2.29952648E-10
  1.39262093E-02  1.33048963E-09  3.02316372E-09  2.58547971E-09  1.45707277E-10
  2.97966824E-10  1.39276221E-02 -1.00688345E-09 -2.76131213E-09 -2.97138602E-09
 -1.60298722E-10 -3.54054861E-10  1.39262122E-02  1.95078041E-09  3.86122235E-09
  2.77875810E-09 -2.34462754E-10 -1.73692863E-10  1.39276250E-02  4.01185706E-10
  6.69787001E-10 -5.92767930E-10  4.14251870E-09  1.81432494E-01 -2.00683561E-09
 -9.81183551E-10  6.50511791E-09  2.78217909E-01 -3.06548167E-09 -4.06293321E-10
  1.01572465E-08  3.82105222E-01  7.65832669E-09  1.20106374E-09  6.39890436E-09
  3.45693139E-01 -7.48846212E-11 -2.02966970E-02  3.10784744E-07  1.23153398E-11
  5.11873726E-10 -7.89576415E-10 -1.32017311E-09  9.92580303E-10  4.14246916E-09
 -1.81432482E-01  3.77071981E-09  1.67560898E-09  6.50521790E-09 -2.78217892E-01
  8.10892543E-09  2.81075490E-09  1.01573194E-08 -3.82105169E-01 -5.15936835E-09
  3.78977264E-09  6.39926726E-09 -3.45693085E-01 -5.39711045E-11 -2.02967066E-02
  3.10785329E-07  1.09923906E-10 -5.11809593E-10  1.89344254E-09  3.62032698E-09
  4.30209451E-09 -1.90059340E-10  6.06964648E-10  1.93651799E-02 -1.02289741E-09
 -1.89831314E-09 -3.69457800E-09  6.38628433E-11  5.32642653E-10  1.93671259E-02
 -2.69022062E-09 -5.16323361E-09 -5.61896943E-09 -1.23995379E-11  7.21372546E-10
 -1.93651785E-02  2.26304166E-10  3.55452602E-10  2.37865026E-09  2.41348435E-10
  4.18332510E-10 -1.93671244E-02 -3.04851178E-02 -5.18183317E-02  2.60879437E-02
 -1.45069840E-06  3.05777214E-10  1.61100669E-01  4.89197475E-02  4.03773215E-06
  4.53678651E-10  2.76563192E-01 -1.67344572E-02 -1.19772124E-05  9.92048521E-10
  3.59206764E+00  2.13385705E+00 -2.11491740E-05 -3.85815940E-09  2.77190013E-03
 -8.12652155E-11 -3.26368011E-10 -1.61262958E-02 -2.25672706E-06  3.04852472E-02
  5.18185507E-02  2.60877162E-02 -1.45073006E-06 -6.15056233E-10 -1.61101274E-01
  4.89194073E-02  4.03776544E-06 -1.13043291E-09 -2.76565436E-01 -1.67352217E-02