 Entering Gaussian System, Link 0=g16
 Initial command:
 /home/szhao/Apps/g16/l1.exe "/home/szhao/tmp/Gau-121385.inp" -scrdir="/home/szhao/tmp/"
 Default is to use a total of  16 processors:
                               16 via shared-memory
                                1 via Linda
 Entering Link 1 = /home/szhao/Apps/g16/l1.exe PID=    121386.
  
 Copyright (c) 1988,1990,1992,1993,1995,1998,2003,2009,2016,
            Gaussian, Inc.  All Rights Reserved.
  
 This is part of the Gaussian(R) 16 program.  It is based on
 the Gaussian(R) 09 system (copyright 2009, Gaussian, Inc.),
 the Gaussian(R) 03 system (copyright 2003, Gaussian, Inc.),
 the Gaussian(R) 98 system (copyright 1998, Gaussian, Inc.),
 the Gaussian(R) 94 system (copyright 1995, Gaussian, Inc.),
 the Gaussian 92(TM) system (copyright 1992, Gaussian, Inc.),
 the Gaussian 90(TM) system (copyright 1990, Gaussian, Inc.),
 the Gaussian 88(TM) system (copyright 1988, Gaussian, Inc.),
 the Gaussian 86(TM) system (copyright 1986, Carnegie Mellon
 University), and the Gaussian 82(TM) system (copyright 1983,
 Carnegie Mellon University). Gaussian is a federally registered
 trademark of Gaussian, Inc.
  
 This software contains proprietary and confidential information,
 including trade secrets, belonging to Gaussian, Inc.
  
 This software is provided under written license and may be
 used, copied, transmitted, or stored only in accord with that
 written license.
  
 The following legend is applicable only to US Government
 contracts under FAR:
  
                    RESTRICTED RIGHTS LEGEND
  
 Use, reproduction and disclosure by the US Government is
 subject to restrictions as set forth in subparagraphs (a)
 and (c) of the Commercial Computer Software - Restricted
 Rights clause in FAR 52.227-19.
  
 Gaussian, Inc.
 340 Quinnipiac St., Bldg. 40, Wallingford CT 06492
  
  
 ---------------------------------------------------------------
 Warning -- This program may not be used in any manner that
 competes with the business of Gaussian, Inc. or will provide
 assistance to any competitor of Gaussian, Inc.  The licensee
 of this program is prohibited from giving any competitor of
 Gaussian, Inc. access to this program.  By using this program,
 the user acknowledges that Gaussian, Inc. is engaged in the
 business of creating and licensing software in the field of
 computational chemistry and represents and warrants to the
 licensee that it is not a competitor of Gaussian, Inc. and that
 it will not use this program in any manner prohibited above.
 ---------------------------------------------------------------
  

 Cite this work as:
 Gaussian 16, Revision A.03,
 M. J. Frisch, G. W. Trucks, H. B. Schlegel, G. E. Scuseria, 
 M. A. Robb, J. R. Cheeseman, G. Scalmani, V. Barone, 
 G. A. Petersson, H. Nakatsuji, X. Li, M. Caricato, A. V. Marenich, 
 J. Bloino, B. G. Janesko, R. Gomperts, B. Mennucci, H. P. Hratchian, 
 J. V. Ortiz, A. F. Izmaylov, J. L. Sonnenberg, D. Williams-Young, 
 F. Ding, F. Lipparini, F. Egidi, J. Goings, B. Peng, A. Petrone, 
 T. Henderson, D. Ranasinghe, V. G. Zakrzewski, J. Gao, N. Rega, 
 G. Zheng, W. Liang, M. Hada, M. Ehara, K. Toyota, R. Fukuda, 
 J. Hasegawa, M. Ishida, T. Nakajima, Y. Honda, O. Kitao, H. Nakai, 
 T. Vreven, K. Throssell, J. A. Montgomery, Jr., J. E. Peralta, 
 F. Ogliaro, M. J. Bearpark, J. J. Heyd, E. N. Brothers, K. N. Kudin, 
 V. N. Staroverov, T. A. Keith, R. Kobayashi, J. Normand, 
 K. Raghavachari, A. P. Rendell, J. C. Burant, S. S. Iyengar, 
 J. Tomasi, M. Cossi, J. M. Millam, M. Klene, C. Adamo, R. Cammi, 
 J. W. Ochterski, R. L. Martin, K. Morokuma, O. Farkas, 
 J. B. Foresman, and D. J. Fox, Gaussian, Inc., Wallingford CT, 2016.
 
 ******************************************
 Gaussian 16:  ES64L-G16RevA.03 25-Dec-2016
                21-Apr-2025 
 ******************************************
 %chk=opt.chk
 %mem=4GB
 %nprocshared=8
 Will use up to    8 processors via shared memory.
 --------------------------------------------
 #p opt UM062X/6-311+G** nosymm int=superfine
 --------------------------------------------
 1/18=20,19=15,26=5,38=1/1,3;
 2/9=110,12=2,15=1,17=6,18=5,40=1/2;
 3/5=4,6=6,7=111,11=2,25=1,30=1,71=1,74=-55,75=-7,116=2/1,2,3;
 4//1;
 5/5=2,38=5/2;
 6/7=2,8=2,9=2,10=2,28=1/1;
 7/30=1/1,2,3,16;
 1/18=20,19=15,26=5/3(2);
 2/9=110,15=1/2;
 99//99;
 2/9=110,15=1/2;
 3/5=4,6=6,7=111,11=2,25=1,30=1,71=1,74=-55,75=-7,116=2/1,2,3;
 4/5=5,16=3,69=1/1;
 5/5=2,38=5/2;
 7/30=1/1,2,3,16;
 1/18=20,19=15,26=5/3(-5);
 2/9=110,15=1/2;
 6/7=2,8=2,9=2,10=2,19=2,28=1/1;
 99/9=1/99;
 Leave Link    1 at Mon Apr 21 21:37:00 2025, MaxMem=   536870912 cpu:               2.5 elap:               0.3
 (Enter /home/szhao/Apps/g16/l101.exe)
 -------------------
 Title Card Required
 -------------------
 Symbolic Z-matrix:
 Charge =  0 Multiplicity = 1
 O                    -1   -2.18694   0.        0. 
 O                    -1    2.18694   0.        0. 
 H                    0    -2.37672  -0.94528   0. 
 H                    0     2.37672   0.4601    0.82575 
 
 Add virtual bond connecting atoms O2         and O1         Dist= 8.27D+00.
 ITRead=  2  2  0  0
 MicOpt= -2 -2 -1 -1
 NAtoms=      4 NQM=        2 NQMF=       2 NMMI=      0 NMMIF=      0
                NMic=       0 NMicF=      0.
                    Isotopes and Nuclear Properties:
 (Nuclear quadrupole moments (NQMom) in fm**2, nuclear magnetic moments (NMagM)
  in nuclear magnetons)

  Atom         1           2           3           4
 IAtWgt=          16          16           1           1
 AtmWgt=  15.9949146  15.9949146   1.0078250   1.0078250
 NucSpn=           0           0           1           1
 AtZEff=  -0.0000000  -0.0000000  -0.0000000  -0.0000000
 NQMom=    0.0000000   0.0000000   0.0000000   0.0000000
 NMagM=    0.0000000   0.0000000   2.7928460   2.7928460
 AtZNuc=   8.0000000   8.0000000   1.0000000   1.0000000
 Leave Link  101 at Mon Apr 21 21:37:01 2025, MaxMem=   536870912 cpu:               3.2 elap:               0.5
 (Enter /home/szhao/Apps/g16/l103.exe)

 GradGradGradGradGradGradGradGradGradGradGradGradGradGradGradGradGradGrad
 Berny optimization.
 Initialization pass.
                           ----------------------------
                           !    Initial Parameters    !
                           ! (Angstroms and Degrees)  !
 --------------------------                            --------------------------
 ! Name  Definition              Value          Derivative Info.                !
 --------------------------------------------------------------------------------
 ! X1    R(1,-1)                -2.1869         Frozen                          !
 ! Y1    R(1,-2)                 0.0            Frozen                          !
 ! Z1    R(1,-3)                 0.0            Frozen                          !
 ! X2    R(2,-1)                 2.1869         Frozen                          !
 ! Y2    R(2,-2)                 0.0            Frozen                          !
 ! Z2    R(2,-3)                 0.0            Frozen                          !
 ! R1    R(1,3)                  0.9641         estimate D2E/DX2                !
 ! R2    R(2,4)                  0.9641         estimate D2E/DX2                !
 ! A1    A(2,1,3)              101.3523         estimate D2E/DX2                !
 ! A2    A(1,2,4)              101.3523         estimate D2E/DX2                !
 ! D1    D(3,1,2,4)           -119.1259         estimate D2E/DX2                !
 --------------------------------------------------------------------------------
 Trust Radius=3.00D-01 FncErr=1.00D-07 GrdErr=1.00D-07 EigMax=2.50D+02 EigMin=1.00D-04
 Number of steps in this run=     21 maximum allowed number of steps=    100.
 GradGradGradGradGradGradGradGradGradGradGradGradGradGradGradGradGradGrad

 Leave Link  103 at Mon Apr 21 21:37:02 2025, MaxMem=   536870912 cpu:               1.3 elap:               0.4
 (Enter /home/szhao/Apps/g16/l202.exe)
                          Input orientation:                          
 ---------------------------------------------------------------------
 Center     Atomic      Atomic             Coordinates (Angstroms)
 Number     Number       Type             X           Y           Z
 ---------------------------------------------------------------------
      1          8           0       -2.186938    0.000000    0.000000
      2          8           0        2.186938    0.000000    0.000000
      3          1           0       -2.376722   -0.945282    0.000000
      4          1           0        2.376722    0.460097    0.825754
 ---------------------------------------------------------------------
                    Distance matrix (angstroms):
                    1          2          3          4
     1  O    0.000000
     2  O    4.373876   0.000000
     3  H    0.964145   4.660531   0.000000
     4  H    4.660531   0.964145   5.025156   0.000000
 Symmetry turned off by external request.
 Stoichiometry    H2O2
 Framework group  C2[X(H2O2)]
 Deg. of freedom     4
 Full point group                 C2      NOp   2
 Rotational constants (GHZ):         300.7746510           3.0645384           3.0495488
 Leave Link  202 at Mon Apr 21 21:37:03 2025, MaxMem=   536870912 cpu:               0.2 elap:               0.1
 (Enter /home/szhao/Apps/g16/l301.exe)
 Standard basis: 6-311+G(d,p) (5D, 7F)
 Ernie: Thresh=  0.10000D-02 Tol=  0.10000D-05 Strict=F.
    56 basis functions,    88 primitive gaussians,    58 cartesian basis functions
     9 alpha electrons        9 beta electrons
       nuclear repulsion energy        18.4468119894 Hartrees.
 IExCor= 4336 DFT=T Ex+Corr=M062X ExCW=0 ScaHFX=  0.540000
 ScaDFX=  1.000000  1.000000  1.000000  1.000000 ScalE2=  1.000000  1.000000
 IRadAn=      7 IRanWt=     -1 IRanGd=            0 ICorTp=0 IEmpDi=  4
 NAtoms=    4 NActive=    4 NUniq=    4 SFac= 1.00D+00 NAtFMM=   60 NAOKFM=F Big=F
 Integral buffers will be    131072 words long.
 Raffenetti 2 integral format.
 Two-electron integral symmetry is turned off.
 Leave Link  301 at Mon Apr 21 21:37:03 2025, MaxMem=   536870912 cpu:               0.6 elap:               0.2
 (Enter /home/szhao/Apps/g16/l302.exe)
 NPDir=0 NMtPBC=     1 NCelOv=     1 NCel=       1 NClECP=     1 NCelD=      1
         NCelK=      1 NCelE2=     1 NClLst=     1 CellRange=     0.0.
 One-electron integrals computed using PRISM.
 NBasis=    56 RedAO= T EigKep=  6.49D-03  NBF=    56
 NBsUse=    56 1.00D-06 EigRej= -1.00D+00 NBFU=    56
 Precomputing XC quadrature grid using
 IXCGrd= 4 IRadAn=           7 IRanWt=          -1 IRanGd=           0 AccXCQ= 0.00D+00.
 Generated NRdTot=       0 NPtTot=           0 NUsed=           0 NTot=          32
 NSgBfM=    57    57    57    57    57 MxSgAt=     4 MxSgA2=     4.
 Leave Link  302 at Mon Apr 21 21:37:04 2025, MaxMem=   536870912 cpu:               2.5 elap:               0.4
 (Enter /home/szhao/Apps/g16/l303.exe)
 DipDrv:  MaxL=1.
 Leave Link  303 at Mon Apr 21 21:37:04 2025, MaxMem=   536870912 cpu:               1.0 elap:               0.3
 (Enter /home/szhao/Apps/g16/l401.exe)
 ExpMin= 8.45D-02 ExpMax= 8.59D+03 ExpMxC= 1.30D+03 IAcc=3 IRadAn=         7 AccDes= 0.00D+00
 Harris functional with IExCor= 1009 and IRadAn=       7 diagonalized for initial guess.
 HarFok:  IExCor= 1009 AccDes= 0.00D+00 IRadAn=         7 IDoV= 1 UseB2=F ITyADJ=14
 ICtDFT=  3500011 ScaDFX=  1.000000  1.000000  1.000000  1.000000
 FoFCou: FMM=F IPFlag=           0 FMFlag=      100000 FMFlg1=           0
         NFxFlg=           0 DoJE=T BraDBF=F KetDBF=T FulRan=T
         wScrn=  0.000000 ICntrl=       500 IOpCl=  0 I1Cent=   200000004 NGrid=           0
         NMat0=    1 NMatS0=      1 NMatT0=    0 NMatD0=    1 NMtDS0=    0 NMtDT0=    0
 Symmetry not used in FoFCou.
 Harris En= -151.309565557962    
 JPrj=0 DoOrth=F DoCkMO=F.
 Initial guess <Sx>= 0.0000 <Sy>= 0.0000 <Sz>= 0.0000 <S**2>=-0.0000 S=-0.0000
 Leave Link  401 at Mon Apr 21 21:37:05 2025, MaxMem=   536870912 cpu:               3.3 elap:               0.6
 (Enter /home/szhao/Apps/g16/l502.exe)
 Keep R1 and R2 ints in memory in canonical form, NReq=9624198.
 FoFCou: FMM=F IPFlag=           0 FMFlag=           0 FMFlg1=           0
         NFxFlg=           0 DoJE=F BraDBF=F KetDBF=F FulRan=T
         wScrn=  0.000000 ICntrl=       600 IOpCl=  0 I1Cent=           0 NGrid=           0
         NMat0=    1 NMatS0=   1596 NMatT0=    0 NMatD0=    1 NMtDS0=    0 NMtDT0=    0
 Symmetry not used in FoFCou.
 Two-electron integral symmetry not used.
 UHF open shell SCF:
 Using DIIS extrapolation, IDIIS=  1040.
 NGot=   536870912 LenX=   534314338 LenY=   534310533
 Requested convergence on RMS density matrix=1.00D-08 within 128 cycles.
 Requested convergence on MAX density matrix=1.00D-06.
 Requested convergence on             energy=1.00D-06.
 No special actions if energy rises.
 Integral accuracy reduced to 1.0D-05 until final iterations.

 Cycle   1  Pass 0  IDiag  1:
 E= -151.263098511334    
 DIIS: error= 3.30D-02 at cycle   1 NSaved=   1.
 NSaved= 1 IEnMin= 1 EnMin= -151.263098511334     IErMin= 1 ErrMin= 3.30D-02
 ErrMax= 3.30D-02  0.00D+00 EMaxC= 1.00D-01 BMatC= 2.40D-01 BMatP= 2.40D-01
 IDIUse=3 WtCom= 6.70D-01 WtEn= 3.30D-01
 Coeff-Com:  0.100D+01
 Coeff-En:   0.100D+01
 Coeff:      0.100D+01
 Gap=     0.160 Goal=   None    Shift=    0.000
 Gap=     0.160 Goal=   None    Shift=    0.000
 GapD=    0.160 DampG=1.000 DampE=0.500 DampFc=0.5000 IDamp=-1.
 Damping current iteration by 5.00D-01
 RMSDP=3.41D-03 MaxDP=3.77D-02              OVMax= 1.04D-01

 Cycle   2  Pass 0  IDiag  1:
 E= -151.278318626923     Delta-E=       -0.015220115588 Rises=F Damp=T
 DIIS: error= 9.86D-03 at cycle   2 NSaved=   2.
 NSaved= 2 IEnMin= 2 EnMin= -151.278318626923     IErMin= 2 ErrMin= 9.86D-03
 ErrMax= 9.86D-03  0.00D+00 EMaxC= 1.00D-01 BMatC= 2.32D-02 BMatP= 2.40D-01
 IDIUse=3 WtCom= 9.01D-01 WtEn= 9.86D-02
 Coeff-Com: -0.114D+00 0.111D+01
 Coeff-En:   0.000D+00 0.100D+01
 Coeff:     -0.103D+00 0.110D+01
 Gap=     0.070 Goal=   None    Shift=    0.000
 Gap=     0.070 Goal=   None    Shift=    0.000
 RMSDP=6.51D-04 MaxDP=1.38D-02 DE=-1.52D-02 OVMax= 4.57D-02

 Cycle   3  Pass 0  IDiag  1:
 E= -151.293918621460     Delta-E=       -0.015599994537 Rises=F Damp=F
 DIIS: error= 3.59D-03 at cycle   3 NSaved=   3.
 NSaved= 3 IEnMin= 3 EnMin= -151.293918621460     IErMin= 3 ErrMin= 3.59D-03
 ErrMax= 3.59D-03  0.00D+00 EMaxC= 1.00D-01 BMatC= 2.33D-03 BMatP= 2.32D-02
 IDIUse=3 WtCom= 9.64D-01 WtEn= 3.59D-02
 Coeff-Com: -0.104D+00 0.215D+00 0.889D+00
 Coeff-En:   0.000D+00 0.000D+00 0.100D+01
 Coeff:     -0.100D+00 0.207D+00 0.893D+00
 Gap=     0.070 Goal=   None    Shift=    0.000
 Gap=     0.070 Goal=   None    Shift=    0.000
 RMSDP=2.21D-04 MaxDP=2.50D-03 DE=-1.56D-02 OVMax= 8.96D-03

 Cycle   4  Pass 0  IDiag  1:
 E= -151.294350970982     Delta-E=       -0.000432349522 Rises=F Damp=F
 DIIS: error= 3.86D-04 at cycle   4 NSaved=   4.
 NSaved= 4 IEnMin= 4 EnMin= -151.294350970982     IErMin= 4 ErrMin= 3.86D-04
 ErrMax= 3.86D-04  0.00D+00 EMaxC= 1.00D-01 BMatC= 1.96D-05 BMatP= 2.33D-03
 IDIUse=3 WtCom= 9.96D-01 WtEn= 3.86D-03
 Coeff-Com: -0.460D-02 0.503D-02 0.984D-01 0.901D+00
 Coeff-En:   0.000D+00 0.000D+00 0.000D+00 0.100D+01
 Coeff:     -0.458D-02 0.501D-02 0.981D-01 0.902D+00
 Gap=     0.070 Goal=   None    Shift=    0.000
 Gap=     0.070 Goal=   None    Shift=    0.000
 RMSDP=4.97D-05 MaxDP=6.28D-04 DE=-4.32D-04 OVMax= 2.99D-03

 Cycle   5  Pass 0  IDiag  1:
 E= -151.294341643868     Delta-E=        0.000009327114 Rises=F Damp=F
 DIIS: error= 7.66D-04 at cycle   5 NSaved=   5.
 NSaved= 5 IEnMin= 4 EnMin= -151.294350970982     IErMin= 4 ErrMin= 3.86D-04
 ErrMax= 7.66D-04  0.00D+00 EMaxC= 1.00D-01 BMatC= 5.84D-05 BMatP= 1.96D-05
 IDIUse=3 WtCom= 2.65D-01 WtEn= 7.35D-01
 Coeff-Com: -0.255D-02 0.147D-02 0.740D-01 0.772D+00 0.155D+00
 Coeff-En:   0.000D+00 0.000D+00 0.000D+00 0.794D+00 0.206D+00
 Coeff:     -0.677D-03 0.390D-03 0.196D-01 0.788D+00 0.192D+00
 Gap=     0.070 Goal=   None    Shift=    0.000
 Gap=     0.070 Goal=   None    Shift=    0.000
 RMSDP=7.98D-05 MaxDP=1.33D-03 DE= 9.33D-06 OVMax= 6.73D-03

 Cycle   6  Pass 0  IDiag  1:
 E= -151.294321810564     Delta-E=        0.000019833304 Rises=F Damp=F
 DIIS: error= 1.18D-03 at cycle   6 NSaved=   6.
 NSaved= 6 IEnMin= 4 EnMin= -151.294350970982     IErMin= 4 ErrMin= 3.86D-04
 ErrMax= 1.18D-03  0.00D+00 EMaxC= 1.00D-01 BMatC= 1.39D-04 BMatP= 1.96D-05
 IDIUse=3 WtCom= 2.65D-01 WtEn= 7.35D-01
 Coeff-Com:  0.436D-02-0.852D-02-0.495D-01-0.546D-01 0.670D+00 0.439D+00
 Coeff-En:   0.000D+00 0.000D+00 0.000D+00 0.000D+00 0.615D+00 0.385D+00
 Coeff:      0.116D-02-0.226D-02-0.131D-01-0.145D-01 0.630D+00 0.399D+00
 Gap=     0.070 Goal=   None    Shift=    0.000
 Gap=     0.070 Goal=   None    Shift=    0.000
 RMSDP=4.36D-05 MaxDP=7.53D-04 DE= 1.98D-05 OVMax= 3.53D-03

 Cycle   7  Pass 0  IDiag  1:
 E= -151.294356062677     Delta-E=       -0.000034252113 Rises=F Damp=F
 DIIS: error= 1.66D-04 at cycle   7 NSaved=   7.
 NSaved= 7 IEnMin= 7 EnMin= -151.294356062677     IErMin= 7 ErrMin= 1.66D-04
 ErrMax= 1.66D-04  0.00D+00 EMaxC= 1.00D-01 BMatC= 2.89D-06 BMatP= 1.96D-05
 IDIUse=3 WtCom= 9.98D-01 WtEn= 1.66D-03
 Coeff-Com:  0.991D-04-0.247D-03 0.126D-01-0.482D-01-0.882D-01-0.248D+00
 Coeff-Com:  0.137D+01
 Coeff-En:   0.000D+00 0.000D+00 0.000D+00 0.000D+00 0.130D+00 0.000D+00
 Coeff-En:   0.870D+00
 Coeff:      0.989D-04-0.247D-03 0.126D-01-0.481D-01-0.879D-01-0.248D+00
 Coeff:      0.137D+01
 Gap=     0.070 Goal=   None    Shift=    0.000
 Gap=     0.070 Goal=   None    Shift=    0.000
 RMSDP=1.33D-05 MaxDP=1.26D-04 DE=-3.43D-05 OVMax= 8.40D-04

 Cycle   8  Pass 0  IDiag  1:
 E= -151.294357134314     Delta-E=       -0.000001071637 Rises=F Damp=F
 DIIS: error= 4.18D-05 at cycle   8 NSaved=   8.
 NSaved= 8 IEnMin= 8 EnMin= -151.294357134314     IErMin= 8 ErrMin= 4.18D-05
 ErrMax= 4.18D-05  0.00D+00 EMaxC= 1.00D-01 BMatC= 5.76D-08 BMatP= 2.89D-06
 IDIUse=1 WtCom= 1.00D+00 WtEn= 0.00D+00
 Coeff-Com: -0.496D-03 0.978D-03 0.327D-02 0.177D-01-0.727D-01-0.760D-02
 Coeff-Com: -0.273D+00 0.133D+01
 Coeff:     -0.496D-03 0.978D-03 0.327D-02 0.177D-01-0.727D-01-0.760D-02
 Coeff:     -0.273D+00 0.133D+01
 Gap=     0.070 Goal=   None    Shift=    0.000
 Gap=     0.070 Goal=   None    Shift=    0.000
 RMSDP=1.08D-05 MaxDP=9.50D-05 DE=-1.07D-06 OVMax= 8.93D-04

 Cycle   9  Pass 0  IDiag  1:
 E= -151.294357486124     Delta-E=       -0.000000351810 Rises=F Damp=F
 DIIS: error= 4.05D-05 at cycle   9 NSaved=   9.
 NSaved= 9 IEnMin= 9 EnMin= -151.294357486124     IErMin= 9 ErrMin= 4.05D-05
 ErrMax= 4.05D-05  0.00D+00 EMaxC= 1.00D-01 BMatC= 5.17D-08 BMatP= 5.76D-08
 IDIUse=1 WtCom= 1.00D+00 WtEn= 0.00D+00
 Coeff-Com:  0.574D-04-0.799D-04-0.524D-02 0.154D-01 0.519D-01 0.955D-01
 Coeff-Com: -0.451D+00-0.251D+00 0.154D+01
 Coeff:      0.574D-04-0.799D-04-0.524D-02 0.154D-01 0.519D-01 0.955D-01
 Coeff:     -0.451D+00-0.251D+00 0.154D+01
 Gap=     0.070 Goal=   None    Shift=    0.000
 Gap=     0.070 Goal=   None    Shift=    0.000
 RMSDP=1.44D-05 MaxDP=1.28D-04 DE=-3.52D-07 OVMax= 1.21D-03

 Cycle  10  Pass 0  IDiag  1:
 E= -151.294357942753     Delta-E=       -0.000000456630 Rises=F Damp=F
 DIIS: error= 3.90D-05 at cycle  10 NSaved=  10.
 NSaved=10 IEnMin=10 EnMin= -151.294357942753     IErMin=10 ErrMin= 3.90D-05
 ErrMax= 3.90D-05  0.00D+00 EMaxC= 1.00D-01 BMatC= 4.85D-08 BMatP= 5.17D-08
 IDIUse=1 WtCom= 1.00D+00 WtEn= 0.00D+00
 Large coefficients: NSaved= 10 BigCof=   11.73 CofMax=   10.00 Det=-7.71D-11
 Inversion failed.  Reducing to  9 matrices.
 Large coefficients: NSaved=  9 BigCof=   11.55 CofMax=   10.00 Det=-7.75D-11
 Inversion failed.  Reducing to  8 matrices.
 Large coefficients: NSaved=  8 BigCof=   10.84 CofMax=   10.00 Det=-8.29D-11
 Inversion failed.  Reducing to  7 matrices.
 Coeff-Com: -0.121D-01 0.597D-02-0.872D-02 0.102D+00 0.658D-01-0.402D+01
 Coeff-Com:  0.487D+01
 Coeff:     -0.121D-01 0.597D-02-0.872D-02 0.102D+00 0.658D-01-0.402D+01
 Coeff:      0.487D+01
 Gap=     0.070 Goal=   None    Shift=    0.000
 Gap=     0.070 Goal=   None    Shift=    0.000
 RMSDP=5.95D-05 MaxDP=5.29D-04 DE=-4.57D-07 OVMax= 4.97D-03

 Cycle  11  Pass 0  IDiag  1:
 E= -151.294359672979     Delta-E=       -0.000001730226 Rises=F Damp=F
 DIIS: error= 3.36D-05 at cycle  11 NSaved=   8.
 NSaved= 8 IEnMin= 8 EnMin= -151.294359672979     IErMin= 8 ErrMin= 3.36D-05
 ErrMax= 3.36D-05  0.00D+00 EMaxC= 1.00D-01 BMatC= 3.89D-08 BMatP= 4.85D-08
 IDIUse=1 WtCom= 1.00D+00 WtEn= 0.00D+00
 Coeff-Com:  0.511D-02-0.352D-01-0.175D-01 0.674D-01 0.523D+01-0.405D+01
 Coeff-Com: -0.849D+01 0.830D+01
 Coeff:      0.511D-02-0.352D-01-0.175D-01 0.674D-01 0.523D+01-0.405D+01
 Coeff:     -0.849D+01 0.830D+01
 Gap=     0.070 Goal=   None    Shift=    0.000
 Gap=     0.070 Goal=   None    Shift=    0.000
 RMSDP=3.61D-04 MaxDP=3.22D-03 DE=-1.73D-06 OVMax= 3.02D-02

 Cycle  12  Pass 0  IDiag  1:
 E= -151.294364996362     Delta-E=       -0.000005323383 Rises=F Damp=F
 DIIS: error= 1.55D-05 at cycle  12 NSaved=   9.
 NSaved= 9 IEnMin= 9 EnMin= -151.294364996362     IErMin= 9 ErrMin= 1.55D-05
 ErrMax= 1.55D-05  0.00D+00 EMaxC= 1.00D-01 BMatC= 4.07D-08 BMatP= 3.89D-08
 IDIUse=1 WtCom= 1.00D+00 WtEn= 0.00D+00
 Coeff-Com:  0.474D-02-0.446D-01-0.215D-01 0.636D-01 0.571D+01-0.432D+01
 Coeff-Com: -0.929D+01 0.897D+01-0.719D-01
 Coeff:      0.474D-02-0.446D-01-0.215D-01 0.636D-01 0.571D+01-0.432D+01
 Coeff:     -0.929D+01 0.897D+01-0.719D-01
 Gap=     0.070 Goal=   None    Shift=    0.000
 Gap=     0.070 Goal=   None    Shift=    0.000
 RMSDP=1.94D-06 MaxDP=1.73D-05 DE=-5.32D-06 OVMax= 1.62D-04

 Initial convergence to 1.0D-05 achieved.  Increase integral accuracy.
 Cycle  13  Pass 1  IDiag  1:
 E= -151.294363904136     Delta-E=        0.000001092226 Rises=F Damp=F
 DIIS: error= 1.66D-05 at cycle   1 NSaved=   1.
 NSaved= 1 IEnMin= 1 EnMin= -151.294363904136     IErMin= 1 ErrMin= 1.66D-05
 ErrMax= 1.66D-05  0.00D+00 EMaxC= 1.00D-01 BMatC= 4.96D-08 BMatP= 4.96D-08
 IDIUse=1 WtCom= 1.00D+00 WtEn= 0.00D+00
 Coeff-Com:  0.100D+01
 Coeff:      0.100D+01
 Gap=     0.070 Goal=   None    Shift=    0.000
 Gap=     0.070 Goal=   None    Shift=    0.000
 RMSDP=1.94D-06 MaxDP=1.73D-05 DE= 1.09D-06 OVMax= 2.44D-04

 Cycle  14  Pass 1  IDiag  1:
 E= -151.294363822071     Delta-E=        0.000000082065 Rises=F Damp=F
 DIIS: error= 6.23D-05 at cycle   2 NSaved=   2.
 NSaved= 2 IEnMin= 1 EnMin= -151.294363904136     IErMin= 1 ErrMin= 1.66D-05
 ErrMax= 6.23D-05  0.00D+00 EMaxC= 1.00D-01 BMatC= 3.91D-07 BMatP= 4.96D-08
 IDIUse=1 WtCom= 1.00D+00 WtEn= 0.00D+00
 Coeff-Com:  0.848D+00 0.152D+00
 Coeff:      0.848D+00 0.152D+00
 Gap=     0.070 Goal=   None    Shift=    0.000
 Gap=     0.070 Goal=   None    Shift=    0.000
 RMSDP=5.31D-06 MaxDP=8.78D-05 DE= 8.21D-08 OVMax= 4.50D-04

 Cycle  15  Pass 1  IDiag  1:
 E= -151.294363808712     Delta-E=        0.000000013358 Rises=F Damp=F
 DIIS: error= 6.66D-05 at cycle   3 NSaved=   3.
 NSaved= 3 IEnMin= 1 EnMin= -151.294363904136     IErMin= 1 ErrMin= 1.66D-05
 ErrMax= 6.66D-05  0.00D+00 EMaxC= 1.00D-01 BMatC= 4.46D-07 BMatP= 4.96D-08
 IDIUse=1 WtCom= 1.00D+00 WtEn= 0.00D+00
 Coeff-Com: -0.476D-01 0.540D+00 0.508D+00
 Coeff:     -0.476D-01 0.540D+00 0.508D+00
 Gap=     0.070 Goal=   None    Shift=    0.000
 Gap=     0.070 Goal=   None    Shift=    0.000
 RMSDP=2.82D-06 MaxDP=4.79D-05 DE= 1.34D-08 OVMax= 2.33D-04

 Cycle  16  Pass 1  IDiag  1:
 E= -151.294363921043     Delta-E=       -0.000000112331 Rises=F Damp=F
 DIIS: error= 2.96D-06 at cycle   4 NSaved=   4.
 NSaved= 4 IEnMin= 4 EnMin= -151.294363921043     IErMin= 4 ErrMin= 2.96D-06
 ErrMax= 2.96D-06  0.00D+00 EMaxC= 1.00D-01 BMatC= 1.46D-09 BMatP= 4.96D-08
 IDIUse=1 WtCom= 1.00D+00 WtEn= 0.00D+00
 Coeff-Com: -0.684D-01 0.254D+00 0.240D+00 0.575D+00
 Coeff:     -0.684D-01 0.254D+00 0.240D+00 0.575D+00
 Gap=     0.070 Goal=   None    Shift=    0.000
 Gap=     0.070 Goal=   None    Shift=    0.000
 RMSDP=3.50D-07 MaxDP=2.80D-06 DE=-1.12D-07 OVMax= 2.51D-05

 Cycle  17  Pass 1  IDiag  1:
 E= -151.294363921911     Delta-E=       -0.000000000867 Rises=F Damp=F
 DIIS: error= 2.71D-06 at cycle   5 NSaved=   5.
 NSaved= 5 IEnMin= 5 EnMin= -151.294363921911     IErMin= 5 ErrMin= 2.71D-06
 ErrMax= 2.71D-06  0.00D+00 EMaxC= 1.00D-01 BMatC= 2.56D-10 BMatP= 1.46D-09
 IDIUse=1 WtCom= 1.00D+00 WtEn= 0.00D+00
 Coeff-Com:  0.675D-02-0.633D-01-0.654D-01-0.483D-01 0.117D+01
 Coeff:      0.675D-02-0.633D-01-0.654D-01-0.483D-01 0.117D+01
 Gap=     0.070 Goal=   None    Shift=    0.000
 Gap=     0.070 Goal=   None    Shift=    0.000
 RMSDP=5.83D-07 MaxDP=5.45D-06 DE=-8.67D-10 OVMax= 4.80D-05

 Cycle  18  Pass 1  IDiag  1:
 E= -151.294363923156     Delta-E=       -0.000000001245 Rises=F Damp=F
 DIIS: error= 2.66D-06 at cycle   6 NSaved=   6.
 NSaved= 6 IEnMin= 6 EnMin= -151.294363923156     IErMin= 6 ErrMin= 2.66D-06
 ErrMax= 2.66D-06  0.00D+00 EMaxC= 1.00D-01 BMatC= 2.30D-10 BMatP= 2.56D-10
 IDIUse=1 WtCom= 1.00D+00 WtEn= 0.00D+00
 Coeff-Com: -0.121D-01 0.162D+00 0.184D+00 0.719D-01-0.378D+01 0.438D+01
 Coeff:     -0.121D-01 0.162D+00 0.184D+00 0.719D-01-0.378D+01 0.438D+01
 Gap=     0.070 Goal=   None    Shift=    0.000
 Gap=     0.070 Goal=   None    Shift=    0.000
 RMSDP=2.10D-06 MaxDP=1.99D-05 DE=-1.25D-09 OVMax= 1.75D-04

 Cycle  19  Pass 1  IDiag  1:
 E= -151.294363927451     Delta-E=       -0.000000004295 Rises=F Damp=F
 DIIS: error= 2.49D-06 at cycle   7 NSaved=   7.
 NSaved= 7 IEnMin= 7 EnMin= -151.294363927451     IErMin= 7 ErrMin= 2.49D-06
 ErrMax= 2.49D-06  0.00D+00 EMaxC= 1.00D-01 BMatC= 2.71D-10 BMatP= 2.30D-10
 IDIUse=1 WtCom= 1.00D+00 WtEn= 0.00D+00
 Coeff-Com: -0.168D-01 0.130D+00 0.144D-01 0.130D+00-0.389D+00-0.592D+01
 Coeff-Com:  0.705D+01
 Coeff:     -0.168D-01 0.130D+00 0.144D-01 0.130D+00-0.389D+00-0.592D+01
 Coeff:      0.705D+01
 Gap=     0.070 Goal=   None    Shift=    0.000
 Gap=     0.070 Goal=   None    Shift=    0.000
 RMSDP=1.29D-05 MaxDP=1.22D-04 DE=-4.29D-09 OVMax= 1.07D-03

 Cycle  20  Pass 1  IDiag  1:
 E= -151.294363947239     Delta-E=       -0.000000019788 Rises=F Damp=F
 DIIS: error= 2.15D-06 at cycle   8 NSaved=   8.
 NSaved= 8 IEnMin= 8 EnMin= -151.294363947239     IErMin= 8 ErrMin= 2.15D-06
 ErrMax= 2.15D-06  0.00D+00 EMaxC= 1.00D-01 BMatC= 4.75D-10 BMatP= 2.30D-10
 IDIUse=1 WtCom= 1.00D+00 WtEn= 0.00D+00
 Coeff-Com:  0.745D-02-0.176D+00-0.127D+00-0.498D-01 0.336D+01-0.362D+01
 Coeff-Com: -0.411D+00 0.201D+01
 Coeff:      0.745D-02-0.176D+00-0.127D+00-0.498D-01 0.336D+01-0.362D+01
 Coeff:     -0.411D+00 0.201D+01
 Gap=     0.070 Goal=   None    Shift=    0.000
 Gap=     0.070 Goal=   None    Shift=    0.000
 RMSDP=1.28D-05 MaxDP=1.21D-04 DE=-1.98D-08 OVMax= 1.07D-03

 Cycle  21  Pass 1  IDiag  1:
 E= -151.294363955893     Delta-E=       -0.000000008654 Rises=F Damp=F
 DIIS: error= 5.87D-07 at cycle   9 NSaved=   9.
 NSaved= 9 IEnMin= 9 EnMin= -151.294363955893     IErMin= 9 ErrMin= 5.87D-07
 ErrMax= 5.87D-07  0.00D+00 EMaxC= 1.00D-01 BMatC= 3.28D-11 BMatP= 2.30D-10
 IDIUse=1 WtCom= 1.00D+00 WtEn= 0.00D+00
 Coeff-Com: -0.254D-02 0.387D-01 0.345D-01-0.119D-04-0.111D+01 0.274D+01
 Coeff-Com: -0.155D+01-0.781D+00 0.163D+01
 Coeff:     -0.254D-02 0.387D-01 0.345D-01-0.119D-04-0.111D+01 0.274D+01
 Coeff:     -0.155D+01-0.781D+00 0.163D+01
 Gap=     0.070 Goal=   None    Shift=    0.000
 Gap=     0.070 Goal=   None    Shift=    0.000
 RMSDP=3.18D-06 MaxDP=3.00D-05 DE=-8.65D-09 OVMax= 2.65D-04

 Cycle  22  Pass 1  IDiag  1:
 E= -151.294363956303     Delta-E=       -0.000000000410 Rises=F Damp=F
 DIIS: error= 2.42D-07 at cycle  10 NSaved=  10.
 NSaved=10 IEnMin=10 EnMin= -151.294363956303     IErMin=10 ErrMin= 2.42D-07
 ErrMax= 2.42D-07  0.00D+00 EMaxC= 1.00D-01 BMatC= 2.04D-12 BMatP= 3.28D-11
 IDIUse=1 WtCom= 1.00D+00 WtEn= 0.00D+00
 Coeff-Com: -0.610D-03 0.200D-01 0.164D-01-0.209D-02-0.524D+00 0.118D+01
 Coeff-Com: -0.605D+00-0.361D+00 0.630D+00 0.646D+00
 Coeff:     -0.610D-03 0.200D-01 0.164D-01-0.209D-02-0.524D+00 0.118D+01
 Coeff:     -0.605D+00-0.361D+00 0.630D+00 0.646D+00
 Gap=     0.070 Goal=   None    Shift=    0.000
 Gap=     0.070 Goal=   None    Shift=    0.000
 RMSDP=1.20D-07 MaxDP=1.03D-06 DE=-4.10D-10 OVMax= 9.07D-06

 Cycle  23  Pass 1  IDiag  1:
 E= -151.294363956324     Delta-E=       -0.000000000021 Rises=F Damp=F
 DIIS: error= 5.39D-07 at cycle  11 NSaved=  11.
 NSaved=11 IEnMin=11 EnMin= -151.294363956324     IErMin=10 ErrMin= 2.42D-07
 ErrMax= 5.39D-07  0.00D+00 EMaxC= 1.00D-01 BMatC= 1.31D-11 BMatP= 2.04D-12
 IDIUse=1 WtCom= 1.00D+00 WtEn= 0.00D+00
 Coeff-Com:  0.842D-03 0.104D-01 0.567D-02-0.385D-02-0.172D+00 0.145D+00
 Coeff-Com:  0.741D-01-0.100D+00-0.924D-01 0.155D+01-0.421D+00
 Coeff:      0.842D-03 0.104D-01 0.567D-02-0.385D-02-0.172D+00 0.145D+00
 Coeff:      0.741D-01-0.100D+00-0.924D-01 0.155D+01-0.421D+00
 Gap=     0.070 Goal=   None    Shift=    0.000
 Gap=     0.070 Goal=   None    Shift=    0.000
 RMSDP=1.28D-07 MaxDP=1.16D-06 DE=-2.07D-11 OVMax= 9.00D-06

 Cycle  24  Pass 1  IDiag  1:
 E= -151.294363956304     Delta-E=        0.000000000020 Rises=F Damp=F
 DIIS: error= 5.48D-08 at cycle  12 NSaved=  12.
 NSaved=12 IEnMin=11 EnMin= -151.294363956324     IErMin=12 ErrMin= 5.48D-08
 ErrMax= 5.48D-08  0.00D+00 EMaxC= 1.00D-01 BMatC= 2.01D-13 BMatP= 2.04D-12
 IDIUse=1 WtCom= 1.00D+00 WtEn= 0.00D+00
 Coeff-Com:  0.334D-03-0.143D-02-0.117D-02-0.979D-03 0.479D-01-0.142D+00
 Coeff-Com:  0.976D-01 0.295D-01-0.989D-01 0.116D+00-0.551D-01 0.101D+01
 Coeff:      0.334D-03-0.143D-02-0.117D-02-0.979D-03 0.479D-01-0.142D+00
 Coeff:      0.976D-01 0.295D-01-0.989D-01 0.116D+00-0.551D-01 0.101D+01
 Gap=     0.070 Goal=   None    Shift=    0.000
 Gap=     0.070 Goal=   None    Shift=    0.000
 RMSDP=1.21D-08 MaxDP=1.04D-07 DE= 2.00D-11 OVMax= 9.72D-07

 Cycle  25  Pass 1  IDiag  1:
 E= -151.294363956304     Delta-E=        0.000000000000 Rises=F Damp=F
 DIIS: error= 1.40D-08 at cycle  13 NSaved=  13.
 NSaved=13 IEnMin=11 EnMin= -151.294363956324     IErMin=13 ErrMin= 1.40D-08
 ErrMax= 1.40D-08  0.00D+00 EMaxC= 1.00D-01 BMatC= 1.99D-14 BMatP= 2.01D-13
 IDIUse=1 WtCom= 1.00D+00 WtEn= 0.00D+00
 Coeff-Com: -0.942D-04 0.800D-04 0.204D-03 0.331D-03-0.558D-02 0.174D-01
 Coeff-Com: -0.121D-01-0.497D-02 0.177D-01-0.377D-01 0.134D-01-0.142D+00
 Coeff-Com:  0.115D+01
 Coeff:     -0.942D-04 0.800D-04 0.204D-03 0.331D-03-0.558D-02 0.174D-01
 Coeff:     -0.121D-01-0.497D-02 0.177D-01-0.377D-01 0.134D-01-0.142D+00
 Coeff:      0.115D+01
 Gap=     0.070 Goal=   None    Shift=    0.000
 Gap=     0.070 Goal=   None    Shift=    0.000
 RMSDP=2.56D-09 MaxDP=2.13D-08 DE= 1.71D-13 OVMax= 2.06D-07

 SCF Done:  E(UM062X) =  -151.294363956     A.U. after   25 cycles
            NFock= 25  Conv=0.26D-08     -V/T= 2.0025
 <Sx>= 0.0000 <Sy>= 0.0000 <Sz>= 0.0000 <S**2>=-0.0000 S=-0.0000
 <L.S>=  0.00000000000    
 KE= 1.509176179487D+02 PE=-3.953324265249D+02 EE= 7.467363263051D+01
 Annihilation of the first spin contaminant:
 S**2 before annihilation    -0.0000,   after     0.0000
 Leave Link  502 at Mon Apr 21 21:37:11 2025, MaxMem=   536870912 cpu:              40.0 elap:               5.4
 (Enter /home/szhao/Apps/g16/l601.exe)
 Copying SCF densities to generalized density rwf, IOpCl= 1 IROHF=0.

 **********************************************************************

            Population analysis using the SCF density.

 **********************************************************************

 Alpha  occ. eigenvalues --  -19.71628 -19.71627  -1.12680  -1.12597  -0.56346
 Alpha  occ. eigenvalues --   -0.56327  -0.43620  -0.43602  -0.34714
 Alpha virt. eigenvalues --   -0.27674   0.06168   0.07201   0.15042   0.15765
 Alpha virt. eigenvalues --    0.16137   0.17943   0.18389   0.20318   0.21978
 Alpha virt. eigenvalues --    0.28574   0.50491   0.50817   0.99790   1.00695
 Alpha virt. eigenvalues --    1.04040   1.04704   1.04920   1.05483   1.26594
 Alpha virt. eigenvalues --    1.33637   1.36574   1.36585   1.36962   1.36991
 Alpha virt. eigenvalues --    2.02895   2.02972   2.44350   2.44966   2.83125
 Alpha virt. eigenvalues --    2.83199   2.84435   2.84445   3.12888   3.13002
 Alpha virt. eigenvalues --    3.15594   3.15600   3.80477   3.80950   4.97018
 Alpha virt. eigenvalues --    4.98540   4.99385   5.00193   5.47716   5.48165
 Alpha virt. eigenvalues --   49.80878  49.82607
  Beta  occ. eigenvalues --  -19.71628 -19.71627  -1.12680  -1.12597  -0.56346
  Beta  occ. eigenvalues --   -0.56327  -0.43620  -0.43602  -0.34714
  Beta virt. eigenvalues --   -0.27674   0.06168   0.07201   0.15042   0.15765
  Beta virt. eigenvalues --    0.16137   0.17943   0.18389   0.20318   0.21978
  Beta virt. eigenvalues --    0.28574   0.50491   0.50817   0.99790   1.00695
  Beta virt. eigenvalues --    1.04040   1.04704   1.04920   1.05483   1.26594
  Beta virt. eigenvalues --    1.33637   1.36574   1.36585   1.36962   1.36991
  Beta virt. eigenvalues --    2.02895   2.02972   2.44350   2.44966   2.83125
  Beta virt. eigenvalues --    2.83199   2.84435   2.84445   3.12888   3.13002
  Beta virt. eigenvalues --    3.15594   3.15600   3.80477   3.80950   4.97018
  Beta virt. eigenvalues --    4.98540   4.99385   5.00193   5.47716   5.48165
  Beta virt. eigenvalues --   49.80878  49.82607
          Condensed to atoms (all electrons):
               1          2          3          4
     1  O    7.988380   0.012220   0.260875  -0.000096
     2  O    0.012220   7.988379  -0.000096   0.260875
     3  H    0.260875  -0.000096   0.477831   0.000011
     4  H   -0.000096   0.260875   0.000011   0.477831
          Atomic-Atomic Spin Densities.
               1          2          3          4
     1  O   -0.000000   0.000000  -0.000000   0.000000
     2  O    0.000000   0.000000  -0.000000   0.000000
     3  H   -0.000000  -0.000000   0.000000  -0.000000
     4  H    0.000000   0.000000  -0.000000  -0.000000
 Mulliken charges and spin densities:
               1          2
     1  O   -0.261379  -0.000000
     2  O   -0.261378   0.000000
     3  H    0.261379  -0.000000
     4  H    0.261378   0.000000
 Sum of Mulliken charges =  -0.00000  -0.00000
 Mulliken charges and spin densities with hydrogens summed into heavy atoms:
               1          2
     1  O   -0.000000  -0.000000
     2  O    0.000000   0.000000
 Electronic spatial extent (au):  <R**2>=            342.5569
 Charge=             -0.0000 electrons
 Dipole moment (field-independent basis, Debye):
    X=              0.0000    Y=             -0.9396    Z=              1.5992  Tot=              1.8548
 Quadrupole moment (field-independent basis, Debye-Ang):
   XX=             -7.8199   YY=            -10.6762   ZZ=            -11.8497
   XY=              6.4625   XZ=              3.7971   YZ=              1.0531
 Traceless Quadrupole moment (field-independent basis, Debye-Ang):
   XX=              2.2954   YY=             -0.5609   ZZ=             -1.7344
   XY=              6.4625   XZ=              3.7971   YZ=              1.0531
 Octapole moment (field-independent basis, Debye-Ang**2):
  XXX=              0.0001  YYY=             -0.9182  ZZZ=              0.1621  XYY=             -4.3537
  XXY=             -5.0862  XXZ=              8.6567  XZZ=              4.3537  YZZ=              0.8061
  YYZ=              0.0286  XYZ=              2.4258
 Hexadecapole moment (field-independent basis, Debye-Ang**3):
 XXXX=           -308.5133 YYYY=            -11.4665 ZZZZ=            -11.9063 XXXY=             32.1395
 XXXZ=             18.8830 YYYX=              0.7741 YYYZ=             -0.0223 ZZZX=              0.5023
 ZZZY=              0.4170 XXYY=            -53.3772 XXZZ=            -59.6177 YYZZ=             -4.0767
 XXYZ=              5.6001 YYXZ=              0.1032 ZZXY=              0.2566
 N-N= 1.844681198937D+01 E-N=-3.953324265403D+02  KE= 1.509176179487D+02
                          Isotropic Fermi Contact Couplings
        Atom                 a.u.       MegaHertz       Gauss      10(-4) cm-1
     1  O(17)              0.00000      -0.00000      -0.00000      -0.00000
     2  O(17)              0.00000      -0.00000      -0.00000      -0.00000
     3  H(1)               0.00000       0.00000       0.00000       0.00000
     4  H(1)              -0.00000      -0.00000      -0.00000      -0.00000
 --------------------------------------------------------
       Center         ----  Spin Dipole Couplings  ----
                      3XX-RR        3YY-RR        3ZZ-RR
 --------------------------------------------------------
     1   Atom       -0.000000      0.000000      0.000000
     2   Atom        0.000000     -0.000000      0.000000
     3   Atom       -0.000000     -0.000000      0.000000
     4   Atom        0.000000     -0.000000      0.000000
 --------------------------------------------------------
                        XY            XZ            YZ
 --------------------------------------------------------
     1   Atom        0.000000     -0.000000      0.000000
     2   Atom        0.000000     -0.000000     -0.000000
     3   Atom       -0.000000     -0.000000      0.000000
     4   Atom        0.000000     -0.000000     -0.000000
 --------------------------------------------------------


 ---------------------------------------------------------------------------------
              Anisotropic Spin Dipole Couplings in Principal Axis System
 ---------------------------------------------------------------------------------

       Atom             a.u.   MegaHertz   Gauss  10(-4) cm-1        Axes

              Baa    -0.0000     0.000     0.000     0.000  0.7052 -0.1370  0.6956
     1 O(17)  Bbb     0.0000    -0.000    -0.000    -0.000  0.1898  0.9818  0.0008
              Bcc     0.0000    -0.000    -0.000    -0.000 -0.6831  0.1315  0.7184
 
              Baa    -0.0000     0.000     0.000     0.000 -0.6826  0.6921 -0.2346
     2 O(17)  Bbb    -0.0000     0.000     0.000     0.000  0.1898  0.4780  0.8576
              Bcc     0.0000    -0.000    -0.000    -0.000  0.7057  0.5409 -0.4577
 
              Baa    -0.0000    -0.000    -0.000    -0.000  0.7060 -0.1363  0.6950
     3 H(1)   Bbb    -0.0000    -0.000    -0.000    -0.000  0.1875  0.9823  0.0021
              Bcc     0.0000     0.000     0.000     0.000 -0.6829  0.1288  0.7191
 
              Baa    -0.0000    -0.000    -0.000    -0.000 -0.6827  0.6907 -0.2385
     4 H(1)   Bbb     0.0000     0.000     0.000     0.000  0.1876  0.4812  0.8563
              Bcc     0.0000     0.000     0.000     0.000  0.7062  0.5398 -0.4581
 

 ---------------------------------------------------------------------------------

 No NMR shielding tensors so no spin-rotation constants.
 Leave Link  601 at Mon Apr 21 21:37:11 2025, MaxMem=   536870912 cpu:               1.9 elap:               0.3
 (Enter /home/szhao/Apps/g16/l701.exe)
 ... and contract with generalized density number  0.
 Compute integral first derivatives.
 Leave Link  701 at Mon Apr 21 21:37:12 2025, MaxMem=   536870912 cpu:               0.9 elap:               0.1
 (Enter /home/szhao/Apps/g16/l702.exe)
 L702 exits ... SP integral derivatives will be done elsewhere.
 Leave Link  702 at Mon Apr 21 21:37:12 2025, MaxMem=   536870912 cpu:               0.5 elap:               0.1
 (Enter /home/szhao/Apps/g16/l703.exe)
 Integral derivatives from FoFJK, PRISM(SPDF).
 Compute integral first derivatives, UseDBF=F ICtDFT=           0.
 Calling FoFJK, ICntrl=      2127 FMM=F ISym2X=0 I1Cent= 0 IOpClX= 1 NMat=1 NMatS=1 NMatT=0.
 FoFJK:  IHMeth= 1 ICntrl=    2127 DoSepK=F KAlg= 0 I1Cent=           0 FoldK=F
 IRaf=         0 NMat=       1 IRICut=       1 DoRegI=T DoRafI=F ISym2E= 0 IDoP0=0 IntGTp=1.
 FoFCou: FMM=F IPFlag=           0 FMFlag=      100000 FMFlg1=         800
         NFxFlg=           0 DoJE=F BraDBF=F KetDBF=F FulRan=T
         wScrn=  0.000000 ICntrl=      2127 IOpCl=  1 I1Cent=           0 NGrid=           0
         NMat0=    1 NMatS0=      1 NMatT0=    0 NMatD0=    1 NMtDS0=    0 NMtDT0=    0
 Symmetry not used in FoFCou.
 Leave Link  703 at Mon Apr 21 21:37:13 2025, MaxMem=   536870912 cpu:               5.3 elap:               0.7
 (Enter /home/szhao/Apps/g16/l716.exe)
 Dipole        = 2.53114076D-06-3.69670491D-01 6.29155472D-01
 -------------------------------------------------------------------
 Center     Atomic                   Forces (Hartrees/Bohr)
 Number     Number              X              Y              Z
 -------------------------------------------------------------------
      1        8          -0.000000000   -0.000000000   -0.000000000
      2        8          -0.000000000   -0.000000000   -0.000000000
      3        1          -0.000610244   -0.009232402   -0.000266167
      4        1           0.000611384    0.004726339    0.007931882
 -------------------------------------------------------------------
 Cartesian Forces:  Max     0.009232402 RMS     0.003778308
 Leave Link  716 at Mon Apr 21 21:37:13 2025, MaxMem=   536870912 cpu:               1.0 elap:               0.2
 (Enter /home/szhao/Apps/g16/l103.exe)

 GradGradGradGradGradGradGradGradGradGradGradGradGradGradGradGradGradGrad
 Berny optimization.
 FormGI is forming the generalized inverse of G from B-inverse, IUseBI=4.
 Internal  Forces:  Max     0.009641843 RMS     0.005763568
 Search for a local minimum.
 Step number   1 out of a maximum of   21
 All quantities printed in internal units (Hartrees-Bohrs-Radians)
 RMS Force = .59712D-02 SwitMx=.10000D-02 MixMth= 1
 Mixed Optimization -- RFO/linear search
 Second derivative matrix not updated -- first step.
 The second derivative matrix:
                          X1        Y1        Z1        X2        Y2
           X1           0.50000
           Y1           0.00000   0.50000
           Z1           0.00000   0.00000   0.50000
           X2           0.00000   0.00000   0.00000   0.50000
           Y2           0.00000   0.00000   0.00000   0.00000   0.50000
           Z2           0.00000   0.00000   0.00000   0.00000   0.00000
           R1           0.00000   0.00000   0.00000   0.00000   0.00000
           R2           0.00000   0.00000   0.00000   0.00000   0.00000
           A1           0.00000   0.00000   0.00000   0.00000   0.00000
           A2           0.00000   0.00000   0.00000   0.00000   0.00000
           D1           0.00000   0.00000   0.00000   0.00000   0.00000
                          Z2        R1        R2        A1        A2
           Z2           0.50000
           R1           0.00000   0.54591
           R2           0.00000   0.00000   0.54591
           A1           0.00000   0.00000   0.00000   0.16000
           A2           0.00000   0.00000   0.00000   0.00000   0.16000
           D1           0.00000   0.00000   0.00000   0.00000   0.00000
                          D1
           D1           0.00230
 ITU=  0
     Eigenvalues ---    0.00230   0.16000   0.16000   0.54591   0.54591
     Eigenvalues --- 1000.000001000.000001000.000001000.000001000.00000
     Eigenvalues --- 1000.00000
 RFO step:  Lambda=-4.51967001D-04 EMin= 2.30000000D-03
 Linear search not attempted -- first point.
 Iteration  1 RMS(Cart)=  0.06930625 RMS(Int)=  0.00342937
 Iteration  2 RMS(Cart)=  0.00352022 RMS(Int)=  0.00000381
 Iteration  3 RMS(Cart)=  0.00000533 RMS(Int)=  0.00000000
 Iteration  4 RMS(Cart)=  0.00000000 RMS(Int)=  0.00000000
 ITry= 1 IFail=0 DXMaxC= 1.96D-01 DCOld= 1.00D+10 DXMaxT= 3.00D-01 DXLimC= 3.00D+00 Rises=F
 Variable       Old X    -DE/DX   Delta X   Delta X   Delta X     New X
                                 (Linear)    (Quad)   (Total)
    X1       -4.13271  -0.00061   0.00000   0.00000   0.00000  -4.13271
    Y1        0.00000  -0.00964   0.00000   0.00000   0.00000   0.00000
    Z1        0.00000  -0.00051   0.00000   0.00000   0.00000   0.00000
    X2        4.13271   0.00061   0.00000   0.00000   0.00000   4.13271
    Y2        0.00000   0.00513   0.00000   0.00000   0.00000   0.00000
    Z2        0.00000   0.00817   0.00000   0.00000   0.00000   0.00000
    R1        1.82197   0.00917   0.00000   0.01679   0.01679   1.83876
    R2        1.82197   0.00917   0.00000   0.01678   0.01678   1.83875
    A1        1.76893  -0.00222   0.00000  -0.01384  -0.01384   1.75509
    A2        1.76893  -0.00222   0.00000  -0.01382  -0.01382   1.75511
    D1       -2.07914  -0.00048   0.00000  -0.17337  -0.17337  -2.25251
         Item               Value     Threshold  Converged?
 Maximum Force            0.009172     0.000450     NO 
 RMS     Force            0.005971     0.000300     NO 
 Maximum Displacement     0.195602     0.001800     NO 
 RMS     Displacement     0.069664     0.001200     NO 
 Predicted change in Energy=-2.329902D-04
 Lowest energy point so far.  Saving SCF results.
 GradGradGradGradGradGradGradGradGradGradGradGradGradGradGradGradGradGrad

 Leave Link  103 at Mon Apr 21 21:37:13 2025, MaxMem=   536870912 cpu:               0.4 elap:               0.1
 (Enter /home/szhao/Apps/g16/l202.exe)
                          Input orientation:                          
 ---------------------------------------------------------------------
 Center     Atomic      Atomic             Coordinates (Angstroms)
 Number     Number       Type             X           Y           Z
 ---------------------------------------------------------------------
      1          8           0       -2.186938    0.000000    0.000000
      2          8           0        2.186938    0.000000    0.000000
      3          1           0       -2.365247   -0.950935   -0.103508
      4          1           0        2.365265    0.518832    0.803612
 ---------------------------------------------------------------------
                    Distance matrix (angstroms):
                    1          2          3          4
     1  O    0.000000
     2  O    4.373876   0.000000
     3  H    0.973029   4.651600   0.000000
     4  H    4.651616   0.973026   5.035954   0.000000
 Symmetry turned off by external request.
 Stoichiometry    H2O2
 Framework group  C1[X(H2O2)]
 Deg. of freedom     6
 Full point group                 C1      NOp   1
 Rotational constants (GHZ):         293.8250731           3.0685004           3.0485417
 Leave Link  202 at Mon Apr 21 21:37:14 2025, MaxMem=   536870912 cpu:               0.2 elap:               0.1
 (Enter /home/szhao/Apps/g16/l301.exe)
 Standard basis: 6-311+G(d,p) (5D, 7F)
 Ernie: Thresh=  0.10000D-02 Tol=  0.10000D-05 Strict=F.
    56 basis functions,    88 primitive gaussians,    58 cartesian basis functions
     9 alpha electrons        9 beta electrons
       nuclear repulsion energy        18.3699095723 Hartrees.
 IExCor= 4336 DFT=T Ex+Corr=M062X ExCW=0 ScaHFX=  0.540000
 ScaDFX=  1.000000  1.000000  1.000000  1.000000 ScalE2=  1.000000  1.000000
 IRadAn=      7 IRanWt=     -1 IRanGd=            0 ICorTp=0 IEmpDi=  4
 NAtoms=    4 NActive=    4 NUniq=    4 SFac= 1.00D+00 NAtFMM=   60 NAOKFM=F Big=F
 Integral buffers will be    131072 words long.
 Raffenetti 2 integral format.
 Two-electron integral symmetry is turned off.
 Leave Link  301 at Mon Apr 21 21:37:14 2025, MaxMem=   536870912 cpu:               0.7 elap:               0.2
 (Enter /home/szhao/Apps/g16/l302.exe)
 NPDir=0 NMtPBC=     1 NCelOv=     1 NCel=       1 NClECP=     1 NCelD=      1
         NCelK=      1 NCelE2=     1 NClLst=     1 CellRange=     0.0.
 One-electron integrals computed using PRISM.
 NBasis=    56 RedAO= T EigKep=  6.68D-03  NBF=    56
 NBsUse=    56 1.00D-06 EigRej= -1.00D+00 NBFU=    56
 Precomputing XC quadrature grid using
 IXCGrd= 4 IRadAn=           7 IRanWt=          -1 IRanGd=           0 AccXCQ= 0.00D+00.
 Generated NRdTot=       0 NPtTot=           0 NUsed=           0 NTot=          32
 NSgBfM=    57    57    57    57    57 MxSgAt=     4 MxSgA2=     4.
 Leave Link  302 at Mon Apr 21 21:37:15 2025, MaxMem=   536870912 cpu:               1.9 elap:               0.3
 (Enter /home/szhao/Apps/g16/l303.exe)
 DipDrv:  MaxL=1.
 Leave Link  303 at Mon Apr 21 21:37:15 2025, MaxMem=   536870912 cpu:               0.5 elap:               0.1
 (Enter /home/szhao/Apps/g16/l401.exe)
 Initial guess from the checkpoint file:  "opt.chk"
 B after Tr=     0.000002    0.007445   -0.012064
         Rot=    0.999940   -0.010868    0.000722   -0.001199 Ang=  -1.26 deg.
 Guess basis will be translated and rotated to current coordinates.
 JPrj=2 DoOrth=T DoCkMO=T.
 Initial guess <Sx>= 0.0000 <Sy>= 0.0000 <Sz>= 0.0000 <S**2>=-0.0000 S=-0.0000
 Generating alternative initial guess.
 ExpMin= 8.45D-02 ExpMax= 8.59D+03 ExpMxC= 1.30D+03 IAcc=3 IRadAn=         5 AccDes= 0.00D+00
 Harris functional with IExCor= 1009 and IRadAn=       5 diagonalized for initial guess.
 HarFok:  IExCor= 1009 AccDes= 0.00D+00 IRadAn=         5 IDoV= 1 UseB2=F ITyADJ=14
 ICtDFT=  3500011 ScaDFX=  1.000000  1.000000  1.000000  1.000000
 FoFCou: FMM=F IPFlag=           0 FMFlag=      100000 FMFlg1=           0
         NFxFlg=           0 DoJE=T BraDBF=F KetDBF=T FulRan=T
         wScrn=  0.000000 ICntrl=       500 IOpCl=  0 I1Cent=   200000004 NGrid=           0
         NMat0=    1 NMatS0=      1 NMatT0=    0 NMatD0=    1 NMtDS0=    0 NMtDT0=    0
 Symmetry not used in FoFCou.
 Harris En= -151.310645265590    
 Leave Link  401 at Mon Apr 21 21:37:16 2025, MaxMem=   536870912 cpu:               3.6 elap:               0.5
 (Enter /home/szhao/Apps/g16/l502.exe)
 Keep R1 and R2 ints in memory in canonical form, NReq=9624198.
 FoFCou: FMM=F IPFlag=           0 FMFlag=           0 FMFlg1=           0
         NFxFlg=           0 DoJE=F BraDBF=F KetDBF=F FulRan=T
         wScrn=  0.000000 ICntrl=       600 IOpCl=  0 I1Cent=           0 NGrid=           0
         NMat0=    1 NMatS0=   1596 NMatT0=    0 NMatD0=    1 NMtDS0=    0 NMtDT0=    0
 Symmetry not used in FoFCou.
 Two-electron integral symmetry not used.
 UHF open shell SCF:
 Using DIIS extrapolation, IDIIS=  1040.
 NGot=   536870912 LenX=   534314338 LenY=   534310533
 Requested convergence on RMS density matrix=1.00D-08 within 128 cycles.
 Requested convergence on MAX density matrix=1.00D-06.
 Requested convergence on             energy=1.00D-06.
 No special actions if energy rises.
 Integral accuracy reduced to 1.0D-05 until final iterations.

 Cycle   1  Pass 0  IDiag  1:
 E= -151.292435941876    
 DIIS: error= 6.89D-03 at cycle   1 NSaved=   1.
 NSaved= 1 IEnMin= 1 EnMin= -151.292435941876     IErMin= 1 ErrMin= 6.89D-03
 ErrMax= 6.89D-03  0.00D+00 EMaxC= 1.00D-01 BMatC= 6.87D-03 BMatP= 6.87D-03
 IDIUse=3 WtCom= 9.31D-01 WtEn= 6.89D-02
 Coeff-Com:  0.100D+01
 Coeff-En:   0.100D+01
 Coeff:      0.100D+01
 Gap=     0.616 Goal=   None    Shift=    0.000
 Gap=     0.616 Goal=   None    Shift=    0.000
 GapD=    0.616 DampG=2.000 DampE=1.000 DampFc=2.0000 IDamp=-1.
 RMSDP=7.25D-04 MaxDP=8.01D-03              OVMax= 1.59D-02

 Cycle   2  Pass 0  IDiag  1:
 E= -151.294554380964     Delta-E=       -0.002118439088 Rises=F Damp=F
 DIIS: error= 1.02D-03 at cycle   2 NSaved=   2.
 NSaved= 2 IEnMin= 2 EnMin= -151.294554380964     IErMin= 2 ErrMin= 1.02D-03
 ErrMax= 1.02D-03  0.00D+00 EMaxC= 1.00D-01 BMatC= 2.39D-04 BMatP= 6.87D-03
 IDIUse=3 WtCom= 9.90D-01 WtEn= 1.02D-02
 Coeff-Com: -0.127D+00 0.113D+01
 Coeff-En:   0.000D+00 0.100D+01
 Coeff:     -0.126D+00 0.113D+01
 Gap=     0.070 Goal=   None    Shift=    0.000
 Gap=     0.070 Goal=   None    Shift=    0.000
 RMSDP=2.00D-04 MaxDP=2.47D-03 DE=-2.12D-03 OVMax= 4.60D-03

 Cycle   3  Pass 0  IDiag  1:
 E= -151.294645312722     Delta-E=       -0.000090931758 Rises=F Damp=F
 DIIS: error= 4.51D-04 at cycle   3 NSaved=   3.
 NSaved= 3 IEnMin= 3 EnMin= -151.294645312722     IErMin= 3 ErrMin= 4.51D-04
 ErrMax= 4.51D-04  0.00D+00 EMaxC= 1.00D-01 BMatC= 5.01D-05 BMatP= 2.39D-04
 IDIUse=3 WtCom= 9.95D-01 WtEn= 4.51D-03
 Coeff-Com: -0.553D-01 0.357D+00 0.699D+00
 Coeff-En:   0.000D+00 0.000D+00 0.100D+01
 Coeff:     -0.551D-01 0.355D+00 0.700D+00
 Gap=     0.070 Goal=   None    Shift=    0.000
 Gap=     0.070 Goal=   None    Shift=    0.000
 RMSDP=5.13D-05 MaxDP=6.35D-04 DE=-9.09D-05 OVMax= 1.07D-03

 Cycle   4  Pass 0  IDiag  1:
 E= -151.294655514200     Delta-E=       -0.000010201478 Rises=F Damp=F
 DIIS: error= 1.85D-04 at cycle   4 NSaved=   4.
 NSaved= 4 IEnMin= 4 EnMin= -151.294655514200     IErMin= 4 ErrMin= 1.85D-04
 ErrMax= 1.85D-04  0.00D+00 EMaxC= 1.00D-01 BMatC= 7.81D-06 BMatP= 5.01D-05
 IDIUse=3 WtCom= 9.98D-01 WtEn= 1.85D-03
 Coeff-Com:  0.586D-02-0.830D-01 0.235D+00 0.842D+00
 Coeff-En:   0.000D+00 0.000D+00 0.000D+00 0.100D+01
 Coeff:      0.585D-02-0.829D-01 0.234D+00 0.843D+00
 Gap=     0.070 Goal=   None    Shift=    0.000
 Gap=     0.070 Goal=   None    Shift=    0.000
 RMSDP=2.84D-05 MaxDP=2.78D-04 DE=-1.02D-05 OVMax= 6.45D-04

 Cycle   5  Pass 0  IDiag  1:
 E= -151.294657513240     Delta-E=       -0.000001999040 Rises=F Damp=F
 DIIS: error= 1.23D-04 at cycle   5 NSaved=   5.
 NSaved= 5 IEnMin= 5 EnMin= -151.294657513240     IErMin= 5 ErrMin= 1.23D-04
 ErrMax= 1.23D-04  0.00D+00 EMaxC= 1.00D-01 BMatC= 1.67D-06 BMatP= 7.81D-06
 IDIUse=3 WtCom= 9.99D-01 WtEn= 1.23D-03
 Coeff-Com:  0.521D-02-0.635D-01 0.121D+00 0.510D+00 0.427D+00
 Coeff-En:   0.000D+00 0.000D+00 0.000D+00 0.000D+00 0.100D+01
 Coeff:      0.520D-02-0.634D-01 0.121D+00 0.509D+00 0.428D+00
 Gap=     0.070 Goal=   None    Shift=    0.000
 Gap=     0.070 Goal=   None    Shift=    0.000
 RMSDP=2.90D-05 MaxDP=4.80D-04 DE=-2.00D-06 OVMax= 2.43D-03

 Cycle   6  Pass 0  IDiag  1:
 E= -151.294649706109     Delta-E=        0.000007807131 Rises=F Damp=F
 DIIS: error= 5.85D-04 at cycle   6 NSaved=   6.
 NSaved= 6 IEnMin= 5 EnMin= -151.294657513240     IErMin= 5 ErrMin= 1.23D-04
 ErrMax= 5.85D-04  0.00D+00 EMaxC= 1.00D-01 BMatC= 3.34D-05 BMatP= 1.67D-06
 IDIUse=3 WtCom= 9.99D-01 WtEn= 1.23D-03
 Coeff-Com:  0.355D-02-0.286D-01-0.463D-01-0.303D-02 0.888D+00 0.187D+00
 Coeff-En:   0.000D+00 0.000D+00 0.000D+00 0.000D+00 0.848D+00 0.152D+00
 Coeff:      0.355D-02-0.285D-01-0.462D-01-0.302D-02 0.888D+00 0.187D+00
 Gap=     0.070 Goal=   None    Shift=    0.000
 Gap=     0.070 Goal=   None    Shift=    0.000
 RMSDP=2.47D-05 MaxDP=4.04D-04 DE= 7.81D-06 OVMax= 2.02D-03

 Cycle   7  Pass 0  IDiag  1:
 E= -151.294658107345     Delta-E=       -0.000008401236 Rises=F Damp=F
 DIIS: error= 1.78D-05 at cycle   7 NSaved=   7.
 NSaved= 7 IEnMin= 7 EnMin= -151.294658107345     IErMin= 7 ErrMin= 1.78D-05
 ErrMax= 1.78D-05  0.00D+00 EMaxC= 1.00D-01 BMatC= 1.95D-08 BMatP= 1.67D-06
 IDIUse=1 WtCom= 1.00D+00 WtEn= 0.00D+00
 Coeff-Com: -0.111D-02 0.115D-01-0.204D-02-0.470D-01-0.210D+00-0.350D-01
 Coeff-Com:  0.128D+01
 Coeff:     -0.111D-02 0.115D-01-0.204D-02-0.470D-01-0.210D+00-0.350D-01
 Coeff:      0.128D+01
 Gap=     0.070 Goal=   None    Shift=    0.000
 Gap=     0.070 Goal=   None    Shift=    0.000
 RMSDP=4.60D-06 MaxDP=3.22D-05 DE=-8.40D-06 OVMax= 3.25D-04

 Initial convergence to 1.0D-05 achieved.  Increase integral accuracy.
 Cycle   8  Pass 1  IDiag  1:
 E= -151.294657742846     Delta-E=        0.000000364499 Rises=F Damp=F
 DIIS: error= 1.65D-05 at cycle   1 NSaved=   1.
 NSaved= 1 IEnMin= 1 EnMin= -151.294657742846     IErMin= 1 ErrMin= 1.65D-05
 ErrMax= 1.65D-05  0.00D+00 EMaxC= 1.00D-01 BMatC= 1.01D-08 BMatP= 1.01D-08
 IDIUse=1 WtCom= 1.00D+00 WtEn= 0.00D+00
 Coeff-Com:  0.100D+01
 Coeff:      0.100D+01
 Gap=     0.070 Goal=   None    Shift=    0.000
 Gap=     0.070 Goal=   None    Shift=    0.000
 RMSDP=4.60D-06 MaxDP=3.22D-05 DE= 3.64D-07 OVMax= 2.33D-04

 Cycle   9  Pass 1  IDiag  1:
 E= -151.294657780116     Delta-E=       -0.000000037270 Rises=F Damp=F
 DIIS: error= 1.62D-05 at cycle   2 NSaved=   2.
 NSaved= 2 IEnMin= 2 EnMin= -151.294657780116     IErMin= 2 ErrMin= 1.62D-05
 ErrMax= 1.62D-05  0.00D+00 EMaxC= 1.00D-01 BMatC= 8.57D-09 BMatP= 1.01D-08
 IDIUse=1 WtCom= 1.00D+00 WtEn= 0.00D+00
 Coeff-Com: -0.471D-01 0.105D+01
 Coeff:     -0.471D-01 0.105D+01
 Gap=     0.070 Goal=   None    Shift=    0.000
 Gap=     0.070 Goal=   None    Shift=    0.000
 RMSDP=3.03D-06 MaxDP=2.52D-05 DE=-3.73D-08 OVMax= 2.40D-04

 Cycle  10  Pass 1  IDiag  1:
 E= -151.294657806810     Delta-E=       -0.000000026694 Rises=F Damp=F
 DIIS: error= 2.08D-05 at cycle   3 NSaved=   3.
 NSaved= 3 IEnMin= 3 EnMin= -151.294657806810     IErMin= 2 ErrMin= 1.62D-05
 ErrMax= 2.08D-05  0.00D+00 EMaxC= 1.00D-01 BMatC= 4.80D-08 BMatP= 8.57D-09
 IDIUse=1 WtCom= 1.00D+00 WtEn= 0.00D+00
 Coeff-Com: -0.269D+00 0.117D+01 0.959D-01
 Coeff:     -0.269D+00 0.117D+01 0.959D-01
 Gap=     0.070 Goal=   None    Shift=    0.000
 Gap=     0.070 Goal=   None    Shift=    0.000
 RMSDP=1.25D-06 MaxDP=1.54D-05 DE=-2.67D-08 OVMax= 7.77D-05

 Cycle  11  Pass 1  IDiag  1:
 E= -151.294657827836     Delta-E=       -0.000000021026 Rises=F Damp=F
 DIIS: error= 1.58D-05 at cycle   4 NSaved=   4.
 NSaved= 4 IEnMin= 4 EnMin= -151.294657827836     IErMin= 4 ErrMin= 1.58D-05
 ErrMax= 1.58D-05  0.00D+00 EMaxC= 1.00D-01 BMatC= 8.12D-09 BMatP= 8.57D-09
 IDIUse=1 WtCom= 1.00D+00 WtEn= 0.00D+00
 Coeff-Com: -0.319D+00 0.388D+00 0.859D-01 0.845D+00
 Coeff:     -0.319D+00 0.388D+00 0.859D-01 0.845D+00
 Gap=     0.070 Goal=   None    Shift=    0.000
 Gap=     0.070 Goal=   None    Shift=    0.000
 RMSDP=3.27D-06 MaxDP=2.88D-05 DE=-2.10D-08 OVMax= 2.71D-04

 Cycle  12  Pass 1  IDiag  1:
 E= -151.294657868826     Delta-E=       -0.000000040990 Rises=F Damp=F
 DIIS: error= 1.55D-05 at cycle   5 NSaved=   5.
 NSaved= 5 IEnMin= 5 EnMin= -151.294657868826     IErMin= 5 ErrMin= 1.55D-05
 ErrMax= 1.55D-05  0.00D+00 EMaxC= 1.00D-01 BMatC= 8.12D-09 BMatP= 8.12D-09
 IDIUse=1 WtCom= 1.00D+00 WtEn= 0.00D+00
 Coeff-Com: -0.251D+00 0.238D+00 0.566D-01 0.695D+00 0.261D+00
 Coeff:     -0.251D+00 0.238D+00 0.566D-01 0.695D+00 0.261D+00
 Gap=     0.070 Goal=   None    Shift=    0.000
 Gap=     0.070 Goal=   None    Shift=    0.000
 RMSDP=1.11D-06 MaxDP=8.84D-06 DE=-4.10D-08 OVMax= 8.17D-05

 Cycle  13  Pass 1  IDiag  1:
 E= -151.294657883974     Delta-E=       -0.000000015148 Rises=F Damp=F
 DIIS: error= 1.54D-05 at cycle   6 NSaved=   6.
 NSaved= 6 IEnMin= 6 EnMin= -151.294657883974     IErMin= 6 ErrMin= 1.54D-05
 ErrMax= 1.54D-05  0.00D+00 EMaxC= 1.00D-01 BMatC= 1.00D-08 BMatP= 8.12D-09
 IDIUse=1 WtCom= 1.00D+00 WtEn= 0.00D+00
 Coeff-Com:  0.466D+00-0.217D+01-0.312D+00-0.256D+00 0.603D+01-0.276D+01
 Coeff:      0.466D+00-0.217D+01-0.312D+00-0.256D+00 0.603D+01-0.276D+01
 Gap=     0.070 Goal=   None    Shift=    0.000
 Gap=     0.070 Goal=   None    Shift=    0.000
 RMSDP=1.16D-05 MaxDP=1.03D-04 DE=-1.51D-08 OVMax= 9.65D-04

 Cycle  14  Pass 1  IDiag  1:
 E= -151.294658015774     Delta-E=       -0.000000131800 Rises=F Damp=F
 DIIS: error= 1.43D-05 at cycle   7 NSaved=   7.
 NSaved= 7 IEnMin= 7 EnMin= -151.294658015774     IErMin= 7 ErrMin= 1.43D-05
 ErrMax= 1.43D-05  0.00D+00 EMaxC= 1.00D-01 BMatC= 7.04D-09 BMatP= 8.12D-09
 IDIUse=1 WtCom= 1.00D+00 WtEn= 0.00D+00
 Coeff-Com:  0.552D+00 0.391D+00 0.407D+00-0.223D+01-0.379D+01 0.140D+01
 Coeff-Com:  0.427D+01
 Coeff:      0.552D+00 0.391D+00 0.407D+00-0.223D+01-0.379D+01 0.140D+01
 Coeff:      0.427D+01
 Gap=     0.070 Goal=   None    Shift=    0.000
 Gap=     0.070 Goal=   None    Shift=    0.000
 RMSDP=4.16D-05 MaxDP=3.70D-04 DE=-1.32D-07 OVMax= 3.47D-03

 Cycle  15  Pass 1  IDiag  1:
 E= -151.294658430480     Delta-E=       -0.000000414706 Rises=F Damp=F
 DIIS: error= 1.07D-05 at cycle   8 NSaved=   8.
 NSaved= 8 IEnMin= 8 EnMin= -151.294658430480     IErMin= 8 ErrMin= 1.07D-05
 ErrMax= 1.07D-05  0.00D+00 EMaxC= 1.00D-01 BMatC= 4.51D-09 BMatP= 7.04D-09
 IDIUse=1 WtCom= 1.00D+00 WtEn= 0.00D+00
 Coeff-Com: -0.674D+00 0.264D+01-0.407D-01 0.179D+01-0.895D+01 0.415D+01
 Coeff-Com: -0.128D+01 0.338D+01
 Coeff:     -0.674D+00 0.264D+01-0.407D-01 0.179D+01-0.895D+01 0.415D+01
 Coeff:     -0.128D+01 0.338D+01
 Gap=     0.070 Goal=   None    Shift=    0.000
 Gap=     0.070 Goal=   None    Shift=    0.000
 RMSDP=9.96D-05 MaxDP=8.86D-04 DE=-4.15D-07 OVMax= 8.31D-03

 Cycle  16  Pass 1  IDiag  1:
 E= -151.294658947088     Delta-E=       -0.000000516609 Rises=F Damp=F
 DIIS: error= 2.19D-06 at cycle   9 NSaved=   9.
 NSaved= 9 IEnMin= 9 EnMin= -151.294658947088     IErMin= 9 ErrMin= 2.19D-06
 ErrMax= 2.19D-06  0.00D+00 EMaxC= 1.00D-01 BMatC= 1.05D-09 BMatP= 4.51D-09
 IDIUse=1 WtCom= 1.00D+00 WtEn= 0.00D+00
 Coeff-Com: -0.102D+00-0.489D-01-0.489D-01 0.985D+00-0.661D+00 0.352D+00
 Coeff-Com: -0.107D+01 0.676D+00 0.918D+00
 Coeff:     -0.102D+00-0.489D-01-0.489D-01 0.985D+00-0.661D+00 0.352D+00
 Coeff:     -0.107D+01 0.676D+00 0.918D+00
 Gap=     0.070 Goal=   None    Shift=    0.000
 Gap=     0.070 Goal=   None    Shift=    0.000
 RMSDP=9.51D-06 MaxDP=8.47D-05 DE=-5.17D-07 OVMax= 7.93D-04

 Cycle  17  Pass 1  IDiag  1:
 E= -151.294658961557     Delta-E=       -0.000000014469 Rises=F Damp=F
 DIIS: error= 1.42D-06 at cycle  10 NSaved=  10.
 NSaved=10 IEnMin=10 EnMin= -151.294658961557     IErMin=10 ErrMin= 1.42D-06
 ErrMax= 1.42D-06  0.00D+00 EMaxC= 1.00D-01 BMatC= 2.59D-10 BMatP= 1.05D-09
 IDIUse=1 WtCom= 1.00D+00 WtEn= 0.00D+00
 Coeff-Com:  0.672D-01-0.349D+00 0.339D-01-0.751D-01 0.937D+00-0.427D+00
 Coeff-Com: -0.272D-01-0.342D+00-0.490D+00 0.167D+01
 Coeff:      0.672D-01-0.349D+00 0.339D-01-0.751D-01 0.937D+00-0.427D+00
 Coeff:     -0.272D-01-0.342D+00-0.490D+00 0.167D+01
 Gap=     0.070 Goal=   None    Shift=    0.000
 Gap=     0.070 Goal=   None    Shift=    0.000
 RMSDP=1.70D-05 MaxDP=1.52D-04 DE=-1.45D-08 OVMax= 1.42D-03

 Cycle  18  Pass 1  IDiag  1:
 E= -151.294658971651     Delta-E=       -0.000000010094 Rises=F Damp=F
 DIIS: error= 2.14D-07 at cycle  11 NSaved=  11.
 NSaved=11 IEnMin=11 EnMin= -151.294658971651     IErMin=11 ErrMin= 2.14D-07
 ErrMax= 2.14D-07  0.00D+00 EMaxC= 1.00D-01 BMatC= 5.60D-12 BMatP= 2.59D-10
 IDIUse=1 WtCom= 1.00D+00 WtEn= 0.00D+00
 Coeff-Com: -0.139D-01 0.891D-01-0.877D-02-0.404D-04-0.241D+00 0.107D+00
 Coeff-Com:  0.424D-01 0.555D-01-0.330D-01-0.938D-01 0.110D+01
 Coeff:     -0.139D-01 0.891D-01-0.877D-02-0.404D-04-0.241D+00 0.107D+00
 Coeff:      0.424D-01 0.555D-01-0.330D-01-0.938D-01 0.110D+01
 Gap=     0.070 Goal=   None    Shift=    0.000
 Gap=     0.070 Goal=   None    Shift=    0.000
 RMSDP=1.12D-07 MaxDP=1.12D-06 DE=-1.01D-08 OVMax= 9.23D-06

 Cycle  19  Pass 1  IDiag  1:
 E= -151.294658971654     Delta-E=       -0.000000000003 Rises=F Damp=F
 DIIS: error= 9.88D-08 at cycle  12 NSaved=  12.
 NSaved=12 IEnMin=12 EnMin= -151.294658971654     IErMin=12 ErrMin= 9.88D-08
 ErrMax= 9.88D-08  0.00D+00 EMaxC= 1.00D-01 BMatC= 3.47D-13 BMatP= 5.60D-12
 IDIUse=1 WtCom= 1.00D+00 WtEn= 0.00D+00
 Coeff-Com: -0.737D-02 0.464D-01-0.400D-02-0.221D-02-0.125D+00 0.560D-01
 Coeff-Com:  0.231D-01 0.297D-01-0.149D-01-0.545D-01 0.542D+00 0.511D+00
 Coeff:     -0.737D-02 0.464D-01-0.400D-02-0.221D-02-0.125D+00 0.560D-01
 Coeff:      0.231D-01 0.297D-01-0.149D-01-0.545D-01 0.542D+00 0.511D+00
 Gap=     0.070 Goal=   None    Shift=    0.000
 Gap=     0.070 Goal=   None    Shift=    0.000
 RMSDP=1.17D-08 MaxDP=1.54D-07 DE=-3.18D-12 OVMax= 7.70D-07

 Cycle  20  Pass 1  IDiag  1:
 E= -151.294658971655     Delta-E=       -0.000000000001 Rises=F Damp=F
 DIIS: error= 1.19D-07 at cycle  13 NSaved=  13.
 NSaved=13 IEnMin=13 EnMin= -151.294658971655     IErMin=12 ErrMin= 9.88D-08
 ErrMax= 1.19D-07  0.00D+00 EMaxC= 1.00D-01 BMatC= 4.12D-13 BMatP= 3.47D-13
 IDIUse=1 WtCom= 1.00D+00 WtEn= 0.00D+00
 Coeff-Com: -0.860D-02 0.491D-01-0.152D-02-0.115D-01-0.130D+00 0.579D-01
 Coeff-Com:  0.280D-01 0.386D-01 0.101D-01-0.121D+00 0.398D+00 0.472D+01
 Coeff-Com: -0.403D+01
 Coeff:     -0.860D-02 0.491D-01-0.152D-02-0.115D-01-0.130D+00 0.579D-01
 Coeff:      0.280D-01 0.386D-01 0.101D-01-0.121D+00 0.398D+00 0.472D+01
 Coeff:     -0.403D+01
 Gap=     0.070 Goal=   None    Shift=    0.000
 Gap=     0.070 Goal=   None    Shift=    0.000
 RMSDP=4.51D-08 MaxDP=4.38D-07 DE=-8.53D-13 OVMax= 3.83D-06

 Cycle  21  Pass 1  IDiag  1:
 E= -151.294658971653     Delta-E=        0.000000000003 Rises=F Damp=F
 DIIS: error= 3.18D-08 at cycle  14 NSaved=  14.
 NSaved=14 IEnMin=13 EnMin= -151.294658971655     IErMin=14 ErrMin= 3.18D-08
 ErrMax= 3.18D-08  0.00D+00 EMaxC= 1.00D-01 BMatC= 7.87D-14 BMatP= 3.47D-13
 IDIUse=1 WtCom= 1.00D+00 WtEn= 0.00D+00
 Coeff-Com:  0.712D-03-0.436D-02 0.248D-03 0.205D-03 0.153D-01-0.660D-02
 Coeff-Com: -0.459D-02-0.322D-02 0.540D-02 0.294D-02-0.149D+00 0.486D+00
 Coeff-Com: -0.589D+00 0.125D+01
 Coeff:      0.712D-03-0.436D-02 0.248D-03 0.205D-03 0.153D-01-0.660D-02
 Coeff:     -0.459D-02-0.322D-02 0.540D-02 0.294D-02-0.149D+00 0.486D+00
 Coeff:     -0.589D+00 0.125D+01
 Gap=     0.070 Goal=   None    Shift=    0.000
 Gap=     0.070 Goal=   None    Shift=    0.000
 RMSDP=1.70D-08 MaxDP=2.23D-07 DE= 2.67D-12 OVMax= 1.04D-06

 Cycle  22  Pass 1  IDiag  1:
 E= -151.294658971652     Delta-E=        0.000000000000 Rises=F Damp=F
 DIIS: error= 3.92D-09 at cycle  15 NSaved=  15.
 NSaved=15 IEnMin=13 EnMin= -151.294658971655     IErMin=15 ErrMin= 3.92D-09
 ErrMax= 3.92D-09  0.00D+00 EMaxC= 1.00D-01 BMatC= 1.41D-15 BMatP= 7.87D-14
 IDIUse=1 WtCom= 1.00D+00 WtEn= 0.00D+00
 Coeff-Com:  0.165D-03-0.143D-02 0.292D-03 0.655D-03 0.311D-02-0.139D-02
 Coeff-Com: -0.105D-02-0.119D-02-0.600D-03 0.571D-02-0.233D-01-0.121D+00
 Coeff-Com:  0.883D-01 0.105D+00 0.947D+00
 Coeff:      0.165D-03-0.143D-02 0.292D-03 0.655D-03 0.311D-02-0.139D-02
 Coeff:     -0.105D-02-0.119D-02-0.600D-03 0.571D-02-0.233D-01-0.121D+00
 Coeff:      0.883D-01 0.105D+00 0.947D+00
 Gap=     0.070 Goal=   None    Shift=    0.000
 Gap=     0.070 Goal=   None    Shift=    0.000
 RMSDP=7.33D-10 MaxDP=1.01D-08 DE= 1.42D-13 OVMax= 6.59D-08

 SCF Done:  E(UM062X) =  -151.294658972     A.U. after   22 cycles
            NFock= 22  Conv=0.73D-09     -V/T= 2.0027
 <Sx>= 0.0000 <Sy>= 0.0000 <Sz>= 0.0000 <S**2>=-0.0000 S=-0.0000
 <L.S>=  0.00000000000    
 KE= 1.508853588852D+02 PE=-3.951664800520D+02 EE= 7.461655262283D+01
 Annihilation of the first spin contaminant:
 S**2 before annihilation    -0.0000,   after     0.0000
 Leave Link  502 at Mon Apr 21 21:37:22 2025, MaxMem=   536870912 cpu:              46.5 elap:               6.2
 (Enter /home/szhao/Apps/g16/l701.exe)
 ... and contract with generalized density number  0.
 Compute integral first derivatives.
 Leave Link  701 at Mon Apr 21 21:37:23 2025, MaxMem=   536870912 cpu:               1.4 elap:               0.3
 (Enter /home/szhao/Apps/g16/l702.exe)
 L702 exits ... SP integral derivatives will be done elsewhere.
 Leave Link  702 at Mon Apr 21 21:37:23 2025, MaxMem=   536870912 cpu:               0.3 elap:               0.1
 (Enter /home/szhao/Apps/g16/l703.exe)
 Integral derivatives from FoFJK, PRISM(SPDF).
 Compute integral first derivatives, UseDBF=F ICtDFT=           0.
 Calling FoFJK, ICntrl=      2127 FMM=F ISym2X=0 I1Cent= 0 IOpClX= 1 NMat=1 NMatS=1 NMatT=0.
 FoFJK:  IHMeth= 1 ICntrl=    2127 DoSepK=F KAlg= 0 I1Cent=           0 FoldK=F
 IRaf=         0 NMat=       1 IRICut=       1 DoRegI=T DoRafI=F ISym2E= 0 IDoP0=0 IntGTp=1.
 FoFCou: FMM=F IPFlag=           0 FMFlag=      100000 FMFlg1=         800
         NFxFlg=           0 DoJE=F BraDBF=F KetDBF=F FulRan=T
         wScrn=  0.000000 ICntrl=      2127 IOpCl=  1 I1Cent=           0 NGrid=           0
         NMat0=    1 NMatS0=      1 NMatT0=    0 NMatD0=    1 NMtDS0=    0 NMtDT0=    0
 Symmetry not used in FoFCou.
 Leave Link  703 at Mon Apr 21 21:37:24 2025, MaxMem=   536870912 cpu:               4.1 elap:               0.6
 (Enter /home/szhao/Apps/g16/l716.exe)
 Dipole        =-3.98623818D-08-3.27919026D-01 5.31303718D-01
 -------------------------------------------------------------------
 Center     Atomic                   Forces (Hartrees/Bohr)
 Number     Number              X              Y              Z
 -------------------------------------------------------------------
      1        8          -0.000000000   -0.000000000   -0.000000000
      2        8          -0.000000000   -0.000000000   -0.000000000
      3        1           0.001160234   -0.000395949   -0.000271847
      4        1          -0.001153895    0.000422351    0.000226787
 -------------------------------------------------------------------
 Cartesian Forces:  Max     0.001160234 RMS     0.000511379
 Leave Link  716 at Mon Apr 21 21:37:24 2025, MaxMem=   536870912 cpu:               0.5 elap:               0.1
 (Enter /home/szhao/Apps/g16/l103.exe)

 GradGradGradGradGradGradGradGradGradGradGradGradGradGradGradGradGradGrad
 Berny optimization.
 Using GEDIIS/GDIIS optimizer.
 FormGI is forming the generalized inverse of G from B-inverse, IUseBI=4.
 Internal  Forces:  Max     0.002239809 RMS     0.001160397
 Search for a local minimum.
 Step number   2 out of a maximum of   21
 All quantities printed in internal units (Hartrees-Bohrs-Radians)
 RMS Force = .14305D-02 SwitMx=.10000D-02 MixMth= 1
 Mixed Optimization -- RFO/linear search
 Update second derivatives using D2CorX and points    1    2
 DE= -2.95D-04 DEPred=-2.33D-04 R= 1.27D+00
 TightC=F SS=  1.41D+00  RLast= 1.76D-01 DXNew= 5.0454D-01 5.2824D-01
 Trust test= 1.27D+00 RLast= 1.76D-01 DXMaxT set to 5.05D-01
 The second derivative matrix:
                          X1        Y1        Z1        X2        Y2
           X1           0.51007
           Y1           0.05016   0.75000
           Z1          -0.00015  -0.00075   0.50000
           X2          -0.01004  -0.05001   0.00015   0.51001
           Y2          -0.02440  -0.12161   0.00037   0.02433   0.55915
           Z2          -0.04369  -0.21773   0.00065   0.04356   0.10591
           R1          -0.05099  -0.25410   0.00076   0.05084   0.12360
           R2          -0.05098  -0.25409   0.00076   0.05083   0.12360
           A1          -0.00011  -0.00053   0.00000   0.00011   0.00026
           A2          -0.00005  -0.00026   0.00000   0.00005   0.00013
           D1           0.00035   0.00176  -0.00001  -0.00035  -0.00086
                          Z2        R1        R2        A1        A2
           Z2           0.68963
           R1           0.22131   0.61242
           R2           0.22129   0.06655   0.61251
           A1           0.00046   0.04689   0.04687   0.14880
           A2           0.00023   0.04655   0.04653  -0.01118   0.14883
           D1          -0.00153   0.00656   0.00655  -0.00202  -0.00202
                          D1
           D1           0.00195
 ITU=  1  0
 Use linear search instead of GDIIS.
     Eigenvalues ---    0.00168   0.12212   0.16000   0.54591   0.69480
     Eigenvalues --- 1000.000001000.000001000.000001000.000001000.00000
     Eigenvalues --- 1000.00000
 RFO step:  Lambda=-1.85415193D-04 EMin= 1.68364912D-03
 Quartic linear search produced a step of  0.46745.
 Iteration  1 RMS(Cart)=  0.08259999 RMS(Int)=  0.03231632
 Iteration  2 RMS(Cart)=  0.04297902 RMS(Int)=  0.00129780
 Iteration  3 RMS(Cart)=  0.00134455 RMS(Int)=  0.00000045
 Iteration  4 RMS(Cart)=  0.00000064 RMS(Int)=  0.00000000
 ITry= 1 IFail=0 DXMaxC= 3.45D-01 DCOld= 1.00D+10 DXMaxT= 5.05D-01 DXLimC= 3.00D+00 Rises=F
 Variable       Old X    -DE/DX   Delta X   Delta X   Delta X     New X
                                 (Linear)    (Quad)   (Total)
    X1       -4.13271   0.00116   0.00000   0.00000   0.00000  -4.13271
    Y1        0.00000  -0.00082   0.00000   0.00000   0.00000   0.00000
    Z1        0.00000  -0.00053   0.00000   0.00000   0.00000   0.00000
    X2        4.13271  -0.00115   0.00000   0.00000   0.00000   4.13271
    Y2        0.00000   0.00084   0.00000   0.00000   0.00000   0.00000
    Z2        0.00000   0.00049   0.00000   0.00000   0.00000   0.00000
    R1        1.83876   0.00020   0.00785  -0.00114   0.00671   1.84546
    R2        1.83875   0.00020   0.00784  -0.00115   0.00670   1.84545
    A1        1.75509  -0.00224  -0.00647  -0.01881  -0.02528   1.72981
    A2        1.75511  -0.00223  -0.00646  -0.01870  -0.02516   1.72995
    D1       -2.25251  -0.00042  -0.08104  -0.22248  -0.30352  -2.55603
         Item               Value     Threshold  Converged?
 Maximum Force            0.002240     0.000450     NO 
 RMS     Force            0.001430     0.000300     NO 
 Maximum Displacement     0.345037     0.001800     NO 
 RMS     Displacement     0.123143     0.001200     NO 
 Predicted change in Energy=-1.226571D-04
 Lowest energy point so far.  Saving SCF results.
 GradGradGradGradGradGradGradGradGradGradGradGradGradGradGradGradGradGrad

 Leave Link  103 at Mon Apr 21 21:37:25 2025, MaxMem=   536870912 cpu:               0.3 elap:               0.1
 (Enter /home/szhao/Apps/g16/l202.exe)
                          Input orientation:                          
 ---------------------------------------------------------------------
 Center     Atomic      Atomic             Coordinates (Angstroms)
 Number     Number       Type             X           Y           Z
 ---------------------------------------------------------------------
      1          8           0       -2.186938    0.000000    0.000000
      2          8           0        2.186938    0.000000    0.000000
      3          1           0       -2.341575   -0.920837   -0.286094
      4          1           0        2.341709    0.609294    0.747326
 ---------------------------------------------------------------------
                    Distance matrix (angstroms):
                    1          2          3          4
     1  O    0.000000
     2  O    4.373876   0.000000
     3  H    0.976577   4.630034   0.000000
     4  H    4.630159   0.976571   5.034124   0.000000
 Symmetry turned off by external request.
 Stoichiometry    H2O2
 Framework group  C1[X(H2O2)]
 Deg. of freedom     6
 Full point group                 C1      NOp   1
 Rotational constants (GHZ):         289.1282722           3.0756946           3.0487125
 Leave Link  202 at Mon Apr 21 21:37:25 2025, MaxMem=   536870912 cpu:               0.1 elap:               0.0
 (Enter /home/szhao/Apps/g16/l301.exe)
 Standard basis: 6-311+G(d,p) (5D, 7F)
 Ernie: Thresh=  0.10000D-02 Tol=  0.10000D-05 Strict=F.
    56 basis functions,    88 primitive gaussians,    58 cartesian basis functions
     9 alpha electrons        9 beta electrons
       nuclear repulsion energy        18.3468047150 Hartrees.
 IExCor= 4336 DFT=T Ex+Corr=M062X ExCW=0 ScaHFX=  0.540000
 ScaDFX=  1.000000  1.000000  1.000000  1.000000 ScalE2=  1.000000  1.000000
 IRadAn=      7 IRanWt=     -1 IRanGd=            0 ICorTp=0 IEmpDi=  4
 NAtoms=    4 NActive=    4 NUniq=    4 SFac= 1.00D+00 NAtFMM=   60 NAOKFM=F Big=F
 Integral buffers will be    131072 words long.
 Raffenetti 2 integral format.
 Two-electron integral symmetry is turned off.
 Leave Link  301 at Mon Apr 21 21:37:25 2025, MaxMem=   536870912 cpu:               0.6 elap:               0.1
 (Enter /home/szhao/Apps/g16/l302.exe)
 NPDir=0 NMtPBC=     1 NCelOv=     1 NCel=       1 NClECP=     1 NCelD=      1
         NCelK=      1 NCelE2=     1 NClLst=     1 CellRange=     0.0.
 One-electron integrals computed using PRISM.
 NBasis=    56 RedAO= T EigKep=  6.68D-03  NBF=    56
 NBsUse=    56 1.00D-06 EigRej= -1.00D+00 NBFU=    56
 Precomputing XC quadrature grid using
 IXCGrd= 4 IRadAn=           7 IRanWt=          -1 IRanGd=           0 AccXCQ= 0.00D+00.
 Generated NRdTot=       0 NPtTot=           0 NUsed=           0 NTot=          32
 NSgBfM=    57    57    57    57    57 MxSgAt=     4 MxSgA2=     4.
 Leave Link  302 at Mon Apr 21 21:37:25 2025, MaxMem=   536870912 cpu:               1.5 elap:               0.2
 (Enter /home/szhao/Apps/g16/l303.exe)
 DipDrv:  MaxL=1.
 Leave Link  303 at Mon Apr 21 21:37:26 2025, MaxMem=   536870912 cpu:               0.5 elap:               0.1
 (Enter /home/szhao/Apps/g16/l401.exe)
 Initial guess from the checkpoint file:  "opt.chk"
 B after Tr=     0.000012    0.015636   -0.023154
         Rot=    0.999788   -0.020527    0.000982   -0.001521 Ang=  -2.36 deg.
 Guess basis will be translated and rotated to current coordinates.
 JPrj=2 DoOrth=T DoCkMO=T.
 Initial guess <Sx>= 0.0000 <Sy>= 0.0000 <Sz>= 0.0000 <S**2>=-0.0000 S=-0.0000
 Generating alternative initial guess.
 ExpMin= 8.45D-02 ExpMax= 8.59D+03 ExpMxC= 1.30D+03 IAcc=3 IRadAn=         5 AccDes= 0.00D+00
 Harris functional with IExCor= 1009 and IRadAn=       5 diagonalized for initial guess.
 HarFok:  IExCor= 1009 AccDes= 0.00D+00 IRadAn=         5 IDoV= 1 UseB2=F ITyADJ=14
 ICtDFT=  3500011 ScaDFX=  1.000000  1.000000  1.000000  1.000000
 FoFCou: FMM=F IPFlag=           0 FMFlag=      100000 FMFlg1=           0
         NFxFlg=           0 DoJE=T BraDBF=F KetDBF=T FulRan=T
         wScrn=  0.000000 ICntrl=       500 IOpCl=  0 I1Cent=   200000004 NGrid=           0
         NMat0=    1 NMatS0=      1 NMatT0=    0 NMatD0=    1 NMtDS0=    0 NMtDT0=    0
 Symmetry not used in FoFCou.
 Harris En= -151.310681087729    
 Leave Link  401 at Mon Apr 21 21:37:26 2025, MaxMem=   536870912 cpu:               2.4 elap:               0.3
 (Enter /home/szhao/Apps/g16/l502.exe)
 Keep R1 and R2 ints in memory in canonical form, NReq=9624198.
 FoFCou: FMM=F IPFlag=           0 FMFlag=           0 FMFlg1=           0
         NFxFlg=           0 DoJE=F BraDBF=F KetDBF=F FulRan=T
         wScrn=  0.000000 ICntrl=       600 IOpCl=  0 I1Cent=           0 NGrid=           0
         NMat0=    1 NMatS0=   1596 NMatT0=    0 NMatD0=    1 NMtDS0=    0 NMtDT0=    0
 Symmetry not used in FoFCou.
 Two-electron integral symmetry not used.
 UHF open shell SCF:
 Using DIIS extrapolation, IDIIS=  1040.
 NGot=   536870912 LenX=   534314338 LenY=   534310533
 Requested convergence on RMS density matrix=1.00D-08 within 128 cycles.
 Requested convergence on MAX density matrix=1.00D-06.
 Requested convergence on             energy=1.00D-06.
 No special actions if energy rises.
 Integral accuracy reduced to 1.0D-05 until final iterations.

 Cycle   1  Pass 0  IDiag  1:
 E= -151.288101181381    
 DIIS: error= 1.20D-02 at cycle   1 NSaved=   1.
 NSaved= 1 IEnMin= 1 EnMin= -151.288101181381     IErMin= 1 ErrMin= 1.20D-02
 ErrMax= 1.20D-02  0.00D+00 EMaxC= 1.00D-01 BMatC= 2.04D-02 BMatP= 2.04D-02
 IDIUse=3 WtCom= 8.80D-01 WtEn= 1.20D-01
 Coeff-Com:  0.100D+01
 Coeff-En:   0.100D+01
 Coeff:      0.100D+01
 Recover alternate guess density for next cycle.
 RMSDP=2.46D-03 MaxDP=1.88D-02              OVMax= 0.00D+00

 Cycle   2  Pass 0  IDiag  1:
 E= -151.264269308870     Delta-E=        0.023831872510 Rises=F Damp=F
 Switch densities from cycles 1 and 2 for lowest energy.
 DIIS: error= 3.31D-02 at cycle   2 NSaved=   2.
 NSaved= 2 IEnMin= 1 EnMin= -151.288101181381     IErMin= 1 ErrMin= 1.20D-02
 ErrMax= 3.31D-02  0.00D+00 EMaxC= 1.00D+00 BMatC= 2.36D-01 BMatP= 2.04D-02
 IDIUse=1 WtCom= 1.00D+00 WtEn= 0.00D+00
 Coeff-Com:  0.934D+00 0.658D-01
 Coeff:      0.934D+00 0.658D-01
 Gap=     0.162 Goal=   None    Shift=    0.000
 Gap=     0.162 Goal=   None    Shift=    0.000
 RMSDP=1.30D-03 MaxDP=1.42D-02 DE= 2.38D-02 OVMax= 7.12D-02

 Cycle   3  Pass 0  IDiag  1:
 E= -151.294399734001     Delta-E=       -0.030130425131 Rises=F Damp=F
 DIIS: error= 2.40D-03 at cycle   3 NSaved=   3.
 NSaved= 3 IEnMin= 3 EnMin= -151.294399734001     IErMin= 3 ErrMin= 2.40D-03
 ErrMax= 2.40D-03  0.00D+00 EMaxC= 1.00D+00 BMatC= 1.67D-03 BMatP= 2.04D-02
 IDIUse=1 WtCom= 1.00D+00 WtEn= 0.00D+00
 Coeff-Com: -0.967D-01 0.606D-01 0.104D+01
 Coeff:     -0.967D-01 0.606D-01 0.104D+01
 Gap=     0.070 Goal=   None    Shift=    0.000
 Gap=     0.070 Goal=   None    Shift=    0.000
 RMSDP=3.74D-04 MaxDP=3.84D-03 DE=-3.01D-02 OVMax= 8.28D-03

 Cycle   4  Pass 0  IDiag  1:
 E= -151.294807843902     Delta-E=       -0.000408109900 Rises=F Damp=F
 DIIS: error= 8.84D-04 at cycle   4 NSaved=   4.
 NSaved= 4 IEnMin= 4 EnMin= -151.294807843902     IErMin= 4 ErrMin= 8.84D-04
 ErrMax= 8.84D-04  0.00D+00 EMaxC= 1.00D+00 BMatC= 1.93D-04 BMatP= 1.67D-03
 IDIUse=1 WtCom= 1.00D+00 WtEn= 0.00D+00
 Coeff-Com: -0.372D-01-0.194D-02 0.234D+00 0.805D+00
 Coeff:     -0.372D-01-0.194D-02 0.234D+00 0.805D+00
 Gap=     0.071 Goal=   None    Shift=    0.000
 Gap=     0.071 Goal=   None    Shift=    0.000
 RMSDP=2.84D-04 MaxDP=4.90D-03 DE=-4.08D-04 OVMax= 2.31D-02

 Cycle   5  Pass 0  IDiag  1:
[...]
 DIIS: error= 2.99D-09 at cycle  17 NSaved=  16.
 NSaved=16 IEnMin=13 EnMin= -151.295830076572     IErMin=16 ErrMin= 2.99D-09
 ErrMax= 2.99D-09  0.00D+00 EMaxC= 1.00D-01 BMatC= 4.40D-16 BMatP= 2.10D-15
 IDIUse=1 WtCom= 1.00D+00 WtEn= 0.00D+00
 Large coefficients: NSaved= 16 BigCof=    0.00 CofMax=   10.00 Det=-5.00D-16
 Inversion failed.  Reducing to 15 matrices.
 Coeff-Com:  0.196D-05-0.379D-05-0.315D-04-0.146D-04 0.100D-04-0.364D-04
 Coeff-Com:  0.135D-02-0.384D-02 0.554D-03 0.268D-02-0.383D-03 0.172D-01
 Coeff-Com: -0.404D-01-0.705D-01 0.109D+01
 Coeff:      0.196D-05-0.379D-05-0.315D-04-0.146D-04 0.100D-04-0.364D-04
 Coeff:      0.135D-02-0.384D-02 0.554D-03 0.268D-02-0.383D-03 0.172D-01
 Coeff:     -0.404D-01-0.705D-01 0.109D+01
 Gap=     0.071 Goal=   None    Shift=    0.000
 Gap=     0.071 Goal=   None    Shift=    0.000
 RMSDP=6.65D-10 MaxDP=6.82D-09 DE= 5.68D-14 OVMax= 4.64D-08

 SCF Done:  E(UM062X) =  -151.295830077     A.U. after   17 cycles
            NFock= 17  Conv=0.66D-09     -V/T= 2.0028
 <Sx>= 0.0000 <Sy>= 0.0000 <Sz>= 0.0000 <S**2>= 0.0000 S= 0.0000
 <L.S>=  0.00000000000    
 KE= 1.508807829936D+02 PE=-3.954211482707D+02 EE= 7.471251855558D+01
 Annihilation of the first spin contaminant:
 S**2 before annihilation     0.0000,   after    -0.0000
 Leave Link  502 at Mon Apr 21 21:39:15 2025, MaxMem=   536870912 cpu:              42.5 elap:               5.6
 (Enter /home/szhao/Apps/g16/l701.exe)
 ... and contract with generalized density number  0.
 Compute integral first derivatives.
 Leave Link  701 at Mon Apr 21 21:39:15 2025, MaxMem=   536870912 cpu:               1.1 elap:               0.2
 (Enter /home/szhao/Apps/g16/l702.exe)
 L702 exits ... SP integral derivatives will be done elsewhere.
 Leave Link  702 at Mon Apr 21 21:39:15 2025, MaxMem=   536870912 cpu:               0.6 elap:               0.1
 (Enter /home/szhao/Apps/g16/l703.exe)
 Integral derivatives from FoFJK, PRISM(SPDF).
 Compute integral first derivatives, UseDBF=F ICtDFT=           0.
 Calling FoFJK, ICntrl=      2127 FMM=F ISym2X=0 I1Cent= 0 IOpClX= 1 NMat=1 NMatS=1 NMatT=0.
 FoFJK:  IHMeth= 1 ICntrl=    2127 DoSepK=F KAlg= 0 I1Cent=           0 FoldK=F
 IRaf=         0 NMat=       1 IRICut=       1 DoRegI=T DoRafI=F ISym2E= 0 IDoP0=0 IntGTp=1.
 FoFCou: FMM=F IPFlag=           0 FMFlag=      100000 FMFlg1=         800
         NFxFlg=           0 DoJE=F BraDBF=F KetDBF=F FulRan=T
         wScrn=  0.000000 ICntrl=      2127 IOpCl=  1 I1Cent=           0 NGrid=           0
         NMat0=    1 NMatS0=      1 NMatT0=    0 NMatD0=    1 NMtDS0=    0 NMtDT0=    0
 Symmetry not used in FoFCou.
 Leave Link  703 at Mon Apr 21 21:39:16 2025, MaxMem=   536870912 cpu:               4.5 elap:               0.6
 (Enter /home/szhao/Apps/g16/l716.exe)
 Dipole        = 1.48532951D-04-4.22212014D-04 5.94534822D-04
 -------------------------------------------------------------------
 Center     Atomic                   Forces (Hartrees/Bohr)
 Number     Number              X              Y              Z
 -------------------------------------------------------------------
      1        8          -0.000000000   -0.000000000   -0.000000000
      2        8          -0.000000000   -0.000000000   -0.000000000
      3        1          -0.000000957    0.000002334    0.000007070
      4        1           0.000000519   -0.000001281   -0.000007063
 -------------------------------------------------------------------
 Cartesian Forces:  Max     0.000007070 RMS     0.000003002
 Leave Link  716 at Mon Apr 21 21:39:16 2025, MaxMem=   536870912 cpu:               0.4 elap:               0.1
 (Enter /home/szhao/Apps/g16/l103.exe)

 GradGradGradGradGradGradGradGradGradGradGradGradGradGradGradGradGradGrad
 Berny optimization.
 Using GEDIIS/GDIIS optimizer.
 FormGI is forming the generalized inverse of G from B-inverse, IUseBI=4.
 Internal  Forces:  Max     0.000006243 RMS     0.000003478
 Search for a local minimum.
 Step number  13 out of a maximum of   21
 All quantities printed in internal units (Hartrees-Bohrs-Radians)
 RMS Force = .37142D-05 SwitMx=.10000D-02 MixMth= 2
 Mixed Optimization -- En-DIIS/RFO-DIIS
 Swapping is turned off.
 Update second derivatives using D2CorX and points    4    5    7    8    9
                                                     10   11   12   13
 DE= -2.70D-08 DEPred=-2.50D-08 R= 1.08D+00
 Trust test= 1.08D+00 RLast= 7.36D-03 DXMaxT set to 1.43D+00
 The second derivative matrix:
                          X1        Y1        Z1        X2        Y2
           X1           0.51126
           Y1          -0.03927   0.65169
           Z1          -0.03346   0.13055   0.61246
           X2          -0.01114   0.03890   0.03314   0.51102
           Y2           0.04251  -0.16415  -0.14127  -0.04210   0.67763
           Z2           0.02954  -0.11441  -0.09849  -0.02925   0.12380
           R1           0.05252  -0.20197  -0.17377  -0.05201   0.21838
           R2           0.05189  -0.20064  -0.17266  -0.05142   0.21728
           A1          -0.00215   0.00041   0.00010   0.00211  -0.00078
           A2          -0.00202   0.00014  -0.00089   0.00199   0.00015
           D1           0.00007  -0.00028  -0.00018  -0.00010   0.00026
                          Z2        R1        R2        A1        A2
           Z2           0.58630
           R1           0.15234   0.54126
           R2           0.15127  -0.00583   0.53896
           A1          -0.00006  -0.00090  -0.00082   0.08374
           A2          -0.00004  -0.00025  -0.00019  -0.07627   0.08373
           D1           0.00012   0.00032   0.00043  -0.00002  -0.00003
                          D1
           D1           0.00061
 ITU=  0  0  1  1  1  1  1  1  1  1  1  1
     Eigenvalues ---    0.00061   0.00746   0.16001   0.53417   0.54605
     Eigenvalues --- 1000.000001000.000001000.000001000.000001000.00000
     Eigenvalues --- 1000.00000
 En-DIIS/RFO-DIIS/Sim-DIIS IScMMF=       -3 using points:    13   12   11
 RFO step:  Lambda=-1.41209671D-10.
 NNeg= 0 NGDIIS= 3 SimSw=  2.50D-01 Rises=F DC= -2.70D-08 SmlDif=  1.00D-05
 NRisDI= 0 DoIntr=F SqrtH=F CThrHd= 10.0 CDAdj=  3.0
 RMS Error=  0.2842258280D-03 NUsed= 3 OKEnD=F EnDIS=F
 InvSVX:  RCond= 2.06D-08 Info=           0 Equed=N FErr=  2.91D-13 BErr=  4.87D-17
 DIIS inversion failure, remove point   3.
 InvSVX:  RCond= 1.36D-05 Info=           0 Equed=N FErr=  1.17D-15 BErr=  8.32D-17
 RFO-DIIS uses    2 points instead of    3
 DidBck=F Rises=F RFO-DIIS coefs:    1.12782   -0.12782    0.00000
 Iteration  1 RMS(Cart)=  0.00036716 RMS(Int)=  0.00000009
 Iteration  2 RMS(Cart)=  0.00000009 RMS(Int)=  0.00000000
 ITry= 1 IFail=0 DXMaxC= 6.97D-04 DCOld= 1.00D+10 DXMaxT= 1.43D+00 DXLimC= 3.00D+00 Rises=F
 Variable       Old X    -DE/DX   Delta X   Delta X   Delta X     New X
                                 (Linear)    (Quad)   (Total)
    X1       -4.13271  -0.00000  -0.00000   0.00000   0.00000  -4.13271
    Y1        0.00000   0.00000   0.00000   0.00000   0.00000   0.00000
    Z1        0.00000   0.00000   0.00000   0.00000   0.00000   0.00000
    X2        4.13271   0.00000   0.00000   0.00000   0.00000   4.13271
    Y2        0.00000  -0.00000   0.00000   0.00000   0.00000   0.00000
    Z2        0.00000  -0.00000   0.00000   0.00000   0.00000   0.00000
    R1        1.83965  -0.00001   0.00001  -0.00002  -0.00001   1.83963
    R2        1.83964  -0.00001   0.00001  -0.00002  -0.00001   1.83963
    A1        1.37606  -0.00000  -0.00007  -0.00002  -0.00010   1.37597
    A2        1.37633  -0.00000  -0.00007  -0.00003  -0.00010   1.37623
    D1       -3.14060  -0.00000  -0.00094   0.00000  -0.00093  -3.14154
         Item               Value     Threshold  Converged?
 Maximum Force            0.000006     0.000450     YES
 RMS     Force            0.000004     0.000300     YES
 Maximum Displacement     0.000697     0.001800     YES
 RMS     Displacement     0.000367     0.001200     YES
 Predicted change in Energy=-3.994247D-10
 Optimization completed.
    -- Stationary point found.
                           ----------------------------
                           !   Optimized Parameters   !
                           ! (Angstroms and Degrees)  !
 --------------------------                            --------------------------
 ! Name  Definition              Value          Derivative Info.                !
 --------------------------------------------------------------------------------
 ! X1    R(1,-1)                -2.1869         -DE/DX =    0.0                 !
 ! Y1    R(1,-2)                 0.0            -DE/DX =    0.0                 !
 ! Z1    R(1,-3)                 0.0            -DE/DX =    0.0                 !
 ! X2    R(2,-1)                 2.1869         -DE/DX =    0.0                 !
 ! Y2    R(2,-2)                 0.0            -DE/DX =    0.0                 !
 ! Z2    R(2,-3)                 0.0            -DE/DX =    0.0                 !
 ! R1    R(1,3)                  0.9735         -DE/DX =    0.0                 !
 ! R2    R(2,4)                  0.9735         -DE/DX =    0.0                 !
 ! A1    A(2,1,3)               78.8427         -DE/DX =    0.0                 !
 ! A2    A(1,2,4)               78.8581         -DE/DX =    0.0                 !
 ! D1    D(3,1,2,4)           -179.9433         -DE/DX =    0.0                 !
 --------------------------------------------------------------------------------
 Lowest energy point so far.  Saving SCF results.
 Largest change from initial coordinates is atom    3       0.536 Angstoms.
 GradGradGradGradGradGradGradGradGradGradGradGradGradGradGradGradGradGrad

 Leave Link  103 at Mon Apr 21 21:39:16 2025, MaxMem=   536870912 cpu:               0.3 elap:               0.1
 (Enter /home/szhao/Apps/g16/l202.exe)
                          Input orientation:                          
 ---------------------------------------------------------------------
 Center     Atomic      Atomic             Coordinates (Angstroms)
 Number     Number       Type             X           Y           Z
 ---------------------------------------------------------------------
      1          8           0       -2.186938    0.000000    0.000000
      2          8           0        2.186938    0.000000    0.000000
      3          1           0       -1.998562   -0.755169   -0.584750
      4          1           0        1.998820    0.754629    0.585527
 ---------------------------------------------------------------------
                    Distance matrix (angstroms):
                    1          2          3          4
     1  O    0.000000
     2  O    4.373876   0.000000
     3  H    0.973498   4.293091   0.000000
     4  H    4.293352   0.973497   4.430362   0.000000
 Symmetry turned off by external request.
 Stoichiometry    H2O2
 Framework group  C1[X(H2O2)]
 Deg. of freedom     6
 Full point group                 C1      NOp   1
 Rotational constants (GHZ):         289.4735322           3.1362212           3.1026069
 Leave Link  202 at Mon Apr 21 21:39:17 2025, MaxMem=   536870912 cpu:               0.1 elap:               0.0
 (Enter /home/szhao/Apps/g16/l601.exe)
 Copying SCF densities to generalized density rwf, IOpCl= 1 IROHF=0.

 **********************************************************************

            Population analysis using the SCF density.

 **********************************************************************

 Alpha  occ. eigenvalues --  -19.72084 -19.72084  -1.12773  -1.12681  -0.56555
 Alpha  occ. eigenvalues --   -0.56530  -0.43965  -0.43926  -0.35113
 Alpha virt. eigenvalues --   -0.27988   0.05317   0.07094   0.15478   0.15511
 Alpha virt. eigenvalues --    0.15605   0.17784   0.18850   0.19745   0.19887
 Alpha virt. eigenvalues --    0.29046   0.49622   0.49969   0.99730   1.00972
 Alpha virt. eigenvalues --    1.02881   1.04668   1.05010   1.05086   1.26864
 Alpha virt. eigenvalues --    1.33404   1.35679   1.36016   1.36518   1.36556
 Alpha virt. eigenvalues --    2.01177   2.01361   2.44296   2.44686   2.82758
 Alpha virt. eigenvalues --    2.82862   2.84070   2.84090   3.11629   3.11672
 Alpha virt. eigenvalues --    3.14323   3.14326   3.79569   3.79941   4.96701
 Alpha virt. eigenvalues --    4.98116   4.98535   5.00096   5.45589   5.45590
 Alpha virt. eigenvalues --   49.80061  49.81660
  Beta  occ. eigenvalues --  -19.72084 -19.72084  -1.12773  -1.12681  -0.56555
  Beta  occ. eigenvalues --   -0.56530  -0.43965  -0.43926  -0.35113
  Beta virt. eigenvalues --   -0.27988   0.05317   0.07094   0.15478   0.15511
  Beta virt. eigenvalues --    0.15605   0.17784   0.18850   0.19745   0.19887
  Beta virt. eigenvalues --    0.29046   0.49622   0.49969   0.99730   1.00972
  Beta virt. eigenvalues --    1.02881   1.04668   1.05010   1.05086   1.26864
  Beta virt. eigenvalues --    1.33404   1.35679   1.36016   1.36518   1.36556
  Beta virt. eigenvalues --    2.01177   2.01361   2.44296   2.44686   2.82758
  Beta virt. eigenvalues --    2.82862   2.84070   2.84090   3.11629   3.11672
  Beta virt. eigenvalues --    3.14323   3.14326   3.79569   3.79941   4.96701
  Beta virt. eigenvalues --    4.98116   4.98535   5.00096   5.45589   5.45590
  Beta virt. eigenvalues --   49.80061  49.81660
          Condensed to atoms (all electrons):
               1          2          3          4
     1  O    7.989515   0.013512   0.262217  -0.000205
     2  O    0.013512   7.989527  -0.000205   0.262217
     3  H    0.262217  -0.000205   0.472948  -0.000006
     4  H   -0.000205   0.262217  -0.000006   0.472951
          Atomic-Atomic Spin Densities.
               1          2          3          4
     1  O    0.000000  -0.000000  -0.000000   0.000000
     2  O   -0.000000  -0.000000  -0.000000   0.000000
     3  H   -0.000000  -0.000000   0.000000  -0.000000
     4  H    0.000000   0.000000  -0.000000  -0.000000
 Mulliken charges and spin densities:
               1          2
     1  O   -0.265039  -0.000000
     2  O   -0.265051   0.000000
     3  H    0.265046   0.000000
     4  H    0.265044   0.000000
 Sum of Mulliken charges =  -0.00000  -0.00000
 Mulliken charges and spin densities with hydrogens summed into heavy atoms:
               1          2
     1  O    0.000007  -0.000000
     2  O   -0.000007   0.000000
 Electronic spatial extent (au):  <R**2>=            335.5478
 Charge=              0.0000 electrons
 Dipole moment (field-independent basis, Debye):
    X=              0.0004    Y=             -0.0011    Z=              0.0015  Tot=              0.0019
 Quadrupole moment (field-independent basis, Debye-Ang):
   XX=            -14.1457   YY=            -10.6139   ZZ=            -11.8684
   XY=              6.0567   XZ=              4.6944   YZ=              2.4359
 Traceless Quadrupole moment (field-independent basis, Debye-Ang):
   XX=             -1.9364   YY=              1.5955   ZZ=              0.3409
   XY=              6.0567   XZ=              4.6944   YZ=              2.4359
 Octapole moment (field-independent basis, Debye-Ang**2):
  XXX=              0.0052  YYY=             -0.0013  ZZZ=              0.0007  XYY=             -0.0047
  XXY=             -0.0034  XXZ=              0.0075  XZZ=              0.0051  YZZ=              0.0012
  YYZ=             -0.0004  XYZ=              0.0017
 Hexadecapole moment (field-independent basis, Debye-Ang**3):
 XXXX=           -363.2811 YYYY=            -12.0675 ZZZZ=            -12.5400 XXXY=             22.1487
 XXXZ=             17.1647 YYYX=              0.0956 YYYZ=              0.7073 ZZZX=             -0.9647
 ZZZY=              0.2099 XXYY=            -55.3989 XXZZ=            -60.6032 YYZZ=             -3.5001
 XXYZ=             10.1046 YYXZ=              1.7592 ZZXY=              0.9297
 N-N= 1.853201664496D+01 E-N=-3.954211482672D+02  KE= 1.508807829936D+02
                          Isotropic Fermi Contact Couplings
        Atom                 a.u.       MegaHertz       Gauss      10(-4) cm-1
     1  O(17)             -0.00000       0.00000       0.00000       0.00000
     2  O(17)              0.00000      -0.00000      -0.00000      -0.00000
     3  H(1)               0.00000       0.00000       0.00000       0.00000
     4  H(1)              -0.00000      -0.00000      -0.00000      -0.00000
 --------------------------------------------------------
       Center         ----  Spin Dipole Couplings  ----
                      3XX-RR        3YY-RR        3ZZ-RR
 --------------------------------------------------------
     1   Atom        0.000000     -0.000000      0.000000
     2   Atom       -0.000000     -0.000000      0.000000
     3   Atom       -0.000000     -0.000000      0.000000
     4   Atom        0.000000     -0.000000      0.000000
 --------------------------------------------------------
                        XY            XZ            YZ
 --------------------------------------------------------
     1   Atom       -0.000001      0.000000     -0.000000
     2   Atom       -0.000001      0.000001      0.000000
     3   Atom       -0.000000      0.000000      0.000000
     4   Atom       -0.000000      0.000000     -0.000000
 --------------------------------------------------------


 ---------------------------------------------------------------------------------
              Anisotropic Spin Dipole Couplings in Principal Axis System
 ---------------------------------------------------------------------------------

       Atom             a.u.   MegaHertz   Gauss  10(-4) cm-1        Axes

              Baa    -0.0000     0.000     0.000     0.000  0.6413  0.7187 -0.2686
     1 O(17)  Bbb    -0.0000     0.000     0.000     0.000 -0.1761  0.4786  0.8602
              Bcc     0.0000    -0.000    -0.000    -0.000  0.7468 -0.5044  0.4335
 
              Baa    -0.0000     0.000     0.000     0.000  0.7225  0.4157 -0.5525
     2 O(17)  Bbb     0.0000    -0.000    -0.000    -0.000 -0.1868  0.8867  0.4229
              Bcc     0.0000    -0.000    -0.000    -0.000  0.6657 -0.2023  0.7183
 
              Baa    -0.0000    -0.000    -0.000    -0.000  0.7797  0.1351 -0.6115
     3 H(1)   Bbb    -0.0000    -0.000    -0.000    -0.000 -0.1684  0.9857  0.0030
              Bcc     0.0000     0.000     0.000     0.000  0.6031  0.1006  0.7913
 
              Baa    -0.0000    -0.000    -0.000    -0.000  0.6371  0.7204 -0.2740
     4 H(1)   Bbb     0.0000     0.000     0.000     0.000 -0.2053  0.5013  0.8406
              Bcc     0.0000     0.000     0.000     0.000  0.7429 -0.4793  0.4673
 

 ---------------------------------------------------------------------------------

 No NMR shielding tensors so no spin-rotation constants.
 Leave Link  601 at Mon Apr 21 21:39:17 2025, MaxMem=   536870912 cpu:               1.8 elap:               0.3
 (Enter /home/szhao/Apps/g16/l9999.exe)
 1\1\GINC-NODE06\FOpt\UM062X\6-311+G(d,p)\H2O2\SZHAO\21-Apr-2025\0\\#p 
 opt UM062X/6-311+G** nosymm int=superfine\\Title Card Required\\0,1\O,
 -2.1869378,0.,0.\O,2.1869378,0.,0.\H,-1.9985624748,-0.7551692957,-0.58
 47503601\H,1.9988197294,0.7546292313,0.5855273626\\Version=ES64L-G16Re
 vA.03\HF=-151.2958301\S2=0.\S2-1=0.\S2A=0.\RMSD=6.649e-10\RMSF=3.002e-
 06\Dipole=0.0001485,-0.0004222,0.0005945\Quadrupole=-1.4396516,1.18618
 87,0.2534629,4.5029975,3.4902053,1.811014\PG=C01 [X(H2O2)]\\@


      THE ONE-EYED VIEW OF OUR UNIVERSE SAYS YOU MUST NOT LOOK
      FAR AFIELD FOR PROBLEMS.  SUCH PROBLEMS MAY NEVER ARRIVE. 
      INSTEAD, TEND TO THE WOLF WITHIN YOUR FENCES.
      THE PACKS RANGING OUTSIDE MAY NOT EVEN EXIST.

                              -- THE AZHAR BOOK SHAMRA I:4
                                 CHILDREN OF DUNE, BY FRANK HERBERT
 Job cpu time:       0 days  0 hours 13 minutes 47.3 seconds.
 Elapsed time:       0 days  0 hours  1 minutes 54.9 seconds.
 File lengths (MBytes):  RWF=     17 Int=      0 D2E=      0 Chk=      2 Scr=      2
 Normal termination of Gaussian 16 at Mon Apr 21 21:39:17 2025.
