 Entering Gaussian System, Link 0=g16
 Initial command:
 /home/szhao/Apps/g16/l1.exe "/home/szhao/tmp/Gau-63727.inp" -scrdir="/home/szhao/tmp/"
 Default is to use a total of  16 processors:
                               16 via shared-memory
                                1 via Linda
 Entering Link 1 = /home/szhao/Apps/g16/l1.exe PID=     63733.
  
 Copyright (c) 1988,1990,1992,1993,1995,1998,2003,2009,2016,
            Gaussian, Inc.  All Rights Reserved.
  
 This is part of the Gaussian(R) 16 program.  It is based on
 the Gaussian(R) 09 system (copyright 2009, Gaussian, Inc.),
 the Gaussian(R) 03 system (copyright 2003, Gaussian, Inc.),
 the Gaussian(R) 98 system (copyright 1998, Gaussian, Inc.),
 the Gaussian(R) 94 system (copyright 1995, Gaussian, Inc.),
 the Gaussian 92(TM) system (copyright 1992, Gaussian, Inc.),
 the Gaussian 90(TM) system (copyright 1990, Gaussian, Inc.),
 the Gaussian 88(TM) system (copyright 1988, Gaussian, Inc.),
 the Gaussian 86(TM) system (copyright 1986, Carnegie Mellon
 University), and the Gaussian 82(TM) system (copyright 1983,
 Carnegie Mellon University). Gaussian is a federally registered
 trademark of Gaussian, Inc.
  
 This software contains proprietary and confidential information,
 including trade secrets, belonging to Gaussian, Inc.
  
 This software is provided under written license and may be
 used, copied, transmitted, or stored only in accord with that
 written license.
  
 The following legend is applicable only to US Government
 contracts under FAR:
  
                    RESTRICTED RIGHTS LEGEND
  
 Use, reproduction and disclosure by the US Government is
 subject to restrictions as set forth in subparagraphs (a)
 and (c) of the Commercial Computer Software - Restricted
 Rights clause in FAR 52.227-19.
  
 Gaussian, Inc.
 340 Quinnipiac St., Bldg. 40, Wallingford CT 06492
  
  
 ---------------------------------------------------------------
 Warning -- This program may not be used in any manner that
 competes with the business of Gaussian, Inc. or will provide
 assistance to any competitor of Gaussian, Inc.  The licensee
 of this program is prohibited from giving any competitor of
 Gaussian, Inc. access to this program.  By using this program,
 the user acknowledges that Gaussian, Inc. is engaged in the
 business of creating and licensing software in the field of
 computational chemistry and represents and warrants to the
 licensee that it is not a competitor of Gaussian, Inc. and that
 it will not use this program in any manner prohibited above.
 ---------------------------------------------------------------
  

 Cite this work as:
 Gaussian 16, Revision A.03,
 M. J. Frisch, G. W. Trucks, H. B. Schlegel, G. E. Scuseria, 
 M. A. Robb, J. R. Cheeseman, G. Scalmani, V. Barone, 
 G. A. Petersson, H. Nakatsuji, X. Li, M. Caricato, A. V. Marenich, 
 J. Bloino, B. G. Janesko, R. Gomperts, B. Mennucci, H. P. Hratchian, 
 J. V. Ortiz, A. F. Izmaylov, J. L. Sonnenberg, D. Williams-Young, 
 F. Ding, F. Lipparini, F. Egidi, J. Goings, B. Peng, A. Petrone, 
 T. Henderson, D. Ranasinghe, V. G. Zakrzewski, J. Gao, N. Rega, 
 G. Zheng, W. Liang, M. Hada, M. Ehara, K. Toyota, R. Fukuda, 
 J. Hasegawa, M. Ishida, T. Nakajima, Y. Honda, O. Kitao, H. Nakai, 
 T. Vreven, K. Throssell, J. A. Montgomery, Jr., J. E. Peralta, 
 F. Ogliaro, M. J. Bearpark, J. J. Heyd, E. N. Brothers, K. N. Kudin, 
 V. N. Staroverov, T. A. Keith, R. Kobayashi, J. Normand, 
 K. Raghavachari, A. P. Rendell, J. C. Burant, S. S. Iyengar, 
 J. Tomasi, M. Cossi, J. M. Millam, M. Klene, C. Adamo, R. Cammi, 
 J. W. Ochterski, R. L. Martin, K. Morokuma, O. Farkas, 
 J. B. Foresman, and D. J. Fox, Gaussian, Inc., Wallingford CT, 2016.
 
 ******************************************
 Gaussian 16:  ES64L-G16RevA.03 25-Dec-2016
                21-Apr-2025 
 ******************************************
 %chk=opt.chk
 %mem=4GB
 %nprocshared=8
 Will use up to    8 processors via shared memory.
 --------------------------------------------
 #p opt UM062X/6-311+G** nosymm int=superfine
 --------------------------------------------
 1/18=20,19=15,26=5,38=1/1,3;
 2/9=110,12=2,15=1,17=6,18=5,40=1/2;
 3/5=4,6=6,7=111,11=2,25=1,30=1,71=1,74=-55,75=-7,116=2/1,2,3;
 4//1;
 5/5=2,38=5/2;
 6/7=2,8=2,9=2,10=2,28=1/1;
 7/30=1/1,2,3,16;
 1/18=20,19=15,26=5/3(2);
 2/9=110,15=1/2;
 99//99;
 2/9=110,15=1/2;
 3/5=4,6=6,7=111,11=2,25=1,30=1,71=1,74=-55,75=-7,116=2/1,2,3;
 4/5=5,16=3,69=1/1;
 5/5=2,38=5/2;
 7/30=1/1,2,3,16;
 1/18=20,19=15,26=5/3(-5);
 2/9=110,15=1/2;
 6/7=2,8=2,9=2,10=2,19=2,28=1/1;
 99/9=1/99;
 Leave Link    1 at Mon Apr 21 19:32:53 2025, MaxMem=   536870912 cpu:               3.3 elap:               0.5
 (Enter /home/szhao/Apps/g16/l101.exe)
 -------------------
 Title Card Required
 -------------------
 Symbolic Z-matrix:
 Charge =  0 Multiplicity = 1
 C                    -1   -1.26022   0.        0. 
 S                    -1    1.26022   0.        0. 
 H                    0     1.41477  -1.33223   0. 
 H                    0    -1.56439   1.04536   0.00292 
 H                    0    -1.65523  -0.47662  -0.89491 
 H                    0    -1.65515  -0.48142   0.89237 
 
 Add virtual bond connecting atoms S2         and C1         Dist= 4.76D+00.
 ITRead=  2  2  0  0  0  0
 MicOpt= -2 -2 -1 -1 -1 -1
 NAtoms=      6 NQM=        4 NQMF=       2 NMMI=      0 NMMIF=      0
                NMic=       0 NMicF=      0.
                    Isotopes and Nuclear Properties:
 (Nuclear quadrupole moments (NQMom) in fm**2, nuclear magnetic moments (NMagM)
  in nuclear magnetons)

  Atom         1           2           3           4           5           6
 IAtWgt=          12          32           1           1           1           1
 AtmWgt=  12.0000000  31.9720718   1.0078250   1.0078250   1.0078250   1.0078250
 NucSpn=           0           0           1           1           1           1
 AtZEff=  -0.0000000  -0.0000000  -0.0000000  -0.0000000  -0.0000000  -0.0000000
 NQMom=    0.0000000   0.0000000   0.0000000   0.0000000   0.0000000   0.0000000
 NMagM=    0.0000000   0.0000000   2.7928460   2.7928460   2.7928460   2.7928460
 AtZNuc=   6.0000000  16.0000000   1.0000000   1.0000000   1.0000000   1.0000000
 Leave Link  101 at Mon Apr 21 19:32:56 2025, MaxMem=   536870912 cpu:               3.4 elap:               0.5
 (Enter /home/szhao/Apps/g16/l103.exe)

 GradGradGradGradGradGradGradGradGradGradGradGradGradGradGradGradGradGrad
 Berny optimization.
 Initialization pass.
                           ----------------------------
                           !    Initial Parameters    !
                           ! (Angstroms and Degrees)  !
 --------------------------                            --------------------------
 ! Name  Definition              Value          Derivative Info.                !
 --------------------------------------------------------------------------------
 ! X1    R(1,-1)                -1.2602         Frozen                          !
 ! Y1    R(1,-2)                 0.0            Frozen                          !
 ! Z1    R(1,-3)                 0.0            Frozen                          !
 ! X2    R(2,-1)                 1.2602         Frozen                          !
 ! Y2    R(2,-2)                 0.0            Frozen                          !
 ! Z2    R(2,-3)                 0.0            Frozen                          !
 ! R1    R(1,4)                  1.0887         estimate D2E/DX2                !
 ! R2    R(1,5)                  1.0881         estimate D2E/DX2                !
 ! R3    R(1,6)                  1.0881         estimate D2E/DX2                !
 ! R4    R(2,3)                  1.3412         estimate D2E/DX2                !
 ! A1    A(2,1,4)              106.2234         estimate D2E/DX2                !
 ! A2    A(2,1,5)              111.2854         estimate D2E/DX2                !
 ! A3    A(2,1,6)              111.2806         estimate D2E/DX2                !
 ! A4    A(4,1,5)              108.7444         estimate D2E/DX2                !
 ! A5    A(4,1,6)              108.7362         estimate D2E/DX2                !
 ! A6    A(5,1,6)              110.4209         estimate D2E/DX2                !
 ! A7    A(1,2,3)               96.6171         estimate D2E/DX2                !
 ! D1    D(4,1,2,3)            179.8401         estimate D2E/DX2                !
 ! D2    D(5,1,2,3)            -61.9609         estimate D2E/DX2                !
 ! D3    D(6,1,2,3)             61.6537         estimate D2E/DX2                !
 --------------------------------------------------------------------------------
 Trust Radius=3.00D-01 FncErr=1.00D-07 GrdErr=1.00D-07 EigMax=2.50D+02 EigMin=1.00D-04
 Number of steps in this run=     30 maximum allowed number of steps=    100.
 GradGradGradGradGradGradGradGradGradGradGradGradGradGradGradGradGradGrad

 Leave Link  103 at Mon Apr 21 19:32:57 2025, MaxMem=   536870912 cpu:               0.6 elap:               0.4
 (Enter /home/szhao/Apps/g16/l202.exe)
                          Input orientation:                          
 ---------------------------------------------------------------------
 Center     Atomic      Atomic             Coordinates (Angstroms)
 Number     Number       Type             X           Y           Z
 ---------------------------------------------------------------------
      1          6           0       -1.260220    0.000000    0.000000
      2         16           0        1.260220    0.000000    0.000000
      3          1           0        1.414766   -1.332230    0.000000
      4          1           0       -1.564389    1.045359    0.002916
      5          1           0       -1.655230   -0.476615   -0.894907
      6          1           0       -1.655145   -0.481421    0.892366
 ---------------------------------------------------------------------
                    Distance matrix (angstroms):
                    1          2          3          4          5
     1  C    0.000000
     2  S    2.520439   0.000000
     3  H    2.988375   1.341164   0.000000
     4  H    1.088716   3.011843   3.811601   0.000000
     5  H    1.088142   3.086724   3.310259   1.769391   0.000000
     6  H    1.088140   3.086654   3.308255   1.769298   1.787279
                    6
     6  H    0.000000
 Symmetry turned off by external request.
 Stoichiometry    CH4S
 Framework group  C1[X(CH4S)]
 Deg. of freedom    12
 Full point group                 C1      NOp   1
 Rotational constants (GHZ):         103.1214660           7.0499759           6.8884015
 Leave Link  202 at Mon Apr 21 19:32:57 2025, MaxMem=   536870912 cpu:               0.5 elap:               0.3
 (Enter /home/szhao/Apps/g16/l301.exe)
 Standard basis: 6-311+G(d,p) (5D, 7F)
 Ernie: Thresh=  0.10000D-02 Tol=  0.10000D-05 Strict=F.
    76 basis functions,   118 primitive gaussians,    78 cartesian basis functions
    13 alpha electrons       13 beta electrons
       nuclear repulsion energy        45.9333376457 Hartrees.
 IExCor= 4336 DFT=T Ex+Corr=M062X ExCW=0 ScaHFX=  0.540000
 ScaDFX=  1.000000  1.000000  1.000000  1.000000 ScalE2=  1.000000  1.000000
 IRadAn=      7 IRanWt=     -1 IRanGd=            0 ICorTp=0 IEmpDi=  4
 NAtoms=    6 NActive=    6 NUniq=    6 SFac= 1.00D+00 NAtFMM=   60 NAOKFM=F Big=F
 Integral buffers will be    131072 words long.
 Raffenetti 2 integral format.
 Two-electron integral symmetry is turned off.
 Leave Link  301 at Mon Apr 21 19:32:58 2025, MaxMem=   536870912 cpu:               1.1 elap:               0.3
 (Enter /home/szhao/Apps/g16/l302.exe)
 NPDir=0 NMtPBC=     1 NCelOv=     1 NCel=       1 NClECP=     1 NCelD=      1
         NCelK=      1 NCelE2=     1 NClLst=     1 CellRange=     0.0.
 One-electron integrals computed using PRISM.
 NBasis=    76 RedAO= T EigKep=  2.59D-03  NBF=    76
 NBsUse=    76 1.00D-06 EigRej= -1.00D+00 NBFU=    76
 Precomputing XC quadrature grid using
 IXCGrd= 4 IRadAn=           7 IRanWt=          -1 IRanGd=           0 AccXCQ= 0.00D+00.
 Generated NRdTot=       0 NPtTot=           0 NUsed=           0 NTot=          32
 NSgBfM=    78    78    78    78    78 MxSgAt=     6 MxSgA2=     6.
 Leave Link  302 at Mon Apr 21 19:32:59 2025, MaxMem=   536870912 cpu:               3.1 elap:               0.5
 (Enter /home/szhao/Apps/g16/l303.exe)
 DipDrv:  MaxL=1.
 Leave Link  303 at Mon Apr 21 19:33:00 2025, MaxMem=   536870912 cpu:               1.0 elap:               0.3
 (Enter /home/szhao/Apps/g16/l401.exe)
 ExpMin= 4.05D-02 ExpMax= 9.34D+04 ExpMxC= 3.17D+03 IAcc=3 IRadAn=         7 AccDes= 0.00D+00
 Harris functional with IExCor= 1009 and IRadAn=       7 diagonalized for initial guess.
 HarFok:  IExCor= 1009 AccDes= 0.00D+00 IRadAn=         7 IDoV= 1 UseB2=F ITyADJ=14
 ICtDFT=  3500011 ScaDFX=  1.000000  1.000000  1.000000  1.000000
 FoFCou: FMM=F IPFlag=           0 FMFlag=      100000 FMFlg1=           0
         NFxFlg=           0 DoJE=T BraDBF=F KetDBF=T FulRan=T
         wScrn=  0.000000 ICntrl=       500 IOpCl=  0 I1Cent=   200000004 NGrid=           0
         NMat0=    1 NMatS0=      1 NMatT0=    0 NMatD0=    1 NMtDS0=    0 NMtDT0=    0
 Symmetry not used in FoFCou.
 Harris En= -438.422426289138    
 JPrj=0 DoOrth=F DoCkMO=F.
 Initial guess <Sx>= 0.0000 <Sy>= 0.0000 <Sz>= 0.0000 <S**2>=-0.0000 S=-0.0000
 Leave Link  401 at Mon Apr 21 19:33:01 2025, MaxMem=   536870912 cpu:               4.3 elap:               0.8
 (Enter /home/szhao/Apps/g16/l502.exe)
 Keep R1 and R2 ints in memory in canonical form, NReq=15806772.
 FoFCou: FMM=F IPFlag=           0 FMFlag=           0 FMFlg1=           0
         NFxFlg=           0 DoJE=F BraDBF=F KetDBF=F FulRan=T
         wScrn=  0.000000 ICntrl=       600 IOpCl=  0 I1Cent=           0 NGrid=           0
         NMat0=    1 NMatS0=   2926 NMatT0=    0 NMatD0=    1 NMtDS0=    0 NMtDT0=    0
 Symmetry not used in FoFCou.
 Two-electron integral symmetry not used.
 UHF open shell SCF:
 Using DIIS extrapolation, IDIIS=  1040.
 NGot=   536870912 LenX=   528292970 LenY=   528286445
 Requested convergence on RMS density matrix=1.00D-08 within 128 cycles.
 Requested convergence on MAX density matrix=1.00D-06.
 Requested convergence on             energy=1.00D-06.
 No special actions if energy rises.

 Cycle   1  Pass 1  IDiag  1:
 E= -438.507710912887    
 DIIS: error= 2.92D-02 at cycle   1 NSaved=   1.
 NSaved= 1 IEnMin= 1 EnMin= -438.507710912887     IErMin= 1 ErrMin= 2.92D-02
 ErrMax= 2.92D-02  0.00D+00 EMaxC= 1.00D-01 BMatC= 4.59D-01 BMatP= 4.59D-01
 IDIUse=3 WtCom= 7.08D-01 WtEn= 2.92D-01
 Coeff-Com:  0.100D+01
 Coeff-En:   0.100D+01
 Coeff:      0.100D+01
 Gap=     0.322 Goal=   None    Shift=    0.000
 Gap=     0.322 Goal=   None    Shift=    0.000
 GapD=    0.322 DampG=1.000 DampE=0.500 DampFc=0.5000 IDamp=-1.
 Damping current iteration by 5.00D-01
 RMSDP=5.63D-03 MaxDP=1.45D-01              OVMax= 3.86D-01

 Cycle   2  Pass 1  IDiag  1:
 E= -438.545058733857     Delta-E=       -0.037347820970 Rises=F Damp=T
 DIIS: error= 8.74D-03 at cycle   2 NSaved=   2.
 NSaved= 2 IEnMin= 2 EnMin= -438.545058733857     IErMin= 2 ErrMin= 8.74D-03
 ErrMax= 8.74D-03  0.00D+00 EMaxC= 1.00D-01 BMatC= 4.01D-02 BMatP= 4.59D-01
 IDIUse=3 WtCom= 9.13D-01 WtEn= 8.74D-02
 Coeff-Com:  0.471D-01 0.953D+00
 Coeff-En:   0.227D+00 0.773D+00
 Coeff:      0.629D-01 0.937D+00
 Gap=     0.258 Goal=   None    Shift=    0.000
 Gap=     0.258 Goal=   None    Shift=    0.000
 RMSDP=1.79D-03 MaxDP=3.55D-02 DE=-3.73D-02 OVMax= 2.58D-01

 Cycle   3  Pass 1  IDiag  1:
 E= -438.595901491066     Delta-E=       -0.050842757209 Rises=F Damp=F
 DIIS: error= 6.08D-03 at cycle   3 NSaved=   3.
 NSaved= 3 IEnMin= 3 EnMin= -438.595901491066     IErMin= 3 ErrMin= 6.08D-03
 ErrMax= 6.08D-03  0.00D+00 EMaxC= 1.00D-01 BMatC= 1.14D-02 BMatP= 4.01D-02
 IDIUse=3 WtCom= 9.39D-01 WtEn= 6.08D-02
 Coeff-Com: -0.810D-01 0.307D+00 0.774D+00
 Coeff-En:   0.000D+00 0.000D+00 0.100D+01
 Coeff:     -0.761D-01 0.289D+00 0.787D+00
 Gap=     0.233 Goal=   None    Shift=    0.000
 Gap=     0.233 Goal=   None    Shift=    0.000
 RMSDP=9.39D-04 MaxDP=2.27D-02 DE=-5.08D-02 OVMax= 5.59D-02

 Cycle   4  Pass 1  IDiag  1:
 E= -438.599613087658     Delta-E=       -0.003711596592 Rises=F Damp=F
 DIIS: error= 1.71D-03 at cycle   4 NSaved=   4.
 NSaved= 4 IEnMin= 4 EnMin= -438.599613087658     IErMin= 4 ErrMin= 1.71D-03
 ErrMax= 1.71D-03  0.00D+00 EMaxC= 1.00D-01 BMatC= 1.34D-03 BMatP= 1.14D-02
 IDIUse=3 WtCom= 9.83D-01 WtEn= 1.71D-02
 Coeff-Com: -0.619D-02 0.311D-01 0.281D+00 0.694D+00
 Coeff-En:   0.000D+00 0.000D+00 0.300D-01 0.970D+00
 Coeff:     -0.609D-02 0.306D-01 0.277D+00 0.699D+00
 Gap=     0.230 Goal=   None    Shift=    0.000
 Gap=     0.230 Goal=   None    Shift=    0.000
 RMSDP=2.33D-04 MaxDP=6.60D-03 DE=-3.71D-03 OVMax= 9.36D-03

 Cycle   5  Pass 1  IDiag  1:
 E= -438.599998247094     Delta-E=       -0.000385159436 Rises=F Damp=F
 DIIS: error= 4.31D-04 at cycle   5 NSaved=   5.
 NSaved= 5 IEnMin= 5 EnMin= -438.599998247094     IErMin= 5 ErrMin= 4.31D-04
 ErrMax= 4.31D-04  0.00D+00 EMaxC= 1.00D-01 BMatC= 3.94D-05 BMatP= 1.34D-03
 IDIUse=3 WtCom= 9.96D-01 WtEn= 4.31D-03
 Coeff-Com:  0.567D-02-0.200D-01 0.309D-01 0.146D+00 0.837D+00
 Coeff-En:   0.000D+00 0.000D+00 0.000D+00 0.000D+00 0.100D+01
 Coeff:      0.564D-02-0.199D-01 0.308D-01 0.145D+00 0.838D+00
 Gap=     0.229 Goal=   None    Shift=    0.000
 Gap=     0.229 Goal=   None    Shift=    0.000
 RMSDP=4.01D-05 MaxDP=6.88D-04 DE=-3.85D-04 OVMax= 9.58D-04

 Cycle   6  Pass 1  IDiag  1:
 E= -438.600008976702     Delta-E=       -0.000010729608 Rises=F Damp=F
 DIIS: error= 4.65D-05 at cycle   6 NSaved=   6.
 NSaved= 6 IEnMin= 6 EnMin= -438.600008976702     IErMin= 6 ErrMin= 4.65D-05
 ErrMax= 4.65D-05  0.00D+00 EMaxC= 1.00D-01 BMatC= 7.73D-07 BMatP= 3.94D-05
 IDIUse=1 WtCom= 1.00D+00 WtEn= 0.00D+00
 Coeff-Com:  0.538D-03-0.167D-02-0.930D-02-0.320D-01 0.193D-01 0.102D+01
 Coeff:      0.538D-03-0.167D-02-0.930D-02-0.320D-01 0.193D-01 0.102D+01
 Gap=     0.229 Goal=   None    Shift=    0.000
 Gap=     0.229 Goal=   None    Shift=    0.000
 RMSDP=1.22D-05 MaxDP=2.16D-04 DE=-1.07D-05 OVMax= 4.46D-04

 Cycle   7  Pass 1  IDiag  1:
 E= -438.600009430220     Delta-E=       -0.000000453518 Rises=F Damp=F
 DIIS: error= 2.28D-05 at cycle   7 NSaved=   7.
 NSaved= 7 IEnMin= 7 EnMin= -438.600009430220     IErMin= 7 ErrMin= 2.28D-05
 ErrMax= 2.28D-05  0.00D+00 EMaxC= 1.00D-01 BMatC= 8.21D-08 BMatP= 7.73D-07
 IDIUse=1 WtCom= 1.00D+00 WtEn= 0.00D+00
 Coeff-Com: -0.196D-03 0.642D-03-0.320D-02-0.138D-01-0.458D-01 0.236D+00
 Coeff-Com:  0.826D+00
 Coeff:     -0.196D-03 0.642D-03-0.320D-02-0.138D-01-0.458D-01 0.236D+00
 Coeff:      0.826D+00
 Gap=     0.229 Goal=   None    Shift=    0.000
 Gap=     0.229 Goal=   None    Shift=    0.000
 RMSDP=2.75D-06 MaxDP=4.42D-05 DE=-4.54D-07 OVMax= 9.12D-05

 Cycle   8  Pass 1  IDiag  1:
 E= -438.600009462644     Delta-E=       -0.000000032424 Rises=F Damp=F
 DIIS: error= 3.18D-06 at cycle   8 NSaved=   8.
 NSaved= 8 IEnMin= 8 EnMin= -438.600009462644     IErMin= 8 ErrMin= 3.18D-06
 ErrMax= 3.18D-06  0.00D+00 EMaxC= 1.00D-01 BMatC= 2.84D-09 BMatP= 8.21D-08
 IDIUse=1 WtCom= 1.00D+00 WtEn= 0.00D+00
 Coeff-Com:  0.144D-04-0.183D-04 0.773D-03 0.238D-02 0.213D-02-0.770D-01
 Coeff-Com: -0.495D-01 0.112D+01
 Coeff:      0.144D-04-0.183D-04 0.773D-03 0.238D-02 0.213D-02-0.770D-01
 Coeff:     -0.495D-01 0.112D+01
 Gap=     0.229 Goal=   None    Shift=    0.000
 Gap=     0.229 Goal=   None    Shift=    0.000
 RMSDP=8.53D-07 MaxDP=1.10D-05 DE=-3.24D-08 OVMax= 4.56D-05

 Cycle   9  Pass 1  IDiag  1:
 E= -438.600009464858     Delta-E=       -0.000000002215 Rises=F Damp=F
 DIIS: error= 3.62D-07 at cycle   9 NSaved=   9.
 NSaved= 9 IEnMin= 9 EnMin= -438.600009464858     IErMin= 9 ErrMin= 3.62D-07
 ErrMax= 3.62D-07  0.00D+00 EMaxC= 1.00D-01 BMatC= 5.38D-11 BMatP= 2.84D-09
 IDIUse=1 WtCom= 1.00D+00 WtEn= 0.00D+00
 Coeff-Com:  0.558D-05-0.159D-04 0.760D-04 0.316D-03 0.121D-02-0.307D-02
 Coeff-Com: -0.272D-01-0.296D-01 0.106D+01
 Coeff:      0.558D-05-0.159D-04 0.760D-04 0.316D-03 0.121D-02-0.307D-02
 Coeff:     -0.272D-01-0.296D-01 0.106D+01
 Gap=     0.229 Goal=   None    Shift=    0.000
 Gap=     0.229 Goal=   None    Shift=    0.000
 RMSDP=1.12D-07 MaxDP=1.50D-06 DE=-2.21D-09 OVMax= 6.47D-06

 Cycle  10  Pass 1  IDiag  1:
 E= -438.600009464901     Delta-E=       -0.000000000043 Rises=F Damp=F
 DIIS: error= 1.15D-07 at cycle  10 NSaved=  10.
 NSaved=10 IEnMin=10 EnMin= -438.600009464901     IErMin=10 ErrMin= 1.15D-07
 ErrMax= 1.15D-07  0.00D+00 EMaxC= 1.00D-01 BMatC= 6.19D-12 BMatP= 5.38D-11
 IDIUse=1 WtCom= 1.00D+00 WtEn= 0.00D+00
 Coeff-Com: -0.124D-05 0.164D-05-0.380D-04-0.968D-04 0.206D-04 0.420D-02
 Coeff-Com: -0.222D-02-0.611D-01 0.173D+00 0.886D+00
 Coeff:     -0.124D-05 0.164D-05-0.380D-04-0.968D-04 0.206D-04 0.420D-02
 Coeff:     -0.222D-02-0.611D-01 0.173D+00 0.886D+00
 Gap=     0.229 Goal=   None    Shift=    0.000
 Gap=     0.229 Goal=   None    Shift=    0.000
 RMSDP=2.32D-08 MaxDP=2.94D-07 DE=-4.25D-11 OVMax= 1.02D-06

 Cycle  11  Pass 1  IDiag  1:
 E= -438.600009464903     Delta-E=       -0.000000000003 Rises=F Damp=F
 DIIS: error= 2.43D-08 at cycle  11 NSaved=  11.
 NSaved=11 IEnMin=11 EnMin= -438.600009464903     IErMin=11 ErrMin= 2.43D-08
 ErrMax= 2.43D-08  0.00D+00 EMaxC= 1.00D-01 BMatC= 1.98D-13 BMatP= 6.19D-12
 IDIUse=1 WtCom= 1.00D+00 WtEn= 0.00D+00
 Coeff-Com: -0.554D-06 0.120D-05-0.584D-05-0.210D-04-0.439D-04 0.379D-03
 Coeff-Com:  0.802D-03-0.133D-02-0.462D-01 0.389D-01 0.101D+01
 Coeff:     -0.554D-06 0.120D-05-0.584D-05-0.210D-04-0.439D-04 0.379D-03
 Coeff:      0.802D-03-0.133D-02-0.462D-01 0.389D-01 0.101D+01
 Gap=     0.229 Goal=   None    Shift=    0.000
 Gap=     0.229 Goal=   None    Shift=    0.000
 RMSDP=6.67D-09 MaxDP=7.96D-08 DE=-2.50D-12 OVMax= 2.57D-07

 SCF Done:  E(UM062X) =  -438.600009465     A.U. after   11 cycles
            NFock= 11  Conv=0.67D-08     -V/T= 2.0022
 <Sx>= 0.0000 <Sy>= 0.0000 <Sz>= 0.0000 <S**2>=-0.0000 S=-0.0000
 <L.S>=  0.00000000000    
 KE= 4.376212183604D+02 PE=-1.132211982765D+03 EE= 2.100574172941D+02
 Annihilation of the first spin contaminant:
 S**2 before annihilation    -0.0000,   after     0.0000
 Leave Link  502 at Mon Apr 21 19:33:11 2025, MaxMem=   536870912 cpu:              73.9 elap:               9.9
 (Enter /home/szhao/Apps/g16/l601.exe)
 Copying SCF densities to generalized density rwf, IOpCl= 1 IROHF=0.

 **********************************************************************

            Population analysis using the SCF density.

 **********************************************************************

 Alpha  occ. eigenvalues --  -89.90384 -10.60567  -8.26578  -6.18682  -6.18519
 Alpha  occ. eigenvalues --   -6.18004  -0.81054  -0.77001  -0.49813  -0.49623
 Alpha  occ. eigenvalues --   -0.44361  -0.34732  -0.30080
 Alpha virt. eigenvalues --   -0.07163   0.01946   0.04507   0.05422   0.05634
 Alpha virt. eigenvalues --    0.07687   0.07805   0.08520   0.11385   0.13918
 Alpha virt. eigenvalues --    0.17355   0.17812   0.24471   0.32525   0.35602
 Alpha virt. eigenvalues --    0.36056   0.42193   0.43865   0.44609   0.49901
 Alpha virt. eigenvalues --    0.61774   0.62551   0.63787   0.70049   0.77594
 Alpha virt. eigenvalues --    0.79017   0.80049   0.86866   1.02026   1.02403
 Alpha virt. eigenvalues --    1.05534   1.07613   1.36971   1.47753   1.50606
 Alpha virt. eigenvalues --    1.51697   1.55522   1.55788   1.65599   1.67829
 Alpha virt. eigenvalues --    1.73760   1.73829   1.81139   2.00399   2.13257
 Alpha virt. eigenvalues --    2.17549   2.17625   2.40159   2.47577   2.48829
 Alpha virt. eigenvalues --    2.53199   2.53519   2.60503   2.73479   2.97946
 Alpha virt. eigenvalues --    3.72880   3.74858   7.92511  17.48042  17.51659
 Alpha virt. eigenvalues --   17.53080  23.93300 189.19744
  Beta  occ. eigenvalues --  -89.90384 -10.60567  -8.26578  -6.18682  -6.18519
  Beta  occ. eigenvalues --   -6.18004  -0.81054  -0.77001  -0.49813  -0.49623
  Beta  occ. eigenvalues --   -0.44361  -0.34732  -0.30080
  Beta virt. eigenvalues --   -0.07163   0.01946   0.04507   0.05422   0.05634
  Beta virt. eigenvalues --    0.07687   0.07805   0.08520   0.11385   0.13918
  Beta virt. eigenvalues --    0.17355   0.17812   0.24471   0.32525   0.35602
  Beta virt. eigenvalues --    0.36056   0.42193   0.43865   0.44609   0.49901
  Beta virt. eigenvalues --    0.61774   0.62551   0.63787   0.70049   0.77594
  Beta virt. eigenvalues --    0.79017   0.80049   0.86866   1.02026   1.02403
  Beta virt. eigenvalues --    1.05534   1.07613   1.36971   1.47753   1.50606
  Beta virt. eigenvalues --    1.51697   1.55522   1.55788   1.65599   1.67829
  Beta virt. eigenvalues --    1.73760   1.73829   1.81139   2.00399   2.13257
  Beta virt. eigenvalues --    2.17549   2.17625   2.40159   2.47577   2.48829
  Beta virt. eigenvalues --    2.53199   2.53519   2.60503   2.73479   2.97946
  Beta virt. eigenvalues --    3.72880   3.74858   7.92511  17.48042  17.51659
  Beta virt. eigenvalues --   17.53080  23.93300 189.19744
          Condensed to atoms (all electrons):
               1          2          3          4          5          6
     1  C    5.133586   0.207536   0.004231   0.390310   0.379890   0.379902
     2  S    0.207536  15.722895   0.248983  -0.013270  -0.015378  -0.015373
     3  H    0.004231   0.248983   0.680053   0.000777  -0.000830  -0.000834
     4  H    0.390310  -0.013270   0.000777   0.489178  -0.027336  -0.027327
     5  H    0.379890  -0.015378  -0.000830  -0.027336   0.503442  -0.027586
     6  H    0.379902  -0.015373  -0.000834  -0.027327  -0.027586   0.503455
          Atomic-Atomic Spin Densities.
               1          2          3          4          5          6
     1  C   -0.000000  -0.000000  -0.000000   0.000000   0.000000   0.000000
     2  S   -0.000000   0.000000  -0.000000   0.000000   0.000000   0.000000
     3  H   -0.000000  -0.000000  -0.000000  -0.000000   0.000000  -0.000000
     4  H    0.000000   0.000000  -0.000000   0.000000   0.000000   0.000000
     5  H    0.000000   0.000000   0.000000   0.000000   0.000000   0.000000
     6  H    0.000000   0.000000  -0.000000   0.000000   0.000000   0.000000
 Mulliken charges and spin densities:
               1          2
     1  C   -0.495455  -0.000000
     2  S   -0.135393   0.000000
     3  H    0.067620  -0.000000
     4  H    0.187667   0.000000
     5  H    0.187799   0.000000
     6  H    0.187762   0.000000
 Sum of Mulliken charges =  -0.00000  -0.00000
 Mulliken charges and spin densities with hydrogens summed into heavy atoms:
               1          2
     1  C    0.067774  -0.000000
     2  S   -0.067774   0.000000
 Electronic spatial extent (au):  <R**2>=            224.2686
 Charge=              0.0000 electrons
 Dipole moment (field-independent basis, Debye):
    X=             -2.1425    Y=             -0.9190    Z=              0.0002  Tot=              2.3313
 Quadrupole moment (field-independent basis, Debye-Ang):
   XX=            -19.2364   YY=            -19.6955   ZZ=            -23.5595
   XY=             -1.8643   XZ=             -0.0001   YZ=             -0.0000
 Traceless Quadrupole moment (field-independent basis, Debye-Ang):
   XX=              1.5941   YY=              1.1350   ZZ=             -2.7291
   XY=             -1.8643   XZ=             -0.0001   YZ=             -0.0000
 Octapole moment (field-independent basis, Debye-Ang**2):
  XXX=            -25.4934  YYY=              1.9383  ZZZ=             -0.0072  XYY=             -6.4060
  XXY=             -2.1891  XXZ=             -0.0000  XZZ=            -11.8795  YZZ=             -0.0270
  YYZ=              0.0067  XYZ=              0.0002
 Hexadecapole moment (field-independent basis, Debye-Ang**3):
 XXXX=           -237.0900 YYYY=            -36.3885 ZZZZ=            -40.0839 XXXY=             -1.1322
 XXXZ=              0.0024 YYYX=             -0.6367 YYYZ=              0.0010 ZZZX=              0.0122
 ZZZY=             -0.0008 XXYY=            -42.7733 XXZZ=            -49.2027 YYZZ=            -13.3908
 XXYZ=             -0.0006 YYXZ=             -0.0118 ZZXY=              2.4175
 N-N= 4.593333764566D+01 E-N=-1.132211982976D+03  KE= 4.376212183604D+02
                          Isotropic Fermi Contact Couplings
        Atom                 a.u.       MegaHertz       Gauss      10(-4) cm-1
     1  C(13)             -0.00000      -0.00000      -0.00000      -0.00000
     2  S(33)             -0.00000      -0.00000      -0.00000      -0.00000
     3  H(1)               0.00000       0.00000       0.00000       0.00000
     4  H(1)              -0.00000      -0.00000      -0.00000      -0.00000
     5  H(1)               0.00000       0.00000       0.00000       0.00000
     6  H(1)              -0.00000      -0.00000      -0.00000      -0.00000
 --------------------------------------------------------
       Center         ----  Spin Dipole Couplings  ----
                      3XX-RR        3YY-RR        3ZZ-RR
 --------------------------------------------------------
     1   Atom        0.000000      0.000000      0.000000
     2   Atom        0.000000      0.000000      0.000000
     3   Atom        0.000000      0.000000      0.000000
     4   Atom        0.000000      0.000000      0.000000
     5   Atom        0.000000      0.000000      0.000000
     6   Atom        0.000000      0.000000      0.000000
 --------------------------------------------------------
                        XY            XZ            YZ
 --------------------------------------------------------
     1   Atom        0.000000      0.000000      0.000000
     2   Atom        0.000000      0.000000      0.000000
     3   Atom        0.000000      0.000000      0.000000
     4   Atom        0.000000      0.000000      0.000000
     5   Atom        0.000000      0.000000      0.000000
     6   Atom        0.000000      0.000000      0.000000
 --------------------------------------------------------


 ---------------------------------------------------------------------------------
              Anisotropic Spin Dipole Couplings in Principal Axis System
 ---------------------------------------------------------------------------------

       Atom             a.u.   MegaHertz   Gauss  10(-4) cm-1        Axes

              Baa     0.0000     0.000     0.000     0.000  1.0000  0.0000  0.0000
     1 C(13)  Bbb     0.0000     0.000     0.000     0.000 -0.0000  1.0000  0.0000
              Bcc     0.0000     0.000     0.000     0.000  0.0000  0.0000  1.0000
 
              Baa     0.0000     0.000     0.000     0.000  1.0000  0.0000  0.0000
     2 S(33)  Bbb     0.0000     0.000     0.000     0.000 -0.0000  1.0000  0.0000
              Bcc     0.0000     0.000     0.000     0.000  0.0000  0.0000  1.0000
 
              Baa     0.0000     0.000     0.000     0.000  1.0000  0.0000  0.0000
     3 H(1)   Bbb     0.0000     0.000     0.000     0.000 -0.0000  1.0000  0.0000
              Bcc     0.0000     0.000     0.000     0.000  0.0000  0.0000  1.0000
 
              Baa     0.0000     0.000     0.000     0.000  1.0000  0.0000  0.0000
     4 H(1)   Bbb     0.0000     0.000     0.000     0.000 -0.0000  1.0000  0.0000
              Bcc     0.0000     0.000     0.000     0.000  0.0000  0.0000  1.0000
 
              Baa     0.0000     0.000     0.000     0.000  1.0000  0.0000  0.0000
     5 H(1)   Bbb     0.0000     0.000     0.000     0.000 -0.0000  1.0000  0.0000
              Bcc     0.0000     0.000     0.000     0.000  0.0000  0.0000  1.0000
 
              Baa     0.0000     0.000     0.000     0.000  1.0000  0.0000  0.0000
     6 H(1)   Bbb     0.0000     0.000     0.000     0.000 -0.0000  1.0000  0.0000
              Bcc     0.0000     0.000     0.000     0.000  0.0000  0.0000  1.0000
 

 ---------------------------------------------------------------------------------

 No NMR shielding tensors so no spin-rotation constants.
 Leave Link  601 at Mon Apr 21 19:33:12 2025, MaxMem=   536870912 cpu:               1.9 elap:               0.3
 (Enter /home/szhao/Apps/g16/l701.exe)
 ... and contract with generalized density number  0.
 Compute integral first derivatives.
 Leave Link  701 at Mon Apr 21 19:33:12 2025, MaxMem=   536870912 cpu:               1.4 elap:               0.3
 (Enter /home/szhao/Apps/g16/l702.exe)
 L702 exits ... SP integral derivatives will be done elsewhere.
 Leave Link  702 at Mon Apr 21 19:33:13 2025, MaxMem=   536870912 cpu:               0.6 elap:               0.2
 (Enter /home/szhao/Apps/g16/l703.exe)
 Integral derivatives from FoFJK, PRISM(SPDF).
 Compute integral first derivatives, UseDBF=F ICtDFT=           0.
 Calling FoFJK, ICntrl=      2127 FMM=F ISym2X=0 I1Cent= 0 IOpClX= 1 NMat=1 NMatS=1 NMatT=0.
 FoFJK:  IHMeth= 1 ICntrl=    2127 DoSepK=F KAlg= 0 I1Cent=           0 FoldK=F
 IRaf=         0 NMat=       1 IRICut=       1 DoRegI=T DoRafI=F ISym2E= 0 IDoP0=0 IntGTp=1.
 FoFCou: FMM=F IPFlag=           0 FMFlag=      100000 FMFlg1=         800
         NFxFlg=           0 DoJE=F BraDBF=F KetDBF=F FulRan=T
         wScrn=  0.000000 ICntrl=      2127 IOpCl=  1 I1Cent=           0 NGrid=           0
         NMat0=    1 NMatS0=      1 NMatT0=    0 NMatD0=    1 NMtDS0=    0 NMtDT0=    0
 Symmetry not used in FoFCou.
 Leave Link  703 at Mon Apr 21 19:33:15 2025, MaxMem=   536870912 cpu:              11.6 elap:               1.5
 (Enter /home/szhao/Apps/g16/l716.exe)
 Dipole        =-8.42941555D-01-3.61561223D-01 9.40604244D-05
 -------------------------------------------------------------------
 Center     Atomic                   Forces (Hartrees/Bohr)
 Number     Number              X              Y              Z
 -------------------------------------------------------------------
      1        6          -0.000000000   -0.000000000   -0.000000000
      2       16          -0.000000000   -0.000000000   -0.000000000
      3        1          -0.004423598   -0.001924555   -0.000000977
      4        1           0.015176833    0.003141387    0.000002521
      5        1           0.015142898   -0.003872773   -0.003237313
      6        1           0.015136670   -0.003895569    0.003216289
 -------------------------------------------------------------------
 Cartesian Forces:  Max     0.015176833 RMS     0.006552783
 Leave Link  716 at Mon Apr 21 19:33:15 2025, MaxMem=   536870912 cpu:               0.6 elap:               0.3
 (Enter /home/szhao/Apps/g16/l103.exe)

 GradGradGradGradGradGradGradGradGradGradGradGradGradGradGradGradGradGrad
 Berny optimization.
 FormGI is forming the generalized inverse of G from B-inverse, IUseBI=4.
 Internal  Forces:  Max     0.045456401 RMS     0.013815271
 Search for a local minimum.
 Step number   1 out of a maximum of   30
 All quantities printed in internal units (Hartrees-Bohrs-Radians)
 RMS Force = .11047D-01 SwitMx=.10000D-02 MixMth= 1
 Mixed Optimization -- RFO/linear search
 Second derivative matrix not updated -- first step.
 The second derivative matrix:
                          X1        Y1        Z1        X2        Y2
           X1           0.50000
           Y1           0.00000   0.50000
           Z1           0.00000   0.00000   0.50000
           X2           0.00000   0.00000   0.00000   0.50000
           Y2           0.00000   0.00000   0.00000   0.00000   0.50000
           Z2           0.00000   0.00000   0.00000   0.00000   0.00000
           R1           0.00000   0.00000   0.00000   0.00000   0.00000
           R2           0.00000   0.00000   0.00000   0.00000   0.00000
           R3           0.00000   0.00000   0.00000   0.00000   0.00000
           R4           0.00000   0.00000   0.00000   0.00000   0.00000
           A1           0.00000   0.00000   0.00000   0.00000   0.00000
           A2           0.00000   0.00000   0.00000   0.00000   0.00000
           A3           0.00000   0.00000   0.00000   0.00000   0.00000
           A4           0.00000   0.00000   0.00000   0.00000   0.00000
           A5           0.00000   0.00000   0.00000   0.00000   0.00000
           A6           0.00000   0.00000   0.00000   0.00000   0.00000
           A7           0.00000   0.00000   0.00000   0.00000   0.00000
           D1           0.00000   0.00000   0.00000   0.00000   0.00000
           D2           0.00000   0.00000   0.00000   0.00000   0.00000
           D3           0.00000   0.00000   0.00000   0.00000   0.00000
                          Z2        R1        R2        R3        R4
           Z2           0.50000
           R1           0.00000   0.34961
           R2           0.00000   0.00000   0.35028
           R3           0.00000   0.00000   0.00000   0.35028
           R4           0.00000   0.00000   0.00000   0.00000   0.26329
           A1           0.00000   0.00000   0.00000   0.00000   0.00000
           A2           0.00000   0.00000   0.00000   0.00000   0.00000
           A3           0.00000   0.00000   0.00000   0.00000   0.00000
           A4           0.00000   0.00000   0.00000   0.00000   0.00000
           A5           0.00000   0.00000   0.00000   0.00000   0.00000
           A6           0.00000   0.00000   0.00000   0.00000   0.00000
           A7           0.00000   0.00000   0.00000   0.00000   0.00000
           D1           0.00000   0.00000   0.00000   0.00000   0.00000
           D2           0.00000   0.00000   0.00000   0.00000   0.00000
           D3           0.00000   0.00000   0.00000   0.00000   0.00000
                          A1        A2        A3        A4        A5
           A1           0.16000
           A2           0.00000   0.16000
           A3           0.00000   0.00000   0.16000
           A4           0.00000   0.00000   0.00000   0.16000
           A5           0.00000   0.00000   0.00000   0.00000   0.16000
           A6           0.00000   0.00000   0.00000   0.00000   0.00000
           A7           0.00000   0.00000   0.00000   0.00000   0.00000
           D1           0.00000   0.00000   0.00000   0.00000   0.00000
           D2           0.00000   0.00000   0.00000   0.00000   0.00000
           D3           0.00000   0.00000   0.00000   0.00000   0.00000
                          A6        A7        D1        D2        D3
           A6           0.16000
           A7           0.00000   0.16000
           D1           0.00000   0.00000   0.00230
           D2           0.00000   0.00000   0.00000   0.00230
           D3           0.00000   0.00000   0.00000   0.00000   0.00230
 ITU=  0
     Eigenvalues ---    0.00230   0.09535   0.10226   0.16000   0.16000
     Eigenvalues ---    0.16000   0.16000   0.26329   0.34961   0.35028
     Eigenvalues ---    0.350281000.000001000.000001000.000001000.00000
     Eigenvalues --- 1000.000001000.000001000.000001000.000001000.00000
 RFO step:  Lambda=-1.00886470D-02 EMin= 2.30000000D-03
 Linear search not attempted -- first point.
 Iteration  1 RMS(Cart)=  0.08547528 RMS(Int)=  0.00565179
 Iteration  2 RMS(Cart)=  0.00568502 RMS(Int)=  0.00319646
 Iteration  3 RMS(Cart)=  0.00005040 RMS(Int)=  0.00319630
 Iteration  4 RMS(Cart)=  0.00000053 RMS(Int)=  0.00319630
 ITry= 1 IFail=0 DXMaxC= 2.04D-01 DCOld= 1.00D+10 DXMaxT= 3.00D-01 DXLimC= 3.00D+00 Rises=F
 Variable       Old X    -DE/DX   Delta X   Delta X   Delta X     New X
                                 (Linear)    (Quad)   (Total)
    X1       -2.38147   0.04546   0.00000   0.00000   0.00000  -2.38147
    Y1        0.00000  -0.00247   0.00000   0.00000   0.00000   0.00000
    Z1        0.00000  -0.00002   0.00000   0.00000   0.00000   0.00000
    X2        2.38147  -0.00442   0.00000   0.00000   0.00000   2.38147
    Y2        0.00000  -0.00408   0.00000   0.00000   0.00000   0.00000
    Z2        0.00000   0.00000   0.00000   0.00000   0.00000   0.00000
    R1        2.05738  -0.00122   0.00000  -0.00340  -0.00340   2.05397
    R2        2.05629  -0.00114   0.00000  -0.00316  -0.00316   2.05313
    R3        2.05629  -0.00113   0.00000  -0.00314  -0.00314   2.05314
    R4        2.53443   0.00140   0.00000   0.00513   0.00513   2.53956
    A1        1.85395  -0.01533   0.00000  -0.08574  -0.09032   1.76363
    A2        1.94230  -0.01639   0.00000  -0.09869  -0.10391   1.83838
    A3        1.94221  -0.01638   0.00000  -0.09861  -0.10383   1.83838
    A4        1.89795   0.01652   0.00000   0.10154   0.09556   1.99351
    A5        1.89780   0.01653   0.00000   0.10160   0.09563   1.99344
    A6        1.92721   0.01552   0.00000   0.08355   0.07612   2.00333
    A7        1.68629  -0.01170   0.00000  -0.06878  -0.06878   1.61751
    D1        3.13880   0.00001   0.00000   0.00012   0.00011   3.13892
    D2       -1.08142   0.00185   0.00000   0.01759   0.01653  -1.06489
    D3        1.07606  -0.00185   0.00000  -0.01750  -0.01644   1.05962
         Item               Value     Threshold  Converged?
 Maximum Force            0.016529     0.000450     NO 
 RMS     Force            0.011047     0.000300     NO 
 Maximum Displacement     0.203606     0.001800     NO 
 RMS     Displacement     0.088889     0.001200     NO 
 Predicted change in Energy=-5.320538D-03
 Lowest energy point so far.  Saving SCF results.
 GradGradGradGradGradGradGradGradGradGradGradGradGradGradGradGradGradGrad

 Leave Link  103 at Mon Apr 21 19:33:16 2025, MaxMem=   536870912 cpu:               1.3 elap:               0.3
 (Enter /home/szhao/Apps/g16/l202.exe)
                          Input orientation:                          
 ---------------------------------------------------------------------
 Center     Atomic      Atomic             Coordinates (Angstroms)
 Number     Number       Type             X           Y           Z
 ---------------------------------------------------------------------
      1          6           0       -1.260220    0.000000    0.000000
      2         16           0        1.260220    0.000000    0.000000
      3          1           0        1.322969   -1.342412   -0.000054
      4          1           0       -1.468520    1.066765    0.002897
      5          1           0       -1.547487   -0.507733   -0.916571
      6          1           0       -1.547486   -0.512633    0.913848
 ---------------------------------------------------------------------
                    Distance matrix (angstroms):
                    1          2          3          4          5
     1  C    0.000000
     2  S    2.520439   0.000000
     3  H    2.911174   1.343878   0.000000
     4  H    1.086916   2.929849   3.687351   0.000000
     5  H    1.086471   2.996850   3.126693   1.825021   0.000000
     6  H    1.086477   2.996852   3.124623   1.824984   1.830426
                    6
     6  H    0.000000
 Symmetry turned off by external request.
 Stoichiometry    CH4S
 Framework group  C1[X(CH4S)]
 Deg. of freedom    12
 Full point group                 C1      NOp   1
 Rotational constants (GHZ):          98.7240379           7.1874369           7.0136346
 Leave Link  202 at Mon Apr 21 19:33:17 2025, MaxMem=   536870912 cpu:               0.3 elap:               0.4
 (Enter /home/szhao/Apps/g16/l301.exe)
 Standard basis: 6-311+G(d,p) (5D, 7F)
 Ernie: Thresh=  0.10000D-02 Tol=  0.10000D-05 Strict=F.
    76 basis functions,   118 primitive gaussians,    78 cartesian basis functions
    13 alpha electrons       13 beta electrons
       nuclear repulsion energy        46.2039238166 Hartrees.
 IExCor= 4336 DFT=T Ex+Corr=M062X ExCW=0 ScaHFX=  0.540000
 ScaDFX=  1.000000  1.000000  1.000000  1.000000 ScalE2=  1.000000  1.000000
 IRadAn=      7 IRanWt=     -1 IRanGd=            0 ICorTp=0 IEmpDi=  4
 NAtoms=    6 NActive=    6 NUniq=    6 SFac= 1.00D+00 NAtFMM=   60 NAOKFM=F Big=F
 Integral buffers will be    131072 words long.
 Raffenetti 2 integral format.
 Two-electron integral symmetry is turned off.
 Leave Link  301 at Mon Apr 21 19:33:17 2025, MaxMem=   536870912 cpu:               1.3 elap:               0.3
 (Enter /home/szhao/Apps/g16/l302.exe)
 NPDir=0 NMtPBC=     1 NCelOv=     1 NCel=       1 NClECP=     1 NCelD=      1
         NCelK=      1 NCelE2=     1 NClLst=     1 CellRange=     0.0.
 One-electron integrals computed using PRISM.
 NBasis=    76 RedAO= T EigKep=  2.36D-03  NBF=    76
 NBsUse=    76 1.00D-06 EigRej= -1.00D+00 NBFU=    76
 Precomputing XC quadrature grid using
 IXCGrd= 4 IRadAn=           7 IRanWt=          -1 IRanGd=           0 AccXCQ= 0.00D+00.
 Generated NRdTot=       0 NPtTot=           0 NUsed=           0 NTot=          32
 NSgBfM=    78    78    78    78    78 MxSgAt=     6 MxSgA2=     6.
 Leave Link  302 at Mon Apr 21 19:33:18 2025, MaxMem=   536870912 cpu:               2.4 elap:               0.4
 (Enter /home/szhao/Apps/g16/l303.exe)
 DipDrv:  MaxL=1.
 Leave Link  303 at Mon Apr 21 19:33:19 2025, MaxMem=   536870912 cpu:               0.7 elap:               0.2
 (Enter /home/szhao/Apps/g16/l401.exe)
 Initial guess from the checkpoint file:  "opt.chk"
 B after Tr=     0.016068   -0.002865   -0.000025
         Rot=    1.000000    0.000002    0.000005    0.000639 Ang=   0.07 deg.
 Guess basis will be translated and rotated to current coordinates.
 JPrj=2 DoOrth=T DoCkMO=T.
 Initial guess <Sx>= 0.0000 <Sy>= 0.0000 <Sz>= 0.0000 <S**2>=-0.0000 S=-0.0000
 Generating alternative initial guess.
 ExpMin= 4.05D-02 ExpMax= 9.34D+04 ExpMxC= 3.17D+03 IAcc=3 IRadAn=         5 AccDes= 0.00D+00
 Harris functional with IExCor= 1009 and IRadAn=       5 diagonalized for initial guess.
 HarFok:  IExCor= 1009 AccDes= 0.00D+00 IRadAn=         5 IDoV= 1 UseB2=F ITyADJ=14
 ICtDFT=  3500011 ScaDFX=  1.000000  1.000000  1.000000  1.000000
 FoFCou: FMM=F IPFlag=           0 FMFlag=      100000 FMFlg1=           0
         NFxFlg=           0 DoJE=T BraDBF=F KetDBF=T FulRan=T
         wScrn=  0.000000 ICntrl=       500 IOpCl=  0 I1Cent=   200000004 NGrid=           0
         NMat0=    1 NMatS0=      1 NMatT0=    0 NMatD0=    1 NMtDS0=    0 NMtDT0=    0
 Symmetry not used in FoFCou.
 Harris En= -438.425894785540    
 Leave Link  401 at Mon Apr 21 19:33:20 2025, MaxMem=   536870912 cpu:               3.0 elap:               0.6
 (Enter /home/szhao/Apps/g16/l502.exe)
 Keep R1 and R2 ints in memory in canonical form, NReq=15806772.
 FoFCou: FMM=F IPFlag=           0 FMFlag=           0 FMFlg1=           0
         NFxFlg=           0 DoJE=F BraDBF=F KetDBF=F FulRan=T
         wScrn=  0.000000 ICntrl=       600 IOpCl=  0 I1Cent=           0 NGrid=           0
         NMat0=    1 NMatS0=   2926 NMatT0=    0 NMatD0=    1 NMtDS0=    0 NMtDT0=    0
 Symmetry not used in FoFCou.
 Two-electron integral symmetry not used.
 UHF open shell SCF:
 Using DIIS extrapolation, IDIIS=  1040.
 NGot=   536870912 LenX=   528292970 LenY=   528286445
 Requested convergence on RMS density matrix=1.00D-08 within 128 cycles.
 Requested convergence on MAX density matrix=1.00D-06.
 Requested convergence on             energy=1.00D-06.
 No special actions if energy rises.

 Cycle   1  Pass 1  IDiag  1:
 E= -438.605282087684    
 DIIS: error= 5.25D-03 at cycle   1 NSaved=   1.
 NSaved= 1 IEnMin= 1 EnMin= -438.605282087684     IErMin= 1 ErrMin= 5.25D-03
 ErrMax= 5.25D-03  0.00D+00 EMaxC= 1.00D-01 BMatC= 5.36D-03 BMatP= 5.36D-03
 IDIUse=3 WtCom= 9.47D-01 WtEn= 5.25D-02
 Coeff-Com:  0.100D+01
 Coeff-En:   0.100D+01
 Coeff:      0.100D+01
 Gap=     0.472 Goal=   None    Shift=    0.000
 Gap=     0.472 Goal=   None    Shift=    0.000
 GapD=    0.472 DampG=2.000 DampE=1.000 DampFc=2.0000 IDamp=-1.
 RMSDP=5.22D-04 MaxDP=7.41D-03              OVMax= 2.04D-02

 Cycle   2  Pass 1  IDiag  1:
 E= -438.607193231892     Delta-E=       -0.001911144208 Rises=F Damp=F
 DIIS: error= 7.73D-04 at cycle   2 NSaved=   2.
 NSaved= 2 IEnMin= 2 EnMin= -438.607193231892     IErMin= 2 ErrMin= 7.73D-04
 ErrMax= 7.73D-04  0.00D+00 EMaxC= 1.00D-01 BMatC= 1.60D-04 BMatP= 5.36D-03
 IDIUse=3 WtCom= 9.92D-01 WtEn= 7.73D-03
 Coeff-Com: -0.494D-01 0.105D+01
 Coeff-En:   0.000D+00 0.100D+01
 Coeff:     -0.490D-01 0.105D+01
 Gap=     0.230 Goal=   None    Shift=    0.000
 Gap=     0.230 Goal=   None    Shift=    0.000
 RMSDP=1.72D-04 MaxDP=2.58D-03 DE=-1.91D-03 OVMax= 6.10D-03

 Cycle   3  Pass 1  IDiag  1:
 E= -438.607273921224     Delta-E=       -0.000080689332 Rises=F Damp=F
 DIIS: error= 3.38D-04 at cycle   3 NSaved=   3.
 NSaved= 3 IEnMin= 3 EnMin= -438.607273921224     IErMin= 3 ErrMin= 3.38D-04
 ErrMax= 3.38D-04  0.00D+00 EMaxC= 1.00D-01 BMatC= 2.03D-05 BMatP= 1.60D-04
 IDIUse=3 WtCom= 9.97D-01 WtEn= 3.38D-03
 Coeff-Com: -0.348D-01 0.204D+00 0.831D+00
 Coeff-En:   0.000D+00 0.000D+00 0.100D+01
 Coeff:     -0.347D-01 0.203D+00 0.831D+00
 Gap=     0.230 Goal=   None    Shift=    0.000
 Gap=     0.230 Goal=   None    Shift=    0.000
 RMSDP=3.46D-05 MaxDP=5.94D-04 DE=-8.07D-05 OVMax= 9.34D-04

 Cycle   4  Pass 1  IDiag  1:
 E= -438.607280917063     Delta-E=       -0.000006995839 Rises=F Damp=F
 DIIS: error= 1.04D-04 at cycle   4 NSaved=   4.
 NSaved= 4 IEnMin= 4 EnMin= -438.607280917063     IErMin= 4 ErrMin= 1.04D-04
 ErrMax= 1.04D-04  0.00D+00 EMaxC= 1.00D-01 BMatC= 2.48D-06 BMatP= 2.03D-05
 IDIUse=3 WtCom= 9.99D-01 WtEn= 1.04D-03
 Coeff-Com: -0.562D-02-0.183D-02 0.226D+00 0.781D+00
 Coeff-En:   0.000D+00 0.000D+00 0.000D+00 0.100D+01
 Coeff:     -0.562D-02-0.183D-02 0.226D+00 0.781D+00
 Gap=     0.230 Goal=   None    Shift=    0.000
 Gap=     0.230 Goal=   None    Shift=    0.000
 RMSDP=1.73D-05 MaxDP=3.28D-04 DE=-7.00D-06 OVMax= 1.06D-03

 Cycle   5  Pass 1  IDiag  1:
 E= -438.607281656863     Delta-E=       -0.000000739800 Rises=F Damp=F
 DIIS: error= 6.28D-05 at cycle   5 NSaved=   5.
 NSaved= 5 IEnMin= 5 EnMin= -438.607281656863     IErMin= 5 ErrMin= 6.28D-05
 ErrMax= 6.28D-05  0.00D+00 EMaxC= 1.00D-01 BMatC= 1.36D-06 BMatP= 2.48D-06
 IDIUse=1 WtCom= 1.00D+00 WtEn= 0.00D+00
 Coeff-Com:  0.142D-02-0.325D-01-0.460D-02 0.453D+00 0.583D+00
 Coeff:      0.142D-02-0.325D-01-0.460D-02 0.453D+00 0.583D+00
 Gap=     0.230 Goal=   None    Shift=    0.000
 Gap=     0.230 Goal=   None    Shift=    0.000
 RMSDP=8.22D-06 MaxDP=1.68D-04 DE=-7.40D-07 OVMax= 3.84D-04

 Cycle   6  Pass 1  IDiag  1:
 E= -438.607282083883     Delta-E=       -0.000000427020 Rises=F Damp=F
 DIIS: error= 1.16D-05 at cycle   6 NSaved=   6.
 NSaved= 6 IEnMin= 6 EnMin= -438.607282083883     IErMin= 6 ErrMin= 1.16D-05
 ErrMax= 1.16D-05  0.00D+00 EMaxC= 1.00D-01 BMatC= 9.92D-08 BMatP= 1.36D-06
 IDIUse=1 WtCom= 1.00D+00 WtEn= 0.00D+00
 Coeff-Com:  0.187D-02-0.181D-01-0.388D-01 0.125D+00 0.272D+00 0.659D+00
 Coeff:      0.187D-02-0.181D-01-0.388D-01 0.125D+00 0.272D+00 0.659D+00
 Gap=     0.230 Goal=   None    Shift=    0.000
 Gap=     0.230 Goal=   None    Shift=    0.000
 RMSDP=2.43D-06 MaxDP=5.34D-05 DE=-4.27D-07 OVMax= 1.20D-04

 Cycle   7  Pass 1  IDiag  1:
 E= -438.607282114731     Delta-E=       -0.000000030848 Rises=F Damp=F
 DIIS: error= 2.13D-06 at cycle   7 NSaved=   7.
 NSaved= 7 IEnMin= 7 EnMin= -438.607282114731     IErMin= 7 ErrMin= 2.13D-06
 ErrMax= 2.13D-06  0.00D+00 EMaxC= 1.00D-01 BMatC= 1.37D-09 BMatP= 9.92D-08
 IDIUse=1 WtCom= 1.00D+00 WtEn= 0.00D+00
 Coeff-Com: -0.158D-03 0.276D-02 0.213D-03-0.267D-01-0.527D-01-0.537D-01
 Coeff-Com:  0.113D+01
 Coeff:     -0.158D-03 0.276D-02 0.213D-03-0.267D-01-0.527D-01-0.537D-01
 Coeff:      0.113D+01
 Gap=     0.230 Goal=   None    Shift=    0.000
 Gap=     0.230 Goal=   None    Shift=    0.000
 RMSDP=6.50D-07 MaxDP=7.73D-06 DE=-3.08D-08 OVMax= 3.34D-05

 Cycle   8  Pass 1  IDiag  1:
 E= -438.607282115885     Delta-E=       -0.000000001154 Rises=F Damp=F
 DIIS: error= 5.69D-07 at cycle   8 NSaved=   8.
 NSaved= 8 IEnMin= 8 EnMin= -438.607282115885     IErMin= 8 ErrMin= 5.69D-07
 ErrMax= 5.69D-07  0.00D+00 EMaxC= 1.00D-01 BMatC= 8.56D-11 BMatP= 1.37D-09
 IDIUse=1 WtCom= 1.00D+00 WtEn= 0.00D+00
 Coeff-Com: -0.125D-03 0.147D-02 0.198D-02-0.116D-01-0.230D-01-0.410D-01
 Coeff-Com:  0.231D+00 0.842D+00
 Coeff:     -0.125D-03 0.147D-02 0.198D-02-0.116D-01-0.230D-01-0.410D-01
 Coeff:      0.231D+00 0.842D+00
 Gap=     0.230 Goal=   None    Shift=    0.000
 Gap=     0.230 Goal=   None    Shift=    0.000
 RMSDP=1.14D-07 MaxDP=1.07D-06 DE=-1.15D-09 OVMax= 4.80D-06

 Cycle   9  Pass 1  IDiag  1:
 E= -438.607282115925     Delta-E=       -0.000000000040 Rises=F Damp=F
 DIIS: error= 8.59D-08 at cycle   9 NSaved=   9.
 NSaved= 9 IEnMin= 9 EnMin= -438.607282115925     IErMin= 9 ErrMin= 8.59D-08
 ErrMax= 8.59D-08  0.00D+00 EMaxC= 1.00D-01 BMatC= 3.18D-12 BMatP= 8.56D-11
 IDIUse=1 WtCom= 1.00D+00 WtEn= 0.00D+00
 Coeff-Com:  0.179D-05-0.681D-04 0.837D-04 0.577D-03 0.218D-02 0.150D-02
 Coeff-Com: -0.501D-01 0.238D-01 0.102D+01
 Coeff:      0.179D-05-0.681D-04 0.837D-04 0.577D-03 0.218D-02 0.150D-02
 Coeff:     -0.501D-01 0.238D-01 0.102D+01
 Gap=     0.230 Goal=   None    Shift=    0.000
 Gap=     0.230 Goal=   None    Shift=    0.000
 RMSDP=2.85D-08 MaxDP=2.93D-07 DE=-3.98D-11 OVMax= 1.18D-06

 Cycle  10  Pass 1  IDiag  1:
 E= -438.607282115928     Delta-E=       -0.000000000003 Rises=F Damp=F
 DIIS: error= 2.55D-08 at cycle  10 NSaved=  10.
 NSaved=10 IEnMin=10 EnMin= -438.607282115928     IErMin=10 ErrMin= 2.55D-08
 ErrMax= 2.55D-08  0.00D+00 EMaxC= 1.00D-01 BMatC= 1.81D-13 BMatP= 3.18D-12
 IDIUse=1 WtCom= 1.00D+00 WtEn= 0.00D+00
 Coeff-Com:  0.473D-05-0.566D-04-0.741D-04 0.450D-03 0.989D-03 0.842D-03
 Coeff-Com: -0.722D-02-0.344D-01-0.118D-01 0.105D+01
 Coeff:      0.473D-05-0.566D-04-0.741D-04 0.450D-03 0.989D-03 0.842D-03
 Coeff:     -0.722D-02-0.344D-01-0.118D-01 0.105D+01
 Gap=     0.230 Goal=   None    Shift=    0.000
 Gap=     0.230 Goal=   None    Shift=    0.000
 RMSDP=7.30D-09 MaxDP=1.02D-07 DE=-3.13D-12 OVMax= 1.92D-07

 SCF Done:  E(UM062X) =  -438.607282116     A.U. after   10 cycles
            NFock= 10  Conv=0.73D-08     -V/T= 2.0022
 <Sx>= 0.0000 <Sy>= 0.0000 <Sz>= 0.0000 <S**2>=-0.0000 S=-0.0000
 <L.S>=  0.00000000000    
 KE= 4.376376581429D+02 PE=-1.132828511951D+03 EE= 2.103796478751D+02
 Annihilation of the first spin contaminant:
 S**2 before annihilation    -0.0000,   after     0.0000
 Leave Link  502 at Mon Apr 21 19:33:29 2025, MaxMem=   536870912 cpu:              63.6 elap:               8.5
 (Enter /home/szhao/Apps/g16/l701.exe)
 ... and contract with generalized density number  0.
 Compute integral first derivatives.
 Leave Link  701 at Mon Apr 21 19:33:29 2025, MaxMem=   536870912 cpu:               1.4 elap:               0.3
 (Enter /home/szhao/Apps/g16/l702.exe)
 L702 exits ... SP integral derivatives will be done elsewhere.
 Leave Link  702 at Mon Apr 21 19:33:30 2025, MaxMem=   536870912 cpu:               0.4 elap:               0.2
 (Enter /home/szhao/Apps/g16/l703.exe)
 Integral derivatives from FoFJK, PRISM(SPDF).
 Compute integral first derivatives, UseDBF=F ICtDFT=           0.
 Calling FoFJK, ICntrl=      2127 FMM=F ISym2X=0 I1Cent= 0 IOpClX= 1 NMat=1 NMatS=1 NMatT=0.
 FoFJK:  IHMeth= 1 ICntrl=    2127 DoSepK=F KAlg= 0 I1Cent=           0 FoldK=F
 IRaf=         0 NMat=       1 IRICut=       1 DoRegI=T DoRafI=F ISym2E= 0 IDoP0=0 IntGTp=1.
 FoFCou: FMM=F IPFlag=           0 FMFlag=      100000 FMFlg1=         800
         NFxFlg=           0 DoJE=F BraDBF=F KetDBF=F FulRan=T
         wScrn=  0.000000 ICntrl=      2127 IOpCl=  1 I1Cent=           0 NGrid=           0
         NMat0=    1 NMatS0=      1 NMatT0=    0 NMatD0=    1 NMtDS0=    0 NMtDT0=    0
 Symmetry not used in FoFCou.
 Leave Link  703 at Mon Apr 21 19:33:32 2025, MaxMem=   536870912 cpu:              10.3 elap:               1.4
 (Enter /home/szhao/Apps/g16/l716.exe)
 Dipole        =-9.45727544D-01-3.62413348D-01 2.29502484D-05
 -------------------------------------------------------------------
 Center     Atomic                   Forces (Hartrees/Bohr)
 Number     Number              X              Y              Z
 -------------------------------------------------------------------
      1        6          -0.000000000   -0.000000000   -0.000000000
      2       16          -0.000000000   -0.000000000   -0.000000000
      3        1          -0.001570926    0.000161394   -0.000000932
      4        1           0.005743654   -0.001651298   -0.000005408
      5        1           0.007032810    0.000129518    0.000518495
      6        1           0.007031692    0.000132961   -0.000519319
 -------------------------------------------------------------------
 Cartesian Forces:  Max     0.007032810 RMS     0.002765746
 Leave Link  716 at Mon Apr 21 19:33:33 2025, MaxMem=   536870912 cpu:               1.0 elap:               0.3
 (Enter /home/szhao/Apps/g16/l103.exe)

 GradGradGradGradGradGradGradGradGradGradGradGradGradGradGradGradGradGrad
 Berny optimization.
 Using GEDIIS/GDIIS optimizer.
 FormGI is forming the generalized inverse of G from B-inverse, IUseBI=4.
 Internal  Forces:  Max     0.019808155 RMS     0.006084353
 Search for a local minimum.
 Step number   2 out of a maximum of   30
 All quantities printed in internal units (Hartrees-Bohrs-Radians)
 RMS Force = .49596D-02 SwitMx=.10000D-02 MixMth= 1
 Mixed Optimization -- RFO/linear search
 Update second derivatives using D2CorX and points    1    2
 DE= -7.27D-03 DEPred=-5.32D-03 R= 1.37D+00
 TightC=F SS=  1.41D+00  RLast= 2.43D-01 DXNew= 5.0454D-01 7.2957D-01
 Trust test= 1.37D+00 RLast= 2.43D-01 DXMaxT set to 5.05D-01
 The second derivative matrix:
                          X1        Y1        Z1        X2        Y2
           X1           0.61628
           Y1          -0.00630   0.50034
           Z1          -0.00006   0.00000   0.50000
           X2          -0.01293   0.00070   0.00001   0.50144
           Y2          -0.01783   0.00097   0.00001   0.00198   0.50274
           Z2           0.00000  -0.00000  -0.00000  -0.00000  -0.00000
           R1           0.00679  -0.00037  -0.00000  -0.00076  -0.00104
           R2           0.00553  -0.00030  -0.00000  -0.00061  -0.00085
           R3           0.00556  -0.00030  -0.00000  -0.00062  -0.00085
           R4           0.00742  -0.00040  -0.00000  -0.00083  -0.00114
           A1          -0.04067   0.00220   0.00002   0.00452   0.00624
           A2          -0.03438   0.00186   0.00002   0.00382   0.00527
           A3          -0.03435   0.00186   0.00002   0.00382   0.00527
           A4           0.04789  -0.00260  -0.00002  -0.00533  -0.00734
           A5           0.04791  -0.00260  -0.00002  -0.00533  -0.00735
           A6           0.04067  -0.00221  -0.00002  -0.00452  -0.00624
           A7          -0.03506   0.00190   0.00002   0.00390   0.00538
           D1           0.00002  -0.00000  -0.00000  -0.00000  -0.00000
           D2           0.00578  -0.00031  -0.00000  -0.00064  -0.00089
           D3          -0.00580   0.00031   0.00000   0.00064   0.00089
                          Z2        R1        R2        R3        R4
           Z2           0.50000
           R1           0.00000   0.34986
           R2           0.00000   0.00018   0.35041
           R3           0.00000   0.00019   0.00013   0.35042
           R4           0.00000   0.00060   0.00051   0.00051   0.26357
           A1          -0.00000  -0.00421  -0.00364  -0.00364  -0.00052
           A2          -0.00000  -0.00411  -0.00359  -0.00359   0.00020
           A3          -0.00000  -0.00411  -0.00359  -0.00359   0.00020
           A4           0.00000   0.00473   0.00408   0.00408   0.00086
           A5           0.00000   0.00474   0.00408   0.00409   0.00086
           A6           0.00000   0.00392   0.00337   0.00337   0.00084
           A7          -0.00000  -0.00344  -0.00296  -0.00297  -0.00065
           D1           0.00000   0.00000   0.00000   0.00000   0.00000
           D2           0.00000   0.00034   0.00028   0.00028   0.00036
           D3          -0.00000  -0.00034  -0.00028  -0.00028  -0.00036
                          A1        A2        A3        A4        A5
           A1           0.15197
           A2          -0.01357   0.14071
           A3          -0.01357  -0.01928   0.14074
           A4           0.00679   0.01293   0.01292   0.15481
           A5           0.00680   0.01294   0.01293  -0.00520   0.15479
           A6           0.00453   0.00955   0.00955  -0.00309  -0.00310
           A7          -0.00468  -0.00913  -0.00912   0.00349   0.00350
           D1          -0.00001  -0.00001  -0.00001   0.00001   0.00001
           D2          -0.00196  -0.00164  -0.00164   0.00232   0.00232
           D3           0.00197   0.00165   0.00165  -0.00233  -0.00233
                          A6        A7        D1        D2        D3
           A6           0.15842
           A7           0.00202   0.15767
           D1           0.00001  -0.00001   0.00230
           D2           0.00197  -0.00170   0.00000   0.00259
           D3          -0.00198   0.00170  -0.00000  -0.00029   0.00259
 ITU=  1  0
 Use linear search instead of GDIIS.
     Eigenvalues ---    0.00230   0.09123   0.10881   0.11085   0.16000
     Eigenvalues ---    0.16000   0.16213   0.26357   0.34984   0.35028
     Eigenvalues ---    0.351771000.000001000.000001000.000001000.00000
     Eigenvalues --- 1000.000001000.000001000.000001000.000001000.00000
 RFO step:  Lambda=-1.91429413D-04 EMin= 2.30000001D-03
 Quartic linear search produced a step of  0.66337.
 Iteration  1 RMS(Cart)=  0.06401444 RMS(Int)=  0.00584701
 Iteration  2 RMS(Cart)=  0.00308074 RMS(Int)=  0.00518048
 Iteration  3 RMS(Cart)=  0.00004944 RMS(Int)=  0.00518041
 Iteration  4 RMS(Cart)=  0.00000134 RMS(Int)=  0.00518041
 Iteration  5 RMS(Cart)=  0.00000004 RMS(Int)=  0.00518041
 ITry= 1 IFail=0 DXMaxC= 1.76D-01 DCOld= 1.00D+10 DXMaxT= 5.05D-01 DXLimC= 3.00D+00 Rises=F
 Variable       Old X    -DE/DX   Delta X   Delta X   Delta X     New X
                                 (Linear)    (Quad)   (Total)
    X1       -2.38147   0.01981   0.00000   0.00000   0.00000  -2.38147
    Y1        0.00000  -0.00108   0.00000   0.00000   0.00000   0.00000
    Z1        0.00000  -0.00001   0.00000   0.00000   0.00000   0.00000
    X2        2.38147  -0.00157   0.00000   0.00000   0.00000   2.38147
    Y2        0.00000  -0.00015   0.00000   0.00000   0.00000   0.00000
    Z2        0.00000   0.00000   0.00000   0.00000   0.00000   0.00000
    R1        2.05397  -0.00272  -0.00226  -0.01068  -0.01293   2.04104
    R2        2.05313  -0.00236  -0.00210  -0.00908  -0.01118   2.04196
    R3        2.05314  -0.00236  -0.00208  -0.00910  -0.01118   2.04196
    R4        2.53956  -0.00023   0.00340  -0.00512  -0.00171   2.53785
    A1        1.76363  -0.00636  -0.05991   0.00795  -0.05795   1.70568
    A2        1.83838  -0.00881  -0.06893  -0.01116  -0.08672   1.75166
    A3        1.83838  -0.00880  -0.06888  -0.01118  -0.08669   1.75169
    A4        1.99351   0.00596   0.06339  -0.00119   0.05126   2.04477
    A5        1.99344   0.00596   0.06344  -0.00123   0.05128   2.04471
    A6        2.00333   0.00655   0.05050   0.01336   0.05090   2.05423
    A7        1.61751  -0.00397  -0.04563   0.01000  -0.03563   1.58188
    D1        3.13892   0.00000   0.00008  -0.00006   0.00001   3.13893
    D2       -1.06489   0.00057   0.01097  -0.00221   0.00704  -1.05785
    D3        1.05962  -0.00057  -0.01091   0.00214  -0.00704   1.05257
         Item               Value     Threshold  Converged?
 Maximum Force            0.008806     0.000450     NO 
 RMS     Force            0.004960     0.000300     NO 
 Maximum Displacement     0.175541     0.001800     NO 
 RMS     Displacement     0.065597     0.001200     NO 
 Predicted change in Energy=-1.786170D-03
 Lowest energy point so far.  Saving SCF results.
 GradGradGradGradGradGradGradGradGradGradGradGradGradGradGradGradGradGrad

 Leave Link  103 at Mon Apr 21 19:33:33 2025, MaxMem=   536870912 cpu:               1.4 elap:               0.3
 (Enter /home/szhao/Apps/g16/l202.exe)
                          Input orientation:                          
 ---------------------------------------------------------------------
 Center     Atomic      Atomic             Coordinates (Angstroms)
 Number     Number       Type             X           Y           Z
 ---------------------------------------------------------------------
      1          6           0       -1.260220    0.000000    0.000000
      2         16           0        1.260220    0.000000    0.000000
      3          1           0        1.275106   -1.342888   -0.000047
      4          1           0       -1.405463    1.070257    0.002891
      5          1           0       -1.454594   -0.521596   -0.926152
      6          1           0       -1.454626   -0.526539    0.923348
 ---------------------------------------------------------------------
                    Distance matrix (angstroms):
                    1          2          3          4          5
     1  C    0.000000
     2  S    2.520439   0.000000
     3  H    2.869011   1.342971   0.000000
     4  H    1.080072   2.872511   3.606761   0.000000
     5  H    1.080556   2.915482   2.997241   1.843782   0.000000
     6  H    1.080560   2.915510   2.995082   1.843751   1.849507
                    6
     6  H    0.000000
 Symmetry turned off by external request.
 Stoichiometry    CH4S
 Framework group  C1[X(CH4S)]
 Deg. of freedom    12
 Full point group                 C1      NOp   1
 Rotational constants (GHZ):          97.3066229           7.2935575           7.1142684
 Leave Link  202 at Mon Apr 21 19:33:34 2025, MaxMem=   536870912 cpu:               0.4 elap:               0.2
 (Enter /home/szhao/Apps/g16/l301.exe)
 Standard basis: 6-311+G(d,p) (5D, 7F)
 Ernie: Thresh=  0.10000D-02 Tol=  0.10000D-05 Strict=F.
    76 basis functions,   118 primitive gaussians,    78 cartesian basis functions
    13 alpha electrons       13 beta electrons
       nuclear repulsion energy        46.4990299198 Hartrees.
 IExCor= 4336 DFT=T Ex+Corr=M062X ExCW=0 ScaHFX=  0.540000
 ScaDFX=  1.000000  1.000000  1.000000  1.000000 ScalE2=  1.000000  1.000000
 IRadAn=      7 IRanWt=     -1 IRanGd=            0 ICorTp=0 IEmpDi=  4
 NAtoms=    6 NActive=    6 NUniq=    6 SFac= 1.00D+00 NAtFMM=   60 NAOKFM=F Big=F
 Integral buffers will be    131072 words long.
 Raffenetti 2 integral format.
 Two-electron integral symmetry is turned off.
 Leave Link  301 at Mon Apr 21 19:33:34 2025, MaxMem=   536870912 cpu:               0.6 elap:               0.2
 (Enter /home/szhao/Apps/g16/l302.exe)
 NPDir=0 NMtPBC=     1 NCelOv=     1 NCel=       1 NClECP=     1 NCelD=      1
         NCelK=      1 NCelE2=     1 NClLst=     1 CellRange=     0.0.
 One-electron integrals computed using PRISM.
 NBasis=    76 RedAO= T EigKep=  2.23D-03  NBF=    76
 NBsUse=    76 1.00D-06 EigRej= -1.00D+00 NBFU=    76
 Precomputing XC quadrature grid using
 IXCGrd= 4 IRadAn=           7 IRanWt=          -1 IRanGd=           0 AccXCQ= 0.00D+00.
 Generated NRdTot=       0 NPtTot=           0 NUsed=           0 NTot=          32
 NSgBfM=    78    78    78    78    78 MxSgAt=     6 MxSgA2=     6.
 Leave Link  302 at Mon Apr 21 19:33:35 2025, MaxMem=   536870912 cpu:               1.8 elap:               0.3
 (Enter /home/szhao/Apps/g16/l303.exe)
 DipDrv:  MaxL=1.
 Leave Link  303 at Mon Apr 21 19:33:35 2025, MaxMem=   536870912 cpu:               0.6 elap:               0.3
 (Enter /home/szhao/Apps/g16/l401.exe)
 Initial guess from the checkpoint file:  "opt.chk"
 B after Tr=     0.014607   -0.001789   -0.000011
         Rot=    1.000000    0.000003    0.000003    0.000007 Ang=   0.00 deg.
 Guess basis will be translated and rotated to current coordinates.
 JPrj=2 DoOrth=T DoCkMO=T.
 Initial guess <Sx>= 0.0000 <Sy>= 0.0000 <Sz>= 0.0000 <S**2>=-0.0000 S=-0.0000
 Generating alternative initial guess.
 ExpMin= 4.05D-02 ExpMax= 9.34D+04 ExpMxC= 3.17D+03 IAcc=3 IRadAn=         5 AccDes= 0.00D+00
 Harris functional with IExCor= 1009 and IRadAn=       5 diagonalized for initial guess.
 HarFok:  IExCor= 1009 AccDes= 0.00D+00 IRadAn=         5 IDoV= 1 UseB2=F ITyADJ=14
 ICtDFT=  3500011 ScaDFX=  1.000000  1.000000  1.000000  1.000000
 FoFCou: FMM=F IPFlag=           0 FMFlag=      100000 FMFlg1=           0
         NFxFlg=           0 DoJE=T BraDBF=F KetDBF=T FulRan=T
         wScrn=  0.000000 ICntrl=       500 IOpCl=  0 I1Cent=   200000004 NGrid=           0
         NMat0=    1 NMatS0=      1 NMatT0=    0 NMatD0=    1 NMtDS0=    0 NMtDT0=    0
 Symmetry not used in FoFCou.
 Harris En= -438.426639118038    
 Leave Link  401 at Mon Apr 21 19:33:36 2025, MaxMem=   536870912 cpu:               2.7 elap:               0.5
 (Enter /home/szhao/Apps/g16/l502.exe)
 Keep R1 and R2 ints in memory in canonical form, NReq=15806772.
 FoFCou: FMM=F IPFlag=           0 FMFlag=           0 FMFlg1=           0
         NFxFlg=           0 DoJE=F BraDBF=F KetDBF=F FulRan=T
         wScrn=  0.000000 ICntrl=       600 IOpCl=  0 I1Cent=           0 NGrid=           0
         NMat0=    1 NMatS0=   2926 NMatT0=    0 NMatD0=    1 NMtDS0=    0 NMtDT0=    0
 Symmetry not used in FoFCou.
 Two-electron integral symmetry not used.
 UHF open shell SCF:
 Using DIIS extrapolation, IDIIS=  1040.
 NGot=   536870912 LenX=   528292970 LenY=   528286445
 Requested convergence on RMS density matrix=1.00D-08 within 128 cycles.
 Requested convergence on MAX density matrix=1.00D-06.
 Requested convergence on             energy=1.00D-06.
 No special actions if energy rises.

 Cycle   1  Pass 1  IDiag  1:
 E= -438.607673506293    
 DIIS: error= 3.84D-03 at cycle   1 NSaved=   1.
 NSaved= 1 IEnMin= 1 EnMin= -438.607673506293     IErMin= 1 ErrMin= 3.84D-03
 ErrMax= 3.84D-03  0.00D+00 EMaxC= 1.00D-01 BMatC= 3.21D-03 BMatP= 3.21D-03
 IDIUse=3 WtCom= 9.62D-01 WtEn= 3.84D-02
 Coeff-Com:  0.100D+01
 Coeff-En:   0.100D+01
 Coeff:      0.100D+01
 Gap=     0.468 Goal=   None    Shift=    0.000
 Gap=     0.468 Goal=   None    Shift=    0.000
 GapD=    0.468 DampG=2.000 DampE=1.000 DampFc=2.0000 IDamp=-1.
 RMSDP=3.74D-04 MaxDP=6.03D-03              OVMax= 1.41D-02

 Cycle   2  Pass 1  IDiag  1:
 E= -438.608784802148     Delta-E=       -0.001111295855 Rises=F Damp=F
 DIIS: error= 6.55D-04 at cycle   2 NSaved=   2.
 NSaved= 2 IEnMin= 2 EnMin= -438.608784802148     IErMin= 2 ErrMin= 6.55D-04
 ErrMax= 6.55D-04  0.00D+00 EMaxC= 1.00D-01 BMatC= 1.17D-04 BMatP= 3.21D-03
 IDIUse=3 WtCom= 9.93D-01 WtEn= 6.55D-03
 Coeff-Com: -0.271D-01 0.103D+01
 Coeff-En:   0.000D+00 0.100D+01
 Coeff:     -0.269D-01 0.103D+01
 Gap=     0.230 Goal=   None    Shift=    0.000
 Gap=     0.230 Goal=   None    Shift=    0.000
 RMSDP=1.44D-04 MaxDP=2.52D-03 DE=-1.11D-03 OVMax= 7.51D-03

 Cycle   3  Pass 1  IDiag  1:
 E= -438.608813334333     Delta-E=       -0.000028532185 Rises=F Damp=F
 DIIS: error= 5.53D-04 at cycle   3 NSaved=   3.
 NSaved= 3 IEnMin= 3 EnMin= -438.608813334333     IErMin= 3 ErrMin= 5.53D-04
 ErrMax= 5.53D-04  0.00D+00 EMaxC= 1.00D-01 BMatC= 9.52D-05 BMatP= 1.17D-04
 IDIUse=3 WtCom= 9.94D-01 WtEn= 5.53D-03
 Coeff-Com: -0.486D-01 0.496D+00 0.552D+00
 Coeff-En:   0.000D+00 0.985D-01 0.902D+00
 Coeff:     -0.483D-01 0.494D+00 0.554D+00
 Gap=     0.228 Goal=   None    Shift=    0.000
 Gap=     0.228 Goal=   None    Shift=    0.000
 RMSDP=6.45D-05 MaxDP=1.65D-03 DE=-2.85D-05 OVMax= 4.02D-03

 Cycle   4  Pass 1  IDiag  1:
 E= -438.608837467102     Delta-E=       -0.000024132769 Rises=F Damp=F
 DIIS: error= 1.87D-04 at cycle   4 NSaved=   4.
 NSaved= 4 IEnMin= 4 EnMin= -438.608837467102     IErMin= 4 ErrMin= 1.87D-04
 ErrMax= 1.87D-04  0.00D+00 EMaxC= 1.00D-01 BMatC= 1.24D-05 BMatP= 9.52D-05
 IDIUse=3 WtCom= 9.98D-01 WtEn= 1.87D-03
 Coeff-Com: -0.170D-01 0.684D-01 0.278D+00 0.670D+00
 Coeff-En:   0.000D+00 0.000D+00 0.923D-01 0.908D+00
 Coeff:     -0.169D-01 0.683D-01 0.278D+00 0.671D+00
 Gap=     0.229 Goal=   None    Shift=    0.000
 Gap=     0.229 Goal=   None    Shift=    0.000
 RMSDP=2.39D-05 MaxDP=6.49D-04 DE=-2.41D-05 OVMax= 1.67D-03

 Cycle   5  Pass 1  IDiag  1:
 E= -438.608841850138     Delta-E=       -0.000004383036 Rises=F Damp=F
 DIIS: error= 3.69D-05 at cycle   5 NSaved=   5.
 NSaved= 5 IEnMin= 5 EnMin= -438.608841850138     IErMin= 5 ErrMin= 3.69D-05
 ErrMax= 3.69D-05  0.00D+00 EMaxC= 1.00D-01 BMatC= 4.34D-07 BMatP= 1.24D-05
 IDIUse=1 WtCom= 1.00D+00 WtEn= 0.00D+00
 Coeff-Com:  0.144D-02-0.311D-01-0.205D-01 0.129D+00 0.922D+00
 Coeff:      0.144D-02-0.311D-01-0.205D-01 0.129D+00 0.922D+00
 Gap=     0.229 Goal=   None    Shift=    0.000
 Gap=     0.229 Goal=   None    Shift=    0.000
 RMSDP=7.38D-06 MaxDP=1.22D-04 DE=-4.38D-06 OVMax= 2.21D-04

 Cycle   6  Pass 1  IDiag  1:
 E= -438.608842034346     Delta-E=       -0.000000184208 Rises=F Damp=F
 DIIS: error= 9.96D-06 at cycle   6 NSaved=   6.
 NSaved= 6 IEnMin= 6 EnMin= -438.608842034346     IErMin= 6 ErrMin= 9.96D-06
 ErrMax= 9.96D-06  0.00D+00 EMaxC= 1.00D-01 BMatC= 3.48D-08 BMatP= 4.34D-07
 IDIUse=1 WtCom= 1.00D+00 WtEn= 0.00D+00
 Coeff-Com:  0.174D-02-0.165D-01-0.302D-01 0.920D-03 0.304D+00 0.740D+00
 Coeff:      0.174D-02-0.165D-01-0.302D-01 0.920D-03 0.304D+00 0.740D+00
 Gap=     0.229 Goal=   None    Shift=    0.000
 Gap=     0.229 Goal=   None    Shift=    0.000
 RMSDP=1.49D-06 MaxDP=2.46D-05 DE=-1.84D-07 OVMax= 4.71D-05

 Cycle   7  Pass 1  IDiag  1:
 E= -438.608842045651     Delta-E=       -0.000000011305 Rises=F Damp=F
 DIIS: error= 1.15D-06 at cycle   7 NSaved=   7.
 NSaved= 7 IEnMin= 7 EnMin= -438.608842045651     IErMin= 7 ErrMin= 1.15D-06
 ErrMax= 1.15D-06  0.00D+00 EMaxC= 1.00D-01 BMatC= 6.02D-10 BMatP= 3.48D-08
 IDIUse=1 WtCom= 1.00D+00 WtEn= 0.00D+00
 Coeff-Com: -0.913D-04 0.203D-02 0.690D-03-0.798D-02-0.501D-01-0.436D-01
 Coeff-Com:  0.110D+01
 Coeff:     -0.913D-04 0.203D-02 0.690D-03-0.798D-02-0.501D-01-0.436D-01
 Coeff:      0.110D+01
 Gap=     0.229 Goal=   None    Shift=    0.000
 Gap=     0.229 Goal=   None    Shift=    0.000
 RMSDP=4.55D-07 MaxDP=5.52D-06 DE=-1.13D-08 OVMax= 2.02D-05

 Cycle   8  Pass 1  IDiag  1:
 E= -438.608842046217     Delta-E=       -0.000000000566 Rises=F Damp=F
 DIIS: error= 4.70D-07 at cycle   8 NSaved=   8.
 NSaved= 8 IEnMin= 8 EnMin= -438.608842046217     IErMin= 8 ErrMin= 4.70D-07
 ErrMax= 4.70D-07  0.00D+00 EMaxC= 1.00D-01 BMatC= 5.44D-11 BMatP= 6.02D-10
 IDIUse=1 WtCom= 1.00D+00 WtEn= 0.00D+00
 Coeff-Com: -0.118D-03 0.138D-02 0.185D-02-0.154D-02-0.277D-01-0.493D-01
 Coeff-Com:  0.226D+00 0.849D+00
 Coeff:     -0.118D-03 0.138D-02 0.185D-02-0.154D-02-0.277D-01-0.493D-01
 Coeff:      0.226D+00 0.849D+00
 Gap=     0.229 Goal=   None    Shift=    0.000
 Gap=     0.229 Goal=   None    Shift=    0.000
 RMSDP=8.56D-08 MaxDP=7.92D-07 DE=-5.66D-10 OVMax= 3.69D-06

 Cycle   9  Pass 1  IDiag  1:
 E= -438.608842046243     Delta-E=       -0.000000000026 Rises=F Damp=F
 DIIS: error= 6.18D-08 at cycle   9 NSaved=   9.
 NSaved= 9 IEnMin= 9 EnMin= -438.608842046243     IErMin= 9 ErrMin= 6.18D-08
 ErrMax= 6.18D-08  0.00D+00 EMaxC= 1.00D-01 BMatC= 1.33D-12 BMatP= 5.44D-11
 IDIUse=1 WtCom= 1.00D+00 WtEn= 0.00D+00
 Coeff-Com: -0.153D-05-0.258D-04 0.617D-04 0.262D-03 0.858D-03 0.996D-03
 Coeff-Com: -0.415D-01 0.318D-01 0.101D+01
 Coeff:     -0.153D-05-0.258D-04 0.617D-04 0.262D-03 0.858D-03 0.996D-03
 Coeff:     -0.415D-01 0.318D-01 0.101D+01
 Gap=     0.229 Goal=   None    Shift=    0.000
 Gap=     0.229 Goal=   None    Shift=    0.000
 RMSDP=1.93D-08 MaxDP=2.88D-07 DE=-2.56D-11 OVMax= 8.19D-07

 Cycle  10  Pass 1  IDiag  1:
 E= -438.608842046244     Delta-E=       -0.000000000001 Rises=F Damp=F
 DIIS: error= 2.00D-08 at cycle  10 NSaved=  10.
 NSaved=10 IEnMin=10 EnMin= -438.608842046244     IErMin=10 ErrMin= 2.00D-08
 ErrMax= 2.00D-08  0.00D+00 EMaxC= 1.00D-01 BMatC= 1.25D-13 BMatP= 1.33D-12
 IDIUse=1 WtCom= 1.00D+00 WtEn= 0.00D+00
 Coeff-Com:  0.415D-05-0.504D-04-0.510D-04 0.285D-04 0.111D-02 0.127D-02
 Coeff-Com: -0.773D-02-0.322D-01 0.147D-01 0.102D+01
 Coeff:      0.415D-05-0.504D-04-0.510D-04 0.285D-04 0.111D-02 0.127D-02
 Coeff:     -0.773D-02-0.322D-01 0.147D-01 0.102D+01
 Gap=     0.229 Goal=   None    Shift=    0.000
 Gap=     0.229 Goal=   None    Shift=    0.000
 RMSDP=5.46D-09 MaxDP=9.11D-08 DE=-1.08D-12 OVMax= 1.49D-07

 SCF Done:  E(UM062X) =  -438.608842046     A.U. after   10 cycles
            NFock= 10  Conv=0.55D-08     -V/T= 2.0021
 <Sx>= 0.0000 <Sy>= 0.0000 <Sz>= 0.0000 <S**2>=-0.0000 S=-0.0000
 <L.S>=  0.00000000000    
 KE= 4.376771875880D+02 PE=-1.133476773005D+03 EE= 2.106917134510D+02
 Annihilation of the first spin contaminant:
 S**2 before annihilation    -0.0000,   after     0.0000
 Leave Link  502 at Mon Apr 21 19:33:45 2025, MaxMem=   536870912 cpu:              64.2 elap:               8.5
 (Enter /home/szhao/Apps/g16/l701.exe)
 ... and contract with generalized density number  0.
 Compute integral first derivatives.
 Leave Link  701 at Mon Apr 21 19:33:45 2025, MaxMem=   536870912 cpu:               1.3 elap:               0.3
 (Enter /home/szhao/Apps/g16/l702.exe)
 L702 exits ... SP integral derivatives will be done elsewhere.
 Leave Link  702 at Mon Apr 21 19:33:46 2025, MaxMem=   536870912 cpu:               0.5 elap:               0.1
 (Enter /home/szhao/Apps/g16/l703.exe)
 Integral derivatives from FoFJK, PRISM(SPDF).
 Compute integral first derivatives, UseDBF=F ICtDFT=           0.
 Calling FoFJK, ICntrl=      2127 FMM=F ISym2X=0 I1Cent= 0 IOpClX= 1 NMat=1 NMatS=1 NMatT=0.
 FoFJK:  IHMeth= 1 ICntrl=    2127 DoSepK=F KAlg= 0 I1Cent=           0 FoldK=F
 IRaf=         0 NMat=       1 IRICut=       1 DoRegI=T DoRafI=F ISym2E= 0 IDoP0=0 IntGTp=1.
 FoFCou: FMM=F IPFlag=           0 FMFlag=      100000 FMFlg1=         800
         NFxFlg=           0 DoJE=F BraDBF=F KetDBF=F FulRan=T
         wScrn=  0.000000 ICntrl=      2127 IOpCl=  1 I1Cent=           0 NGrid=           0
         NMat0=    1 NMatS0=      1 NMatT0=    0 NMatD0=    1 NMtDS0=    0 NMtDT0=    0
 Symmetry not used in FoFCou.
 Leave Link  703 at Mon Apr 21 19:33:47 2025, MaxMem=   536870912 cpu:              11.7 elap:               1.5
 (Enter /home/szhao/Apps/g16/l716.exe)
 Dipole        =-9.96633800D-01-3.63804741D-01-6.81912011D-06
 -------------------------------------------------------------------
 Center     Atomic                   Forces (Hartrees/Bohr)
 Number     Number              X              Y              Z
 -------------------------------------------------------------------
      1        6          -0.000000000   -0.000000000   -0.000000000
      2       16          -0.000000000   -0.000000000   -0.000000000
      3        1          -0.000134689   -0.000190455   -0.000001020
      4        1          -0.000723081    0.000688567    0.000001714
      5        1           0.000009114   -0.000031204   -0.000467856
      6        1           0.000008982   -0.000033359    0.000468373
 -------------------------------------------------------------------
 Cartesian Forces:  Max     0.000723081 RMS     0.000287895
 Leave Link  716 at Mon Apr 21 19:33:48 2025, MaxMem=   536870912 cpu:               0.5 elap:               0.1
 (Enter /home/szhao/Apps/g16/l103.exe)

 GradGradGradGradGradGradGradGradGradGradGradGradGradGradGradGradGradGrad
 Berny optimization.
 Using GEDIIS/GDIIS optimizer.
 FormGI is forming the generalized inverse of G from B-inverse, IUseBI=4.
 Internal  Forces:  Max     0.001124802 RMS     0.000406926
 Search for a local minimum.
 Step number   3 out of a maximum of   30
 All quantities printed in internal units (Hartrees-Bohrs-Radians)
 RMS Force = .43255D-03 SwitMx=.10000D-02 MixMth= 2
 Mixed Optimization -- En-DIIS/RFO-DIIS
 Update second derivatives using D2CorX and points    1    2    3
 DE= -1.56D-03 DEPred=-1.79D-03 R= 8.73D-01
 TightC=F SS=  1.41D+00  RLast= 1.67D-01 DXNew= 8.4853D-01 5.0226D-01
 Trust test= 8.73D-01 RLast= 1.67D-01 DXMaxT set to 5.05D-01
 The second derivative matrix:
                          X1        Y1        Z1        X2        Y2
           X1           0.64640
           Y1          -0.01053   0.50076
           Z1          -0.00007   0.00000   0.50000
           X2          -0.01062   0.00076   0.00001   0.50078
           Y2          -0.00246   0.00016   0.00000   0.00021   0.50017
           Z2           0.00001  -0.00000  -0.00000  -0.00000  -0.00000
           R1           0.00152   0.00023  -0.00000  -0.00084  -0.00261
[...]
           A1           0.00005  -0.00240  -0.00284  -0.00268   0.00024
           A2          -0.00003  -0.00174  -0.00221  -0.00227   0.00061
           A3          -0.00003  -0.00202  -0.00236  -0.00242   0.00051
           A4          -0.00000   0.01390   0.00845   0.00849   0.00382
           A5          -0.00000   0.01463   0.00884   0.00888   0.00406
           A6           0.00003  -0.01277  -0.00468  -0.00477  -0.00435
           A7          -0.00003  -0.00722  -0.00334  -0.00353  -0.00211
           D1          -0.00000   0.00038   0.00021   0.00021   0.00013
           D2           0.00001  -0.00717  -0.00410  -0.00410  -0.00213
           D3          -0.00001   0.00799   0.00455   0.00455   0.00240
                          A1        A2        A3        A4        A5
           A1           0.10130
           A2           0.00874   0.13822
           A3           0.00901  -0.02187   0.13804
           A4           0.00515   0.00771   0.00776   0.15588
           A5           0.00453   0.00793   0.00798  -0.00424   0.15563
           A6           0.01114   0.00436   0.00423   0.00508   0.00542
           A7           0.03305  -0.01818  -0.01847   0.00403   0.00473
           D1          -0.00040   0.00014   0.00015  -0.00005  -0.00005
           D2           0.00194  -0.00239  -0.00238   0.00237   0.00235
           D3          -0.00271   0.00266   0.00266  -0.00249  -0.00248
                          A6        A7        D1        D2        D3
           A6           0.14897
           A7          -0.01403   0.13199
           D1           0.00017   0.00040   0.00230
           D2           0.00083  -0.00629  -0.00001   0.00370
           D3          -0.00047   0.00712   0.00001  -0.00143   0.00374
 ITU=  0  1  1  1  1  0
     Eigenvalues ---    0.00227   0.06564   0.11089   0.11391   0.11542
     Eigenvalues ---    0.15658   0.16000   0.26479   0.34915   0.35028
     Eigenvalues ---    0.400861000.000001000.000001000.000001000.00000
     Eigenvalues --- 1000.000001000.000001000.000001000.000001000.00000
 En-DIIS/RFO-DIIS/Sim-DIIS IScMMF=       -3 using points:     6    5    4    3
 RFO step:  Lambda=-6.18305617D-09.
 NNeg= 0 NGDIIS= 4 SimSw=  2.50D-01 Rises=F DC= -1.13D-07 SmlDif=  1.00D-05
 NRisDI= 0 DoIntr=F SqrtH=F CThrHd= 10.0 CDAdj=  3.0
 RMS Error=  0.1749209373D-03 NUsed= 4 OKEnD=F EnDIS=F
 InvSVX:  RCond= 1.26D-08 Info=           0 Equed=N FErr=  1.60D-13 BErr=  6.72D-17
 DIIS inversion failure, remove point   4.
 InvSVX:  RCond= 8.82D-08 Info=           0 Equed=N FErr=  9.20D-15 BErr=  5.76D-17
 DIIS inversion failure, remove point   3.
 InvSVX:  RCond= 6.51D-07 Info=           0 Equed=N FErr=  2.09D-15 BErr=  4.68D-17
 RFO-DIIS uses    2 points instead of    4
 DidBck=F Rises=F RFO-DIIS coefs:    1.34087   -0.34087    0.00000    0.00000
 Iteration  1 RMS(Cart)=  0.00022523 RMS(Int)=  0.00000004
 Iteration  2 RMS(Cart)=  0.00000004 RMS(Int)=  0.00000002
 ITry= 1 IFail=0 DXMaxC= 7.91D-04 DCOld= 1.00D+10 DXMaxT= 5.05D-01 DXLimC= 3.00D+00 Rises=F
 Variable       Old X    -DE/DX   Delta X   Delta X   Delta X     New X
                                 (Linear)    (Quad)   (Total)
    X1       -2.38147  -0.00000   0.00000   0.00000   0.00000  -2.38147
    Y1        0.00000  -0.00004   0.00000   0.00000   0.00000   0.00000
    Z1        0.00000  -0.00000   0.00000   0.00000   0.00000   0.00000
    X2        2.38147  -0.00001  -0.00000   0.00000   0.00000   2.38147
    Y2        0.00000  -0.00000   0.00000   0.00000   0.00000   0.00000
    Z2        0.00000  -0.00000   0.00000   0.00000   0.00000   0.00000
    R1        2.04337  -0.00001  -0.00010   0.00005  -0.00004   2.04332
    R2        2.04306  -0.00000  -0.00005   0.00005  -0.00001   2.04305
    R3        2.04306  -0.00000  -0.00005   0.00005  -0.00001   2.04305
    R4        2.53854  -0.00000  -0.00004   0.00003  -0.00001   2.53853
    A1        1.72013  -0.00000   0.00027  -0.00020   0.00007   1.72020
    A2        1.74769   0.00000  -0.00013   0.00011  -0.00002   1.74767
    A3        1.74771   0.00000  -0.00013   0.00011  -0.00002   1.74769
    A4        2.04215   0.00001   0.00004   0.00003   0.00008   2.04222
    A5        2.04210   0.00001   0.00005   0.00004   0.00009   2.04219
    A6        2.05594  -0.00002  -0.00009  -0.00009  -0.00018   2.05576
    A7        1.57535  -0.00001  -0.00029   0.00013  -0.00015   1.57519
    D1        3.14029   0.00000   0.00015   0.00026   0.00042   3.14071
    D2       -1.05613   0.00001   0.00024   0.00027   0.00051  -1.05562
    D3        1.05357  -0.00001   0.00006   0.00025   0.00031   1.05388
         Item               Value     Threshold  Converged?
 Maximum Force            0.000018     0.000450     YES
 RMS     Force            0.000008     0.000300     YES
 Maximum Displacement     0.000791     0.001800     YES
 RMS     Displacement     0.000225     0.001200     YES
 Predicted change in Energy=-5.126193D-09
 Optimization completed.
    -- Stationary point found.
                           ----------------------------
                           !   Optimized Parameters   !
                           ! (Angstroms and Degrees)  !
 --------------------------                            --------------------------
 ! Name  Definition              Value          Derivative Info.                !
 --------------------------------------------------------------------------------
 ! X1    R(1,-1)                -1.2602         -DE/DX =    0.0                 !
 ! Y1    R(1,-2)                 0.0            -DE/DX =    0.0                 !
 ! Z1    R(1,-3)                 0.0            -DE/DX =    0.0                 !
 ! X2    R(2,-1)                 1.2602         -DE/DX =    0.0                 !
 ! Y2    R(2,-2)                 0.0            -DE/DX =    0.0                 !
 ! Z2    R(2,-3)                 0.0            -DE/DX =    0.0                 !
 ! R1    R(1,4)                  1.0813         -DE/DX =    0.0                 !
 ! R2    R(1,5)                  1.0811         -DE/DX =    0.0                 !
 ! R3    R(1,6)                  1.0811         -DE/DX =    0.0                 !
 ! R4    R(2,3)                  1.3433         -DE/DX =    0.0                 !
 ! A1    A(2,1,4)               98.5563         -DE/DX =    0.0                 !
 ! A2    A(2,1,5)              100.1352         -DE/DX =    0.0                 !
 ! A3    A(2,1,6)              100.1364         -DE/DX =    0.0                 !
 ! A4    A(4,1,5)              117.0063         -DE/DX =    0.0                 !
 ! A5    A(4,1,6)              117.0038         -DE/DX =    0.0                 !
 ! A6    A(5,1,6)              117.7966         -DE/DX =    0.0                 !
 ! A7    A(1,2,3)               90.2606         -DE/DX =    0.0                 !
 ! D1    D(4,1,2,3)            179.9256         -DE/DX =    0.0                 !
 ! D2    D(5,1,2,3)            -60.5118         -DE/DX =    0.0                 !
 ! D3    D(6,1,2,3)             60.3653         -DE/DX =    0.0                 !
 --------------------------------------------------------------------------------
 Lowest energy point so far.  Saving SCF results.
 Largest change from initial coordinates is atom    5       0.212 Angstoms.
 GradGradGradGradGradGradGradGradGradGradGradGradGradGradGradGradGradGrad

 Leave Link  103 at Mon Apr 21 19:34:26 2025, MaxMem=   536870912 cpu:               0.7 elap:               0.1
 (Enter /home/szhao/Apps/g16/l202.exe)
                          Input orientation:                          
 ---------------------------------------------------------------------
 Center     Atomic      Atomic             Coordinates (Angstroms)
 Number     Number       Type             X           Y           Z
 ---------------------------------------------------------------------
      1          6           0       -1.260220    0.000000    0.000000
      2         16           0        1.260220    0.000000    0.000000
      3          1           0        1.266330   -1.343325   -0.001427
      4          1           0       -1.421098    1.069266    0.002525
      5          1           0       -1.450470   -0.522895   -0.926955
      6          1           0       -1.450493   -0.527229    0.924496
 ---------------------------------------------------------------------
                    Distance matrix (angstroms):
                    1          2          3          4          5
     1  C    0.000000
     2  S    2.520439   0.000000
     3  H    2.861464   1.343340   0.000000
     4  H    1.081304   2.886658   3.611493   0.000000
     5  H    1.081139   2.912130   2.985081   1.843848   0.000000
     6  H    1.081142   2.912151   2.984036   1.843825   1.851457
                    6
     6  H    0.000000
 Symmetry turned off by external request.
 Stoichiometry    CH4S
 Framework group  C1[X(CH4S)]
 Deg. of freedom    12
 Full point group                 C1      NOp   1
 Rotational constants (GHZ):          97.2234344           7.2918047           7.1128836
 Leave Link  202 at Mon Apr 21 19:34:27 2025, MaxMem=   536870912 cpu:               0.2 elap:               0.1
 (Enter /home/szhao/Apps/g16/l601.exe)
 Copying SCF densities to generalized density rwf, IOpCl= 1 IROHF=0.

 **********************************************************************

            Population analysis using the SCF density.

 **********************************************************************

 Alpha  occ. eigenvalues --  -89.89309 -10.61173  -8.25548  -6.17628  -6.17508
 Alpha  occ. eigenvalues --   -6.16993  -0.81515  -0.76229  -0.51867  -0.51838
 Alpha  occ. eigenvalues --   -0.43599  -0.33584  -0.29441
 Alpha virt. eigenvalues --   -0.06561   0.02016   0.04408   0.05281   0.05649
 Alpha virt. eigenvalues --    0.07514   0.07777   0.08573   0.11394   0.13568
 Alpha virt. eigenvalues --    0.17425   0.18199   0.23680   0.32806   0.35832
 Alpha virt. eigenvalues --    0.36372   0.41423   0.42852   0.43848   0.48427
 Alpha virt. eigenvalues --    0.62253   0.62961   0.63660   0.70040   0.78381
 Alpha virt. eigenvalues --    0.78857   0.79305   0.86964   1.02307   1.05389
 Alpha virt. eigenvalues --    1.08122   1.10046   1.43137   1.43377   1.47833
 Alpha virt. eigenvalues --    1.48670   1.51362   1.52982   1.69182   1.71149
 Alpha virt. eigenvalues --    1.76455   1.81915   1.82495   1.89678   2.08137
 Alpha virt. eigenvalues --    2.08780   2.14413   2.45918   2.47167   2.47210
 Alpha virt. eigenvalues --    2.60693   2.61782   2.62420   2.76513   2.92860
 Alpha virt. eigenvalues --    3.72543   3.72612   7.93431  17.49116  17.53819
 Alpha virt. eigenvalues --   17.54148  23.93915 189.20865
  Beta  occ. eigenvalues --  -89.89309 -10.61173  -8.25548  -6.17628  -6.17508
  Beta  occ. eigenvalues --   -6.16993  -0.81515  -0.76229  -0.51867  -0.51838
  Beta  occ. eigenvalues --   -0.43599  -0.33584  -0.29441
  Beta virt. eigenvalues --   -0.06561   0.02016   0.04408   0.05281   0.05649
  Beta virt. eigenvalues --    0.07514   0.07777   0.08573   0.11394   0.13568
  Beta virt. eigenvalues --    0.17425   0.18199   0.23680   0.32806   0.35832
  Beta virt. eigenvalues --    0.36372   0.41423   0.42852   0.43848   0.48427
  Beta virt. eigenvalues --    0.62253   0.62961   0.63660   0.70040   0.78381
  Beta virt. eigenvalues --    0.78857   0.79305   0.86964   1.02307   1.05389
  Beta virt. eigenvalues --    1.08122   1.10046   1.43137   1.43377   1.47833
  Beta virt. eigenvalues --    1.48670   1.51362   1.52982   1.69182   1.71149
  Beta virt. eigenvalues --    1.76455   1.81915   1.82495   1.89678   2.08137
  Beta virt. eigenvalues --    2.08780   2.14413   2.45918   2.47167   2.47210
  Beta virt. eigenvalues --    2.60693   2.61782   2.62420   2.76513   2.92860
  Beta virt. eigenvalues --    3.72543   3.72612   7.93431  17.49116  17.53819
  Beta virt. eigenvalues --   17.54148  23.93915 189.20865
          Condensed to atoms (all electrons):
               1          2          3          4          5          6
     1  C    5.155800   0.200169   0.000797   0.388484   0.379092   0.379108
     2  S    0.200169  15.771383   0.250032  -0.016956  -0.019637  -0.019620
     3  H    0.000797   0.250032   0.688171   0.001181  -0.001145  -0.001147
     4  H    0.388484  -0.016956   0.001181   0.467278  -0.020901  -0.020900
     5  H    0.379092  -0.019637  -0.001145  -0.020901   0.482914  -0.022791
     6  H    0.379108  -0.019620  -0.001147  -0.020900  -0.022791   0.482922
          Atomic-Atomic Spin Densities.
               1          2          3          4          5          6
     1  C   -0.000000  -0.000000  -0.000000   0.000000   0.000000   0.000000
     2  S   -0.000000   0.000000   0.000000   0.000000  -0.000000  -0.000000
     3  H   -0.000000   0.000000  -0.000000   0.000000   0.000000   0.000000
     4  H    0.000000   0.000000   0.000000   0.000000  -0.000000   0.000000
     5  H    0.000000  -0.000000   0.000000  -0.000000   0.000000  -0.000000
     6  H    0.000000  -0.000000   0.000000   0.000000  -0.000000  -0.000000
 Mulliken charges and spin densities:
               1          2
     1  C   -0.503450  -0.000000
     2  S   -0.165370   0.000000
     3  H    0.062110  -0.000000
     4  H    0.201814   0.000000
     5  H    0.202468   0.000000
     6  H    0.202427   0.000000
 Sum of Mulliken charges =  -0.00000  -0.00000
 Mulliken charges and spin densities with hydrogens summed into heavy atoms:
               1          2
     1  C    0.103260  -0.000000
     2  S   -0.103260   0.000000
 Electronic spatial extent (au):  <R**2>=            218.6899
 Charge=             -0.0000 electrons
 Dipole moment (field-independent basis, Debye):
    X=             -2.5355    Y=             -0.9273    Z=             -0.0010  Tot=              2.6997
 Quadrupole moment (field-independent basis, Debye-Ang):
   XX=            -21.0097   YY=            -19.3413   ZZ=            -23.3199
   XY=             -1.5096   XZ=             -0.0016   YZ=              0.0042
 Traceless Quadrupole moment (field-independent basis, Debye-Ang):
   XX=              0.2139   YY=              1.8823   ZZ=             -2.0963
   XY=             -1.5096   XZ=             -0.0016   YZ=              0.0042
 Octapole moment (field-independent basis, Debye-Ang**2):
  XXX=            -26.3999  YYY=              2.3450  ZZZ=             -0.0052  XYY=             -7.4378
  XXY=             -1.4418  XXZ=             -0.0015  XZZ=            -12.6925  YZZ=             -0.2555
  YYZ=              0.0072  XYZ=              0.0056
 Hexadecapole moment (field-independent basis, Debye-Ang**3):
 XXXX=           -239.9300 YYYY=            -36.2495 ZZZZ=            -40.0176 XXXY=             -0.2846
 XXXZ=             -0.0001 YYYX=             -0.4427 YYYZ=              0.0040 ZZZX=              0.0142
 ZZZY=              0.0001 XXYY=            -42.4584 XXZZ=            -48.9034 YYZZ=            -13.2827
 XXYZ=              0.0068 YYXZ=             -0.0118 ZZXY=              2.4769
 N-N= 4.648680599792D+01 E-N=-1.133448706915D+03  KE= 4.376731260881D+02
                          Isotropic Fermi Contact Couplings
        Atom                 a.u.       MegaHertz       Gauss      10(-4) cm-1
     1  C(13)             -0.00000      -0.00000      -0.00000      -0.00000
     2  S(33)              0.00000       0.00000       0.00000       0.00000
     3  H(1)              -0.00000      -0.00000      -0.00000      -0.00000
     4  H(1)              -0.00000      -0.00000      -0.00000      -0.00000
     5  H(1)               0.00000       0.00000       0.00000       0.00000
     6  H(1)              -0.00000      -0.00000      -0.00000      -0.00000
 --------------------------------------------------------
       Center         ----  Spin Dipole Couplings  ----
                      3XX-RR        3YY-RR        3ZZ-RR
 --------------------------------------------------------
     1   Atom        0.000000      0.000000      0.000000
     2   Atom        0.000000      0.000000      0.000000
     3   Atom        0.000000      0.000000      0.000000
     4   Atom        0.000000      0.000000      0.000000
     5   Atom        0.000000      0.000000      0.000000
     6   Atom        0.000000      0.000000      0.000000
 --------------------------------------------------------
                        XY            XZ            YZ
 --------------------------------------------------------
     1   Atom        0.000000      0.000000      0.000000
     2   Atom        0.000000      0.000000      0.000000
     3   Atom        0.000000      0.000000      0.000000
     4   Atom        0.000000      0.000000      0.000000
     5   Atom        0.000000      0.000000      0.000000
     6   Atom        0.000000      0.000000      0.000000
 --------------------------------------------------------


 ---------------------------------------------------------------------------------
              Anisotropic Spin Dipole Couplings in Principal Axis System
 ---------------------------------------------------------------------------------

       Atom             a.u.   MegaHertz   Gauss  10(-4) cm-1        Axes

              Baa     0.0000     0.000     0.000     0.000  1.0000  0.0000  0.0000
     1 C(13)  Bbb     0.0000     0.000     0.000     0.000 -0.0000  1.0000  0.0000
              Bcc     0.0000     0.000     0.000     0.000  0.0000  0.0000  1.0000
 
              Baa     0.0000     0.000     0.000     0.000  1.0000  0.0000  0.0000
     2 S(33)  Bbb     0.0000     0.000     0.000     0.000 -0.0000  1.0000  0.0000
              Bcc     0.0000     0.000     0.000     0.000  0.0000  0.0000  1.0000
 
              Baa     0.0000     0.000     0.000     0.000  1.0000  0.0000  0.0000
     3 H(1)   Bbb     0.0000     0.000     0.000     0.000 -0.0000  1.0000  0.0000
              Bcc     0.0000     0.000     0.000     0.000  0.0000  0.0000  1.0000
 
              Baa     0.0000     0.000     0.000     0.000  1.0000  0.0000  0.0000
     4 H(1)   Bbb     0.0000     0.000     0.000     0.000 -0.0000  1.0000  0.0000
              Bcc     0.0000     0.000     0.000     0.000  0.0000  0.0000  1.0000
 
              Baa     0.0000     0.000     0.000     0.000  1.0000  0.0000  0.0000
     5 H(1)   Bbb     0.0000     0.000     0.000     0.000 -0.0000  1.0000  0.0000
              Bcc     0.0000     0.000     0.000     0.000  0.0000  0.0000  1.0000
 
              Baa     0.0000     0.000     0.000     0.000  1.0000  0.0000  0.0000
     6 H(1)   Bbb     0.0000     0.000     0.000     0.000 -0.0000  1.0000  0.0000
              Bcc     0.0000     0.000     0.000     0.000  0.0000  0.0000  1.0000
 

 ---------------------------------------------------------------------------------

 No NMR shielding tensors so no spin-rotation constants.
 Leave Link  601 at Mon Apr 21 19:34:27 2025, MaxMem=   536870912 cpu:               2.0 elap:               0.4
 (Enter /home/szhao/Apps/g16/l9999.exe)
 1\1\GINC-NODE06\FOpt\UM062X\6-311+G(d,p)\C1H4S1\SZHAO\21-Apr-2025\0\\#
 p opt UM062X/6-311+G** nosymm int=superfine\\Title Card Required\\0,1\
 C,-1.26021951,0.,0.\S,1.26021951,0.,0.\H,1.2663302048,-1.343325423,-0.
 0014265033\H,-1.4210975001,1.0692660874,0.0025246253\H,-1.4504695967,-
 0.5228954484,-0.9269554998\H,-1.4504926509,-0.5272288721,0.9244960408\
 \Version=ES64L-G16RevA.03\HF=-438.6088543\S2=0.\S2-1=0.\S2A=0.\RMSD=5.
 342e-09\RMSF=6.608e-06\Dipole=-0.9975293,-0.3648387,-0.0003865\Quadrup
 ole=0.1590625,1.3994714,-1.5585339,-1.1223617,-0.0012012,0.0031568\PG=
 C01 [X(C1H4S1)]\\@


 THERE ARE TWO THINGS THAT EVERYBODY THINKS THEY CAN DO BETTER THAN
 ANYONE ELSE - PUNCH THE FIRE, AND EDIT A DAILY PAPER.
 -- UNCLE ESEK, "CENTURY MAGAZINE", 1885
 Job cpu time:       0 days  0 hours  8 minutes  6.0 seconds.
 Elapsed time:       0 days  0 hours  1 minutes 12.2 seconds.
 File lengths (MBytes):  RWF=     22 Int=      0 D2E=      0 Chk=      2 Scr=      2
 Normal termination of Gaussian 16 at Mon Apr 21 19:34:28 2025.
