Title Card Required                                                     
FOpt      UM062X                                                      6-311+G(d,p)        
Number of atoms                            I                4
Info1-9                                    I   N=           9
          13          13           0           0           0         110
           2          18        -502
Full Title                                 C   N=           2
Title Card Required     
Route                                      C   N=           4
#p opt UM062X/6-311+G** nosymm int=superfine    
Charge                                     I                0
Multiplicity                               I                1
Number of electrons                        I               14
Number of alpha electrons                  I                7
Number of beta electrons                   I                7
Number of basis functions                  I               56
Number of independent functions            I               56
Number of point charges in /Mol/           I                0
Number of translation vectors              I                0
Atomic numbers                             I   N=           4
           6           6           1           1
Nuclear charges                            R   N=           4
  6.00000000E+00  6.00000000E+00  1.00000000E+00  1.00000000E+00
Current cartesian coordinates              R   N=          12
 -1.30068492E+00  0.00000000E+00  0.00000000E+00  1.30068492E+00  0.00000000E+00
  0.00000000E+00 -3.31938272E+00 -4.15147823E-08  2.30008026E-08  3.31937941E+00
 -4.01904876E-08  2.37678695E-08
Number of symbols in /Mol/                 I                0
Force Field                                I                0
Atom Types                                 C   N=           4
                                                
Int Atom Types                             I   N=           4
           0           0           0           0
MM charges                                 R   N=           4
  0.00000000E+00  0.00000000E+00  0.00000000E+00  0.00000000E+00
Integer atomic weights                     I   N=           4
          12          12           1           1
Real atomic weights                        R   N=           4
  1.20000000E+01  1.20000000E+01  1.00782504E+00  1.00782504E+00
Atom fragment info                         I   N=           4
           0           0           0           0
Atom residue num                           I   N=           4
           0           0           0           0
Nuclear spins                              I   N=           4
           0           0           1           1
Nuclear ZEff                               R   N=           4
 -3.60000000E+00 -3.60000000E+00 -1.00000000E+00 -1.00000000E+00
Nuclear ZNuc                               R   N=           4
  6.00000000E+00  6.00000000E+00  1.00000000E+00  1.00000000E+00
Nuclear QMom                               R   N=           4
  0.00000000E+00  0.00000000E+00  0.00000000E+00  0.00000000E+00
Nuclear GFac                               R   N=           4
  0.00000000E+00  0.00000000E+00  2.79284600E+00  2.79284600E+00
MicOpt                                     I   N=           4
          -2          -2          -1          -1
Number of residues                         I                0
Number of secondary structures             I                0
Redundant internal dimensions              I   N=           4
          12           8           4           0
Redundant internal coordinate indices      I   N=          48
           1          -1           0           0           1          -2
           0           0           1          -3           0           0
           2          -1           0           0           2          -2
           0           0           2          -3           0           0
           1           3           0           0           2           4
           0           0           2           1           3          -4
           1           2           4          -4           2           1
           3          -8           1           2           4          -8
Redundant internal coordinates             R   N=          12
 -1.30068492E+00  0.00000000E+00  0.00000000E+00  1.30068492E+00  0.00000000E+00
  0.00000000E+00  2.01869779E+00  2.01869449E+00  3.14159263E+00  3.14159265E+00
  3.14159263E+00  3.14159267E+00
ZRed-IntVec                                I   N=          12
          -1          -1          -1          -1          -1          -1
           0           0           0           0           0           0
ZRed-FPVec                                 R   N=          12
  0.00000000E+00  0.00000000E+00  0.00000000E+00  0.00000000E+00  0.00000000E+00
  0.00000000E+00  0.00000000E+00  0.00000000E+00  0.00000000E+00  0.00000000E+00
  0.00000000E+00  0.00000000E+00
ZRed-Constraint1                           R   N=          12
 -1.30068492E+00  0.00000000E+00  0.00000000E+00  1.30068492E+00  0.00000000E+00
  0.00000000E+00  2.31315772E+00  2.31312295E+00  3.14159265E+00  3.14159265E+00
  3.14159265E+00  3.14159265E+00
ZRed-Constraint2                           R   N=          12
 -1.30068492E+00  0.00000000E+00  0.00000000E+00  1.30068492E+00  0.00000000E+00
  0.00000000E+00  0.00000000E+00  0.00000000E+00  0.00000000E+00  0.00000000E+00
  0.00000000E+00  0.00000000E+00
Number of contracted shells                I               20
Number of primitive shells                 I               38
Pure/Cartesian d shells                    I                0
Pure/Cartesian f shells                    I                0
Highest angular momentum                   I                2
Largest degree of contraction              I                6
Shell types                                I   N=          20
           0          -1          -1          -1          -1          -2
           0          -1          -1          -1          -1          -2
           0           0           0           1           0           0
           0           1
Number of primitives per shell             I   N=          20
           6           3           1           1           1           1
           6           3           1           1           1           1
           3           1           1           1           3           1
           1           1
Shell to atom map                          I   N=          20
           1           1           1           1           1           1
           2           2           2           2           2           2
           3           3           3           3           4           4
           4           4
Primitive exponents                        R   N=          38
  4.56324000E+03  6.82024000E+02  1.54973000E+02  4.44553000E+01  1.30290000E+01
  1.82773000E+00  2.09642000E+01  4.80331000E+00  1.45933000E+00  4.83456000E-01
  1.45585000E-01  4.38000000E-02  6.26000000E-01  4.56324000E+03  6.82024000E+02
  1.54973000E+02  4.44553000E+01  1.30290000E+01  1.82773000E+00  2.09642000E+01
  4.80331000E+00  1.45933000E+00  4.83456000E-01  1.45585000E-01  4.38000000E-02
  6.26000000E-01  3.38650000E+01  5.09479000E+00  1.15879000E+00  3.25840000E-01
  1.02741000E-01  7.50000000E-01  3.38650000E+01  5.09479000E+00  1.15879000E+00
  3.25840000E-01  1.02741000E-01  7.50000000E-01
Contraction coefficients                   R   N=          38
  1.96665025E-03  1.52306019E-02  7.61269097E-02  2.60801033E-01  6.16462078E-01
  2.21006028E-01  1.14660081E-01  9.19999648E-01 -3.03068213E-03  1.00000000E+00
  1.00000000E+00  1.00000000E+00  1.00000000E+00  1.96665025E-03  1.52306019E-02
  7.61269097E-02  2.60801033E-01  6.16462078E-01  2.21006028E-01  1.14660081E-01
  9.19999648E-01 -3.03068213E-03  1.00000000E+00  1.00000000E+00  1.00000000E+00
  1.00000000E+00  2.54938145E-02  1.90373109E-01  8.52161486E-01  1.00000000E+00
  1.00000000E+00  1.00000000E+00  2.54938145E-02  1.90373109E-01  8.52161486E-01
  1.00000000E+00  1.00000000E+00  1.00000000E+00
P(S=P) Contraction coefficients            R   N=          38
  0.00000000E+00  0.00000000E+00  0.00000000E+00  0.00000000E+00  0.00000000E+00
  0.00000000E+00  4.02486927E-02  2.37593957E-01  8.15853851E-01  1.00000000E+00
  1.00000000E+00  1.00000000E+00  0.00000000E+00  0.00000000E+00  0.00000000E+00
  0.00000000E+00  0.00000000E+00  0.00000000E+00  0.00000000E+00  4.02486927E-02
  2.37593957E-01  8.15853851E-01  1.00000000E+00  1.00000000E+00  1.00000000E+00
  0.00000000E+00  0.00000000E+00  0.00000000E+00  0.00000000E+00  0.00000000E+00
  0.00000000E+00  0.00000000E+00  0.00000000E+00  0.00000000E+00  0.00000000E+00
  0.00000000E+00  0.00000000E+00  0.00000000E+00
Coordinates of each shell                  R   N=          60
 -1.30068492E+00  0.00000000E+00  0.00000000E+00 -1.30068492E+00  0.00000000E+00
  0.00000000E+00 -1.30068492E+00  0.00000000E+00  0.00000000E+00 -1.30068492E+00
  0.00000000E+00  0.00000000E+00 -1.30068492E+00  0.00000000E+00  0.00000000E+00
 -1.30068492E+00  0.00000000E+00  0.00000000E+00  1.30068492E+00  0.00000000E+00
  0.00000000E+00  1.30068492E+00  0.00000000E+00  0.00000000E+00  1.30068492E+00
  0.00000000E+00  0.00000000E+00  1.30068492E+00  0.00000000E+00  0.00000000E+00
  1.30068492E+00  0.00000000E+00  0.00000000E+00  1.30068492E+00  0.00000000E+00
  0.00000000E+00 -3.31938272E+00 -4.15147823E-08  2.30008026E-08 -3.31938272E+00
 -4.15147823E-08  2.30008026E-08 -3.31938272E+00 -4.15147823E-08  2.30008026E-08
 -3.31938272E+00 -4.15147823E-08  2.30008026E-08  3.31937941E+00 -4.01904876E-08
  2.37678695E-08  3.31937941E+00 -4.01904876E-08  2.37678695E-08  3.31937941E+00
 -4.01904876E-08  2.37678695E-08  3.31937941E+00 -4.01904876E-08  2.37678695E-08
Num ILSW                                   I              100
ILSW                                       I   N=         100
           1           0           0           1           2           0
           0           0           0           0        4336          -1
           7           0           0           0           2           0
           0           0           0           0           1           0
           1           1           0           0           0           0
           0           0      100000           0          -1           0
           0           0           0           0           0           0
           0           0           0           1           0           0
           0 -2000000000           1           0           0           0
           0           0           4          52           0           0
           0           0          55           0           0           0
           0           0           0           4           0           1
           0           0           0           0           0           0
           0           0           0           0           0           0
           0           0           0           0           0           0
           0           0           0           0           0           0
           0           0           0           0
Num RLSW                                   I               52
RLSW                                       R   N=          52
  1.00000000E+00  1.00000000E+00  1.00000000E+00  1.00000000E+00  5.40000000E-01
  0.00000000E+00  0.00000000E+00  1.00000000E+00  0.00000000E+00  0.00000000E+00
  0.00000000E+00  0.00000000E+00  1.00000000E+00  0.00000000E+00  0.00000000E+00
  0.00000000E+00  0.00000000E+00  1.00000000E+00  0.00000000E+00  0.00000000E+00
  0.00000000E+00  0.00000000E+00  1.00000000E+00  0.00000000E+00  0.00000000E+00
  0.00000000E+00  0.00000000E+00  1.00000000E+00  0.00000000E+00  0.00000000E+00
  0.00000000E+00  0.00000000E+00  1.00000000E+00  0.00000000E+00  0.00000000E+00
  0.00000000E+00  0.00000000E+00  0.00000000E+00  1.00000000E+00  1.00000000E+00
  0.00000000E+00  1.00000000E+00  0.00000000E+00  0.00000000E+00  0.00000000E+00
  0.00000000E+00  0.00000000E+00  0.00000000E+00  0.00000000E+00  0.00000000E+00
  0.00000000E+00  0.00000000E+00
MxBond                                     I                2
NBond                                      I   N=           4
           2           2           1           1
IBond                                      I   N=           8
           2           3           1           4           1           0
           2           0
RBond                                      R   N=           8
  1.50000000E+00  1.00000000E+00  1.50000000E+00  1.00000000E+00  1.00000000E+00
  0.00000000E+00  1.00000000E+00  0.00000000E+00
Virial Ratio                               R      2.012066864748458E+00
SCF Energy                                 R     -7.726810302777260E+01
Total Energy                               R     -7.726810302777260E+01
S**2                                       R     -4.440892098500626E-15
S**2 after annihilation                    R      5.684341886080801E-14
RMS Force                                  R      6.240283871418836E-07
RMS Density                                R      3.015482373888751E-09
Job Status                                 I                1
Nuclear derivative order                   I                1
External E-field                           R   N=          35
  0.00000000E+00  0.00000000E+00  0.00000000E+00  0.00000000E+00  0.00000000E+00
  0.00000000E+00  0.00000000E+00  0.00000000E+00  0.00000000E+00  0.00000000E+00
  0.00000000E+00  0.00000000E+00  0.00000000E+00  0.00000000E+00  0.00000000E+00
  0.00000000E+00  0.00000000E+00  0.00000000E+00  0.00000000E+00  0.00000000E+00
  0.00000000E+00  0.00000000E+00  0.00000000E+00  0.00000000E+00  0.00000000E+00
  0.00000000E+00  0.00000000E+00  0.00000000E+00  0.00000000E+00  0.00000000E+00
  0.00000000E+00  0.00000000E+00  0.00000000E+00  0.00000000E+00  0.00000000E+00
IOpCl                                      I                1
IROHF                                      I                0
Alpha Orbital Energies                     R   N=          56
 -1.05967549E+01 -1.05958295E+01 -8.18366004E-01 -6.68720861E-01 -5.60914818E-01
 -3.32640807E-01 -3.32640807E-01  1.32242478E-02  1.32242478E-02  2.34749858E-02
  2.47723691E-02  7.95189706E-02  7.95189706E-02  9.32666582E-02  1.25820132E-01
  1.25820132E-01  1.34970653E-01  1.86892321E-01  2.37783698E-01  3.49065387E-01
  4.55632581E-01  5.82242936E-01  5.82242936E-01  6.31542047E-01  6.31542047E-01
  7.16775300E-01  7.20882315E-01  8.31931933E-01  8.41380829E-01  1.05583312E+00
  1.05583312E+00  1.06409075E+00  1.23468809E+00  1.23468885E+00  1.43391688E+00
  1.43391688E+00  1.53203431E+00  1.53203527E+00  1.69326637E+00  1.79461793E+00
  1.79461793E+00  1.98185507E+00  2.38187053E+00  2.38187053E+00  2.51705829E+00
  2.69661207E+00  2.76062798E+00  2.76062798E+00  2.90976347E+00  2.93074159E+00
  2.93074159E+00  3.23617540E+00  3.30073289E+00  3.69100985E+00  2.35883578E+01
  2.45255756E+01
Beta Orbital Energies                      R   N=          56
 -1.05967549E+01 -1.05958295E+01 -8.18366004E-01 -6.68720861E-01 -5.60914818E-01
 -3.32640807E-01 -3.32640807E-01  1.32242478E-02  1.32242478E-02  2.34749858E-02
  2.47723691E-02  7.95189706E-02  7.95189706E-02  9.32666582E-02  1.25820132E-01
  1.25820132E-01  1.34970653E-01  1.86892321E-01  2.37783698E-01  3.49065387E-01
  4.55632581E-01  5.82242936E-01  5.82242936E-01  6.31542047E-01  6.31542047E-01
  7.16775300E-01  7.20882315E-01  8.31931933E-01  8.41380829E-01  1.05583312E+00
  1.05583312E+00  1.06409075E+00  1.23468809E+00  1.23468885E+00  1.43391688E+00
  1.43391688E+00  1.53203431E+00  1.53203527E+00  1.69326637E+00  1.79461793E+00
  1.79461793E+00  1.98185507E+00  2.38187053E+00  2.38187053E+00  2.51705829E+00
  2.69661207E+00  2.76062798E+00  2.76062798E+00  2.90976347E+00  2.93074159E+00
  2.93074159E+00  3.23617540E+00  3.30073289E+00  3.69100985E+00  2.35883578E+01
  2.45255756E+01
Alpha MO coefficients                      R   N=        3136
  3.98911164E-01  3.28192917E-01  8.80838195E-05  2.11945216E-11 -1.24137044E-11
  7.80859551E-03 -2.08721698E-03 -6.07904124E-11  3.43202633E-11 -2.94861996E-03
  1.96343263E-04  1.25649046E-11 -7.32137180E-12 -4.38512262E-04  1.56034119E-03
  1.04940549E-11 -5.08381558E-12 -4.79630935E-04 -2.13512804E-11  1.33544187E-18
  8.30745149E-04  3.90138162E-11  3.98844684E-01  3.28138331E-01 -8.82060557E-05
  2.16723523E-11 -1.21378930E-11  7.80692007E-03  2.08756492E-03 -5.99294394E-11
  3.48273211E-11 -2.94695195E-03 -1.98142672E-04  1.27454438E-11 -7.22936120E-12
 -4.36795310E-04 -1.56082751E-03  8.94670146E-12 -5.98473120E-12 -4.79294708E-04
  2.23111587E-11  9.24801799E-18  8.30162785E-04 -3.72207842E-11  1.03874334E-04
 -3.18907133E-03  2.86579449E-03 -1.82901636E-03 -3.43460594E-11  1.90757188E-11
  1.03894225E-04 -3.18817451E-03  2.86615335E-03  1.82863147E-03 -3.33495964E-11
  1.96609214E-11 -3.99020217E-01 -3.27627162E-01  7.22418930E-04 -1.35799741E-11
  7.97085058E-12 -1.01791764E-02 -1.95151123E-03  3.37524472E-11 -1.82826500E-11
  1.00921634E-02  1.09092594E-02  9.28223283E-11 -5.27052356E-11  1.08547215E-02
  3.05071930E-03  3.95796176E-11 -2.21272062E-11  2.04712156E-03  4.12367479E-11
  1.54930467E-17 -3.54571854E-03 -7.36842272E-11  3.99086666E-01  3.27681830E-01
  7.22403759E-04  1.39525178E-11 -7.75645618E-12  1.01804969E-02 -1.95114194E-03
 -3.20492629E-11  1.92704191E-11 -1.00926336E-02  1.09092338E-02 -9.18307463E-11
  5.32780981E-11 -1.08547960E-02  3.05046069E-03 -3.91880504E-11  2.23517587E-11
 -2.04720622E-03  4.22018422E-11  1.77340629E-17  3.54586518E-03 -7.19864454E-11
  1.47621561E-04  5.58935276E-03  2.09126517E-03  2.39779554E-03  7.66950464E-11
 -4.21841431E-11 -1.47612474E-04 -5.58991344E-03 -2.09079323E-03  2.39811209E-03
 -7.37557629E-11  4.39066177E-11 -8.80296514E-02 -1.41476464E-01  4.40886146E-02
 -4.83103936E-10  2.68518243E-10  3.77216960E-01  5.07263020E-02 -7.21594974E-10
  3.99472312E-10  2.29211765E-01  6.15813836E-03 -3.07512360E-10  1.69669503E-10
 -1.96606908E-04 -1.56977430E-02 -8.49111335E-11  4.25086756E-11 -1.12190288E-02
 -1.65968816E-10 -5.53908209E-18  1.94319280E-02  3.00099977E-10 -8.80297733E-02
 -1.41476663E-01 -4.40883985E-02 -4.69140769E-10  2.76597834E-10  3.77217465E-01
 -5.07260701E-02 -6.98140356E-10  4.13086699E-10  2.29212096E-01 -6.15807425E-03
 -2.96042043E-10  1.76114895E-10 -1.96760404E-04  1.56977856E-02 -7.50980748E-11
  4.87344436E-11 -1.12190578E-02  1.71833047E-10 -2.57975404E-17  1.94319781E-02
 -2.90091127E-10  5.84105472E-02  6.26723840E-02 -7.05326624E-03  4.97089751E-03
  7.62977140E-13  9.99229322E-14  5.84108741E-02  6.26726771E-02 -7.05327001E-03
 -4.97093044E-03 -1.58702640E-13 -4.47399981E-13 -6.31298643E-02 -1.03084429E-01
 -9.06094796E-02 -1.18684357E-09  6.48737770E-10  2.79599275E-01 -1.16743092E-01
 -1.41982094E-09  7.69137706E-10  2.31000710E-01 -4.82621409E-02 -6.91638235E-10
  3.78693276E-10 -2.21588279E-01 -6.47829419E-02 -2.14437258E-10  1.23646551E-10
 -8.56134756E-03 -3.09418068E-10 -2.03276448E-17  1.48286889E-02  5.51294477E-10
  6.31297015E-02  1.03084157E-01 -9.06104330E-02  1.13365083E-09 -6.79518446E-10
 -2.79598447E-01 -1.16744198E-01  1.34385502E-09 -8.13121856E-10 -2.31000028E-01
 -4.82624528E-02  6.63000511E-10 -3.95355737E-10  2.21588288E-01 -6.47828647E-02
  2.12462326E-10 -1.24673529E-10  8.56131537E-03 -3.15609872E-10 -3.46708443E-19
 -1.48286332E-02  5.40655278E-10  1.30672085E-01  1.70999843E-01  2.40342210E-02
  1.78287073E-02  4.16944250E-10 -2.32286853E-10 -1.30672706E-01 -1.71000552E-01
 -2.40343916E-02  1.78288223E-02 -4.05928586E-10  2.38683644E-10 -4.90321803E-03
 -8.61630046E-03  1.83342735E-01  2.18901201E-09 -1.22428921E-09  2.92987460E-02
  2.38907846E-01  2.87877568E-09 -1.61487555E-09 -1.29242079E-02  1.11567616E-01
  1.39012655E-09 -7.75309162E-10 -6.19950375E-03  5.20352213E-03  7.46989467E-11
 -4.04004459E-11 -2.71217043E-03  8.15328330E-12  1.51167125E-16  4.69761698E-03
 -2.86998543E-11 -4.90346273E-03 -8.61671063E-03 -1.83342438E-01  2.13918983E-09
 -1.25318406E-09  2.92999480E-02 -2.38907241E-01  2.82127315E-09 -1.64795054E-09
 -1.29230026E-02 -1.11567216E-01  1.35581130E-09 -7.96218884E-10 -6.20107347E-03
 -5.20303462E-03  6.76302900E-11 -4.14131800E-11 -2.71220332E-03 -1.64652939E-11
 -1.66244502E-16  4.69767395E-03  1.43062497E-11 -1.32545601E-01 -1.98510688E-01
 -4.20407444E-02 -2.35169765E-02 -6.00167942E-10  3.31098028E-10 -1.32545191E-01
 -1.98509963E-01 -4.20405772E-02  2.35169393E-02 -5.78585156E-10  3.43620108E-10
  2.24361583E-10  3.73638560E-10  2.07917283E-09 -3.00212846E-02  1.80237067E-01
 -9.80463499E-10  3.17199728E-09 -4.76480810E-02  2.86062055E-01 -2.81149894E-09
  2.26138721E-09 -3.98818715E-02  2.39436508E-01 -6.80773998E-10  4.78415457E-10
 -4.39691760E-03  2.63975224E-02  2.26641631E-11  1.98708895E-02 -5.36478545E-11
 -7.12559134E-12 -3.30980546E-03  2.37690307E-10  3.96369963E-10 -2.09128706E-09
 -3.00212851E-02  1.80237070E-01 -1.04902629E-09 -3.19716497E-09 -4.76480838E-02
  2.86062072E-01 -2.82899353E-09 -2.38040082E-09 -3.98818730E-02  2.39436517E-01
 -9.32041356E-11 -6.57210644E-10 -4.39691444E-03  2.63975034E-02  2.96505824E-11
 -1.98708930E-02 -4.70739427E-11 -8.33896644E-12  3.30980604E-03  8.82222453E-11
  4.74063022E-12 -9.32939216E-11  3.41375106E-10 -2.71342280E-03  1.62904211E-02
  1.00356055E-10  4.82835988E-11 -4.47241564E-11 -3.52314637E-10 -2.71342913E-03
  1.62904591E-02 -3.00550124E-10 -5.01472790E-10 -2.56861428E-09  1.80237067E-01
  3.00212846E-02  1.33378247E-09 -3.93342724E-09  2.86062055E-01  4.76480810E-02
  3.48669203E-09 -2.96743141E-09  2.39436508E-01  3.98818715E-02  1.70659742E-10
 -7.96144498E-10  2.63975224E-02  4.39691760E-03  3.24000410E-11  3.30980546E-03
  1.59515127E-11  5.19297657E-11  1.98708895E-02 -2.65102858E-10 -4.41105884E-10
  2.53691861E-09  1.80237070E-01  3.00212851E-02  1.14991371E-09  3.86361696E-09
  2.86062072E-01  4.76480838E-02  3.42358545E-09  2.71679392E-09  2.39436517E-01
  3.98818730E-02  7.80256368E-10  6.01576282E-10  2.63975034E-02  4.39691444E-03
  3.12217689E-11 -3.30980604E-03  2.13653588E-11  4.07508760E-11 -1.98708930E-02
 -1.31877919E-10 -8.27034896E-11  3.57501823E-11 -4.38124741E-10  1.62904211E-02
  2.71342280E-03 -9.90853244E-11  1.80773189E-11  1.25952872E-10  4.11212662E-10
  1.62904591E-02  2.71342913E-03 -3.52871667E-09 -5.96589403E-09 -1.48749915E-09
  1.53818250E-01 -4.54789383E-02  1.84123431E-08 -4.39482064E-09  2.42065009E-01
 -7.15705687E-02  2.17962493E-08 -1.78650227E-08  3.73202162E-01 -1.10343461E-01
  6.69347787E-07  2.21839019E-07  7.89625223E-01 -2.33465904E-01  9.34404511E-10
  9.08655733E-03  9.48154116E-11 -1.42597215E-09 -3.07324312E-02  3.52772133E-09
  5.96484370E-09 -1.41391672E-09 -1.53818253E-01  4.54789393E-02 -1.84285773E-08
 -4.30196037E-09 -2.42065008E-01  7.15705685E-02 -2.15617519E-08 -1.76383093E-08
 -3.73202204E-01  1.10343474E-01 -6.68603770E-07  2.22427687E-07 -7.89625058E-01
  2.33465856E-01 -9.17873892E-10  9.08655664E-03 -9.68709449E-11  1.41430444E-09
 -3.07324289E-02 -4.62544919E-09 -1.91452311E-08 -5.48431220E-09  5.61167863E-10
  2.78945396E-02 -8.24748720E-03  4.55585820E-09  1.90389099E-08  4.89877983E-09
  5.66882622E-10 -2.78945436E-02  8.24748839E-03  8.36103389E-10  1.41362556E-09
  3.05055105E-10  4.54789383E-02  1.53818250E-01 -4.37700661E-09  9.85344419E-10
  7.15705687E-02  2.42065009E-01 -5.02070278E-09  4.04846911E-09  1.10343461E-01
  3.73202162E-01 -1.58939102E-07 -5.32478584E-08  2.33465904E-01  7.89625223E-01
 -1.13744576E-10 -3.07324312E-02 -9.59739326E-11  3.87243087E-10 -9.08655733E-03
 -8.36624053E-10 -1.41377683E-09  3.82206409E-10 -4.54789393E-02 -1.53818253E-01
  4.35551143E-09  1.07998891E-09 -7.15705685E-02 -2.42065008E-01  5.27771239E-09
  4.29131296E-09 -1.10343474E-01 -3.73202204E-01  1.59773643E-07 -5.25657161E-08
 -2.33465856E-01 -7.89625058E-01  1.21969404E-10 -3.07324289E-02  8.74689777E-11
 -4.05585388E-10 -9.08655664E-03  1.04949247E-09  4.46332575E-09  8.62369794E-10
 -1.38110777E-10  8.24748720E-03  2.78945396E-02 -1.12433273E-09 -4.57180642E-09
 -1.52429615E-09 -1.31813521E-10 -8.24748839E-03 -2.78945436E-02  2.61390665E-02
  4.42041290E-02  1.51519196E-02  8.81742894E-09 -5.04205789E-09 -1.40007826E-01
  4.79526538E-02  1.44248413E-08 -8.25221092E-09 -3.54979718E-01 -2.74681654E-01
  1.87239371E-08 -1.07352366E-08 -1.34569131E+01 -4.61484461E+00  2.52870182E-08
 -1.46542754E-08 -5.24692774E-03  9.76660488E-10 -2.46835971E-17  9.08794543E-03
 -1.69815550E-09 -2.61384064E-02 -4.42029907E-02  1.51503952E-02 -8.79907286E-09
  5.05555150E-09  1.40003908E-01  4.79496054E-02 -1.43892236E-08  8.27045658E-09
  3.54977778E-01 -2.74682390E-01 -1.87223736E-08  1.07370596E-08  1.34569575E+01
 -4.61479542E+00 -2.54863629E-08  1.45330792E-08  5.24717220E-03  9.73691498E-10
  5.70557897E-17 -9.08836885E-03 -1.70309394E-09  7.39821981E-03  6.67329884E-02
 -4.74376537E-01 -1.80156168E-02  1.29243308E-09 -7.47538099E-10 -7.39924170E-03
 -6.67291426E-02  4.74347695E-01 -1.80152231E-02 -1.30294091E-09  7.41451976E-10
  1.59456960E-02  2.76015919E-02  3.06631022E-02  1.77690564E-10 -1.60492089E-10
 -9.61622925E-02  6.79621320E-02  8.22135702E-10 -5.51478501E-10 -1.62968231E-02
 -1.00993486E-02 -1.06077539E-09  3.99409384E-10  1.12189886E+00 -1.18422468E+00
 -9.87954688E-09  4.71909677E-09  7.03468158E-03  2.01423412E-10 -2.28488637E-16
 -1.21844259E-02 -3.45044732E-10  1.59466850E-02  2.76032708E-02 -3.06637048E-02
  2.77299538E-10 -9.91883631E-11 -9.61677159E-02 -6.79642205E-02  9.55622749E-10
 -4.66672478E-10 -1.63111511E-02  1.01125911E-02 -7.08763746E-10  6.13769668E-10
  1.12137439E+00  1.18440630E+00 -8.28249176E-09  5.67523787E-09  7.03450984E-03
 -1.97059285E-10 -2.80187265E-16 -1.21841285E-02  3.51068051E-10 -2.92982356E-02
  8.12749263E-02 -7.60843400E-01 -7.32462147E-03 -1.80495989E-10  8.78108612E-11
 -2.92980650E-02  8.12771782E-02 -7.60865242E-01  7.32525789E-03 -1.54321269E-10
  1.03848942E-10  7.66305216E-11  1.41962001E-10  2.91081487E-10 -6.99582083E-02
  4.94440112E-03 -7.54244460E-10  2.59438278E-10 -5.66327058E-02  4.00260128E-03
  2.93784916E-09 -8.77838345E-10 -3.04591947E-01  2.15274920E-02  4.77846648E-09
 -1.55727387E-08  6.51508029E-01 -4.60463055E-02 -5.46036116E-11  6.90314792E-04
 -1.94801434E-11  3.12627671E-11 -9.76724680E-03  7.45258284E-11  1.38648891E-10
 -2.90460601E-10 -6.99581247E-02  4.94439521E-03 -7.45890651E-10 -2.62940187E-10
 -5.66325922E-02  4.00259325E-03  3.12705785E-09  5.63846830E-10 -3.04591691E-01
  2.15274738E-02  1.10167683E-08  1.36902527E-08  6.51507792E-01 -4.60462887E-02
 -5.02374972E-11 -6.90315174E-04 -2.08676243E-11  2.94078988E-11  9.76725220E-03
  8.91889544E-11 -1.81117245E-09 -5.52556166E-09  1.09976452E-10  4.58073981E-03
 -3.23750645E-04  7.66811325E-11 -1.70018053E-09 -5.41716592E-09 -1.08410332E-10
  4.58071908E-03 -3.23749179E-04 -3.55002793E-11 -6.58411742E-11 -1.40660275E-10
 -4.94440112E-03 -6.99582083E-02  3.57593215E-10 -1.26648359E-10 -4.00260128E-03
 -5.66327058E-02 -1.53445149E-09  2.46105881E-10 -2.15274920E-02 -3.04591947E-01
 -5.68859081E-09  6.48390902E-09  4.60463055E-02  6.51508029E-01 -4.37385603E-12
 -9.76724680E-03  3.15185740E-11 -3.15528714E-11 -6.90314792E-04 -3.74068088E-11
 -6.89325938E-11  1.41058084E-10 -4.94439521E-03 -6.99581247E-02  3.64735353E-10
  1.24927406E-10 -4.00259325E-03 -5.66325922E-02 -1.39499970E-09 -4.45611243E-10
 -2.15274738E-02 -3.04591691E-01 -1.91838333E-09 -7.64481846E-09  4.60462887E-02
  6.51507792E-01 -4.94642922E-12  9.76725220E-03  2.86831330E-11 -3.33472905E-11
  6.90315174E-04 -3.62934923E-11  8.12377796E-10  2.59572840E-09 -5.13577278E-11
  3.23750645E-04  4.58073981E-03 -4.43470229E-11  8.80620160E-10  2.67365940E-09
  5.31748013E-11  3.23749179E-04  4.58071908E-03 -8.05246449E-03 -1.23354749E-02
  6.23577141E-02  7.31464829E-10 -3.97771459E-10  1.22504166E-02  3.55483937E-02
  2.04079513E-10 -9.23135535E-11  1.99213477E-01  2.40997441E-01  3.69309734E-09
 -2.02367616E-09 -4.31427483E-01 -1.06511485E+00  8.62348953E-10  4.23822903E-11
 -2.09748633E-02 -3.92698918E-10  2.20865320E-16  3.63295288E-02  7.00048096E-10
 -8.05265203E-03 -1.23357993E-02 -6.23577580E-02  6.97044892E-10 -4.20682494E-10
  1.22514428E-02 -3.55483115E-02  1.61425134E-10 -1.18658577E-10  1.99214765E-01
 -2.40994226E-01  3.54177086E-09 -2.12372356E-09 -4.31445728E-01  1.06512512E+00
 -9.63397743E-11 -4.68530159E-10 -2.09747994E-02  4.00751439E-10  3.51895974E-16
  3.63294183E-02 -6.85803174E-10  3.14543298E-02  4.96251262E-02  4.34717138E-01
 -3.14776469E-02 -3.66025278E-10  2.09857385E-10  3.14537348E-02  4.96235444E-02
  4.34709211E-01  3.14777206E-02 -3.66549157E-10  2.09546457E-10  6.60822779E-09
  1.11134473E-08 -2.65844419E-09 -1.32186374E-01 -3.63407524E-05 -3.35970177E-08
 -5.83500498E-09 -1.47910169E-01 -4.06635470E-05 -2.36531216E-08  1.32638678E-07
 -6.53933903E-01 -1.79779876E-04 -1.42912389E-06 -2.61243412E-07  2.05100431E+00
  5.63863260E-04 -4.58258362E-09  4.00575415E-06 -6.54461399E-11  7.69398608E-09
  1.45705876E-02 -6.59356027E-09 -1.10902746E-08 -2.70102802E-09  1.32186375E-01
  3.63407525E-05  3.35609334E-08 -5.89434062E-09  1.47910176E-01  4.06635489E-05
  2.31083568E-08  1.32432153E-07  6.53933951E-01  1.79779890E-04  1.42933866E-06
 -2.61527205E-07 -2.05100447E+00 -5.63863302E-04  4.58167533E-09  4.00575770E-06
  6.94514102E-11 -7.70623072E-09  1.45706006E-02  1.54063397E-08  3.71403302E-08
  3.11075869E-07 -2.31924410E-09 -5.39178305E-03 -1.48231203E-06 -1.53811437E-08
 -3.70998122E-08 -3.10792938E-07 -2.33726403E-09  5.39181715E-03  1.48232140E-06
 -3.77760025E-09 -6.35481995E-09  1.54782631E-09  3.63407524E-05 -1.32186374E-01
  1.92314942E-08  3.38031177E-09  4.06635470E-05 -1.47910169E-01  1.32345464E-08
 -7.58653064E-08  1.79779876E-04 -6.53933903E-01  8.19580073E-07  1.49986600E-07
 -5.63863260E-04  2.05100431E+00  2.51197059E-09  1.45705876E-02  1.21372879E-10