 Entering Gaussian System, Link 0=g16
 Initial command:
 /home/szhao/Apps/g16/l1.exe "/home/szhao/tmp/Gau-119431.inp" -scrdir="/home/szhao/tmp/"
 Default is to use a total of  16 processors:
                               16 via shared-memory
                                1 via Linda
 Entering Link 1 = /home/szhao/Apps/g16/l1.exe PID=    119432.
  
 Copyright (c) 1988,1990,1992,1993,1995,1998,2003,2009,2016,
            Gaussian, Inc.  All Rights Reserved.
  
 This is part of the Gaussian(R) 16 program.  It is based on
 the Gaussian(R) 09 system (copyright 2009, Gaussian, Inc.),
 the Gaussian(R) 03 system (copyright 2003, Gaussian, Inc.),
 the Gaussian(R) 98 system (copyright 1998, Gaussian, Inc.),
 the Gaussian(R) 94 system (copyright 1995, Gaussian, Inc.),
 the Gaussian 92(TM) system (copyright 1992, Gaussian, Inc.),
 the Gaussian 90(TM) system (copyright 1990, Gaussian, Inc.),
 the Gaussian 88(TM) system (copyright 1988, Gaussian, Inc.),
 the Gaussian 86(TM) system (copyright 1986, Carnegie Mellon
 University), and the Gaussian 82(TM) system (copyright 1983,
 Carnegie Mellon University). Gaussian is a federally registered
 trademark of Gaussian, Inc.
  
 This software contains proprietary and confidential information,
 including trade secrets, belonging to Gaussian, Inc.
  
 This software is provided under written license and may be
 used, copied, transmitted, or stored only in accord with that
 written license.
  
 The following legend is applicable only to US Government
 contracts under FAR:
  
                    RESTRICTED RIGHTS LEGEND
  
 Use, reproduction and disclosure by the US Government is
 subject to restrictions as set forth in subparagraphs (a)
 and (c) of the Commercial Computer Software - Restricted
 Rights clause in FAR 52.227-19.
  
 Gaussian, Inc.
 340 Quinnipiac St., Bldg. 40, Wallingford CT 06492
  
  
 ---------------------------------------------------------------
 Warning -- This program may not be used in any manner that
 competes with the business of Gaussian, Inc. or will provide
 assistance to any competitor of Gaussian, Inc.  The licensee
 of this program is prohibited from giving any competitor of
 Gaussian, Inc. access to this program.  By using this program,
 the user acknowledges that Gaussian, Inc. is engaged in the
 business of creating and licensing software in the field of
 computational chemistry and represents and warrants to the
 licensee that it is not a competitor of Gaussian, Inc. and that
 it will not use this program in any manner prohibited above.
 ---------------------------------------------------------------
  

 Cite this work as:
 Gaussian 16, Revision A.03,
 M. J. Frisch, G. W. Trucks, H. B. Schlegel, G. E. Scuseria, 
 M. A. Robb, J. R. Cheeseman, G. Scalmani, V. Barone, 
 G. A. Petersson, H. Nakatsuji, X. Li, M. Caricato, A. V. Marenich, 
 J. Bloino, B. G. Janesko, R. Gomperts, B. Mennucci, H. P. Hratchian, 
 J. V. Ortiz, A. F. Izmaylov, J. L. Sonnenberg, D. Williams-Young, 
 F. Ding, F. Lipparini, F. Egidi, J. Goings, B. Peng, A. Petrone, 
 T. Henderson, D. Ranasinghe, V. G. Zakrzewski, J. Gao, N. Rega, 
 G. Zheng, W. Liang, M. Hada, M. Ehara, K. Toyota, R. Fukuda, 
 J. Hasegawa, M. Ishida, T. Nakajima, Y. Honda, O. Kitao, H. Nakai, 
 T. Vreven, K. Throssell, J. A. Montgomery, Jr., J. E. Peralta, 
 F. Ogliaro, M. J. Bearpark, J. J. Heyd, E. N. Brothers, K. N. Kudin, 
 V. N. Staroverov, T. A. Keith, R. Kobayashi, J. Normand, 
 K. Raghavachari, A. P. Rendell, J. C. Burant, S. S. Iyengar, 
 J. Tomasi, M. Cossi, J. M. Millam, M. Klene, C. Adamo, R. Cammi, 
 J. W. Ochterski, R. L. Martin, K. Morokuma, O. Farkas, 
 J. B. Foresman, and D. J. Fox, Gaussian, Inc., Wallingford CT, 2016.
 
 ******************************************
 Gaussian 16:  ES64L-G16RevA.03 25-Dec-2016
                21-Apr-2025 
 ******************************************
 %chk=opt.chk
 %mem=4GB
 %nprocshared=8
 Will use up to    8 processors via shared memory.
 --------------------------------------------
 #p opt UM062X/6-311+G** nosymm int=superfine
 --------------------------------------------
 1/18=20,19=15,26=5,38=1/1,3;
 2/9=110,12=2,15=1,17=6,18=5,40=1/2;
 3/5=4,6=6,7=111,11=2,25=1,30=1,71=1,74=-55,75=-7,116=2/1,2,3;
 4//1;
 5/5=2,38=5/2;
 6/7=2,8=2,9=2,10=2,28=1/1;
 7/30=1/1,2,3,16;
 1/18=20,19=15,26=5/3(2);
 2/9=110,15=1/2;
 99//99;
 2/9=110,15=1/2;
 3/5=4,6=6,7=111,11=2,25=1,30=1,71=1,74=-55,75=-7,116=2/1,2,3;
 4/5=5,16=3,69=1/1;
 5/5=2,38=5/2;
 7/30=1/1,2,3,16;
 1/18=20,19=15,26=5/3(-5);
 2/9=110,15=1/2;
 6/7=2,8=2,9=2,10=2,19=2,28=1/1;
 99/9=1/99;
 Leave Link    1 at Mon Apr 21 18:08:46 2025, MaxMem=   536870912 cpu:               0.9 elap:               0.1
 (Enter /home/szhao/Apps/g16/l101.exe)
 -------------------
 Title Card Required
 -------------------
 Symbolic Z-matrix:
 Charge =  0 Multiplicity = 1
 B                    -1   -1.96707   0.        0. 
 N                    -1    1.96707   0.        0. 
 H                    0    -3.13296  -0.00072   0. 
 H                    0     2.96122   0.00009   0. 
 
 Add virtual bond connecting atoms N2         and B1         Dist= 7.43D+00.
 ITRead=  2  2  0  0
 MicOpt= -2 -2 -1 -1
 NAtoms=      4 NQM=        2 NQMF=       2 NMMI=      0 NMMIF=      0
                NMic=       0 NMicF=      0.
                    Isotopes and Nuclear Properties:
 (Nuclear quadrupole moments (NQMom) in fm**2, nuclear magnetic moments (NMagM)
  in nuclear magnetons)

  Atom         1           2           3           4
 IAtWgt=          11          14           1           1
 AtmWgt=  11.0093053  14.0030740   1.0078250   1.0078250
 NucSpn=           3           2           1           1
 AtZEff=  -0.0000000  -0.0000000  -0.0000000  -0.0000000
 NQMom=    4.0590000   2.0440000   0.0000000   0.0000000
 NMagM=    2.6886370   0.4037610   2.7928460   2.7928460
 AtZNuc=   5.0000000   7.0000000   1.0000000   1.0000000
 Leave Link  101 at Mon Apr 21 18:08:47 2025, MaxMem=   536870912 cpu:               3.2 elap:               0.4
 (Enter /home/szhao/Apps/g16/l103.exe)

 GradGradGradGradGradGradGradGradGradGradGradGradGradGradGradGradGradGrad
 Berny optimization.
 Initialization pass.
                           ----------------------------
                           !    Initial Parameters    !
                           ! (Angstroms and Degrees)  !
 --------------------------                            --------------------------
 ! Name  Definition              Value          Derivative Info.                !
 --------------------------------------------------------------------------------
 ! X1    R(1,-1)                -1.9671         Frozen                          !
 ! Y1    R(1,-2)                 0.0            Frozen                          !
 ! Z1    R(1,-3)                 0.0            Frozen                          !
 ! X2    R(2,-1)                 1.9671         Frozen                          !
 ! Y2    R(2,-2)                 0.0            Frozen                          !
 ! Z2    R(2,-3)                 0.0            Frozen                          !
 ! R1    R(1,3)                  1.1659         estimate D2E/DX2                !
 ! R2    R(2,4)                  0.9942         estimate D2E/DX2                !
 ! A1    L(2,1,3,-3,-1)        179.9644         estimate D2E/DX2                !
 ! A2    L(1,2,4,-3,-1)        179.995          estimate D2E/DX2                !
 ! A3    L(2,1,3,-2,-2)        180.0            estimate D2E/DX2                !
 ! A4    L(1,2,4,-2,-2)        180.0            estimate D2E/DX2                !
 --------------------------------------------------------------------------------
 Trust Radius=3.00D-01 FncErr=1.00D-07 GrdErr=1.00D-07 EigMax=2.50D+02 EigMin=1.00D-04
 Number of steps in this run=     22 maximum allowed number of steps=    100.
 GradGradGradGradGradGradGradGradGradGradGradGradGradGradGradGradGradGrad

 Leave Link  103 at Mon Apr 21 18:08:47 2025, MaxMem=   536870912 cpu:               0.2 elap:               0.1
 (Enter /home/szhao/Apps/g16/l202.exe)
                          Input orientation:                          
 ---------------------------------------------------------------------
 Center     Atomic      Atomic             Coordinates (Angstroms)
 Number     Number       Type             X           Y           Z
 ---------------------------------------------------------------------
      1          5           0       -1.967066    0.000000    0.000000
      2          7           0        1.967066    0.000000    0.000000
      3          1           0       -3.132957   -0.000725    0.000000
      4          1           0        2.961219    0.000086    0.000000
 ---------------------------------------------------------------------
                    Distance matrix (angstroms):
                    1          2          3          4
     1  B    0.000000
     2  N    3.934132   0.000000
     3  H    1.165891   5.100023   0.000000
     4  H    4.928285   0.994153   6.094176   0.000000
 Symmetry turned off by external request.
 Stoichiometry    BH2N
 Framework group  C*V[C*(HNBH)]
 Deg. of freedom     3
 Full point group                 C*V     NOp   4
 Rotational constants (GHZ):           0.0000000           4.4214179           4.4214179
 Leave Link  202 at Mon Apr 21 18:08:48 2025, MaxMem=   536870912 cpu:               0.0 elap:               0.0
 (Enter /home/szhao/Apps/g16/l301.exe)
 Standard basis: 6-311+G(d,p) (5D, 7F)
 Ernie: Thresh=  0.10000D-02 Tol=  0.10000D-05 Strict=F.
    56 basis functions,    88 primitive gaussians,    58 cartesian basis functions
     7 alpha electrons        7 beta electrons
       nuclear repulsion energy        12.0532906830 Hartrees.
 IExCor= 4336 DFT=T Ex+Corr=M062X ExCW=0 ScaHFX=  0.540000
 ScaDFX=  1.000000  1.000000  1.000000  1.000000 ScalE2=  1.000000  1.000000
 IRadAn=      7 IRanWt=     -1 IRanGd=            0 ICorTp=0 IEmpDi=  4
 NAtoms=    4 NActive=    4 NUniq=    4 SFac= 1.00D+00 NAtFMM=   60 NAOKFM=F Big=F
 Integral buffers will be    131072 words long.
 Raffenetti 2 integral format.
 Two-electron integral symmetry is turned off.
 Leave Link  301 at Mon Apr 21 18:08:48 2025, MaxMem=   536870912 cpu:               0.7 elap:               0.1
 (Enter /home/szhao/Apps/g16/l302.exe)
 NPDir=0 NMtPBC=     1 NCelOv=     1 NCel=       1 NClECP=     1 NCelD=      1
         NCelK=      1 NCelE2=     1 NClLst=     1 CellRange=     0.0.
 One-electron integrals computed using PRISM.
 NBasis=    56 RedAO= T EigKep=  8.68D-03  NBF=    56
 NBsUse=    56 1.00D-06 EigRej= -1.00D+00 NBFU=    56
 Precomputing XC quadrature grid using
 IXCGrd= 4 IRadAn=           7 IRanWt=          -1 IRanGd=           0 AccXCQ= 0.00D+00.
 Generated NRdTot=       0 NPtTot=           0 NUsed=           0 NTot=          32
 NSgBfM=    58    58    58    58    58 MxSgAt=     4 MxSgA2=     4.
 Leave Link  302 at Mon Apr 21 18:08:48 2025, MaxMem=   536870912 cpu:               2.1 elap:               0.4
 (Enter /home/szhao/Apps/g16/l303.exe)
 DipDrv:  MaxL=1.
 Leave Link  303 at Mon Apr 21 18:08:49 2025, MaxMem=   536870912 cpu:               0.7 elap:               0.2
 (Enter /home/szhao/Apps/g16/l401.exe)
 ExpMin= 3.15D-02 ExpMax= 6.29D+03 ExpMxC= 9.49D+02 IAcc=3 IRadAn=         7 AccDes= 0.00D+00
 Harris functional with IExCor= 1009 and IRadAn=       7 diagonalized for initial guess.
 HarFok:  IExCor= 1009 AccDes= 0.00D+00 IRadAn=         7 IDoV= 1 UseB2=F ITyADJ=14
 ICtDFT=  3500011 ScaDFX=  1.000000  1.000000  1.000000  1.000000
 FoFCou: FMM=F IPFlag=           0 FMFlag=      100000 FMFlg1=           0
         NFxFlg=           0 DoJE=T BraDBF=F KetDBF=T FulRan=T
         wScrn=  0.000000 ICntrl=       500 IOpCl=  0 I1Cent=   200000004 NGrid=           0
         NMat0=    1 NMatS0=      1 NMatT0=    0 NMatD0=    1 NMtDS0=    0 NMtDT0=    0
 Symmetry not used in FoFCou.
 Harris En= -80.3972077660290    
 JPrj=0 DoOrth=F DoCkMO=F.
 Initial guess <Sx>= 0.0000 <Sy>= 0.0000 <Sz>= 0.0000 <S**2>= 0.0000 S= 0.0000
 Leave Link  401 at Mon Apr 21 18:08:49 2025, MaxMem=   536870912 cpu:               2.3 elap:               0.3
 (Enter /home/szhao/Apps/g16/l502.exe)
 Keep R1 and R2 ints in memory in canonical form, NReq=9624198.
 FoFCou: FMM=F IPFlag=           0 FMFlag=           0 FMFlg1=           0
         NFxFlg=           0 DoJE=F BraDBF=F KetDBF=F FulRan=T
         wScrn=  0.000000 ICntrl=       600 IOpCl=  0 I1Cent=           0 NGrid=           0
         NMat0=    1 NMatS0=   1596 NMatT0=    0 NMatD0=    1 NMtDS0=    0 NMtDT0=    0
 Symmetry not used in FoFCou.
 Two-electron integral symmetry not used.
 UHF open shell SCF:
 Using DIIS extrapolation, IDIIS=  1040.
 NGot=   536870912 LenX=   534314338 LenY=   534310533
 Requested convergence on RMS density matrix=1.00D-08 within 128 cycles.
 Requested convergence on MAX density matrix=1.00D-06.
 Requested convergence on             energy=1.00D-06.
 No special actions if energy rises.

 Cycle   1  Pass 1  IDiag  1:
 E= -79.0805534664640    
 DIIS: error= 7.87D-02 at cycle   1 NSaved=   1.
 NSaved= 1 IEnMin= 1 EnMin= -79.0805534664640     IErMin= 1 ErrMin= 7.87D-02
 ErrMax= 7.87D-02  0.00D+00 EMaxC= 1.00D-01 BMatC= 1.88D+00 BMatP= 1.88D+00
 IDIUse=3 WtCom= 2.13D-01 WtEn= 7.87D-01
 Coeff-Com:  0.100D+01
 Coeff-En:   0.100D+01
 Coeff:      0.100D+01
 Gap=    -1.150 Goal=   None    Shift=    0.000
 Gap=    -1.150 Goal=   None    Shift=    0.000
 GapD=   -1.150 DampG=0.250 DampE=0.500 DampFc=0.2500 IDamp=-1.
 Damping current iteration by 2.50D-01
 RMSDP=6.82D-02 MaxDP=1.57D+00              OVMax= 1.00D+00

 Cycle   2  Pass 1  IDiag  1:
 E= -79.4401385809066     Delta-E=       -0.359585114443 Rises=F Damp=T
 DIIS: error= 1.92D-02 at cycle   2 NSaved=   2.
 NSaved= 2 IEnMin= 2 EnMin= -79.4401385809066     IErMin= 2 ErrMin= 1.92D-02
 ErrMax= 1.92D-02  0.00D+00 EMaxC= 1.00D-01 BMatC= 1.21D-01 BMatP= 1.88D+00
 IDIUse=3 WtCom= 8.08D-01 WtEn= 1.92D-01
 Coeff-Com: -0.524D-01 0.105D+01
 Coeff-En:   0.368D+00 0.632D+00
 Coeff:      0.284D-01 0.972D+00
 Gap=     0.005 Goal=   None    Shift=    0.000
 Gap=     0.005 Goal=   None    Shift=    0.000
 RMSDP=1.68D-02 MaxDP=3.93D-01 DE=-3.60D-01 OVMax= 1.00D+00

 Cycle   3  Pass 1  IDiag  1:
 E= -79.2736058578079     Delta-E=        0.166532723099 Rises=F Damp=F
 DIIS: error= 5.61D-02 at cycle   3 NSaved=   3.
 NSaved= 3 IEnMin= 2 EnMin= -79.4401385809066     IErMin= 2 ErrMin= 1.92D-02
 ErrMax= 5.61D-02  0.00D+00 EMaxC= 1.00D-01 BMatC= 8.97D-01 BMatP= 1.21D-01
 IDIUse=2 WtCom= 0.00D+00 WtEn= 1.00D+00
 Coeff-En:   0.000D+00 0.569D+00 0.431D+00
 Coeff:      0.000D+00 0.569D+00 0.431D+00
 Gap=    -0.348 Goal=   None    Shift=    0.000
 Gap=    -0.348 Goal=   None    Shift=    0.000
 RMSDP=2.27D-02 MaxDP=2.41D-01 DE= 1.67D-01 OVMax= 1.00D+00

 Cycle   4  Pass 1  IDiag  1:
 E= -73.5146004049946     Delta-E=        5.759005452813 Rises=F Damp=F
 DIIS: error= 1.13D-01 at cycle   4 NSaved=   4.
 NSaved= 4 IEnMin= 2 EnMin= -79.4401385809066     IErMin= 2 ErrMin= 1.92D-02
 ErrMax= 1.13D-01  0.00D+00 EMaxC= 1.00D-01 BMatC= 5.21D+00 BMatP= 1.21D-01
 IDIUse=2 WtCom= 0.00D+00 WtEn= 1.00D+00
 Coeff-En:   0.000D+00 0.000D+00 0.753D+00 0.247D+00
 Coeff:      0.000D+00 0.000D+00 0.753D+00 0.247D+00
 Gap=    -0.118 Goal=   None    Shift=    0.000
 Gap=    -0.118 Goal=   None    Shift=    0.000
 RMSDP=1.37D-02 MaxDP=2.41D-01 DE= 5.76D+00 OVMax= 9.07D-01

 Cycle   5  Pass 1  IDiag  1:
 E= -78.7224047366826     Delta-E=       -5.207804331688 Rises=F Damp=F
 DIIS: error= 1.21D-01 at cycle   5 NSaved=   5.
 NSaved= 5 IEnMin= 2 EnMin= -79.4401385809066     IErMin= 2 ErrMin= 1.92D-02
 ErrMax= 1.21D-01  0.00D+00 EMaxC= 1.00D-01 BMatC= 1.73D+00 BMatP= 1.21D-01
 IDIUse=2 WtCom= 0.00D+00 WtEn= 1.00D+00
 EnCoef did   100 forward-backward iterations
 Coeff-En:   0.376D-01 0.000D+00 0.523D+00 0.000D+00 0.440D+00
 Coeff:      0.376D-01 0.000D+00 0.523D+00 0.000D+00 0.440D+00
 Gap=     0.059 Goal=   None    Shift=    0.000
 Gap=     0.059 Goal=   None    Shift=    0.000
 RMSDP=1.10D-02 MaxDP=1.87D-01 DE=-5.21D+00 OVMax= 9.50D-01

 Cycle   6  Pass 1  IDiag  1:
 E= -80.3923179550815     Delta-E=       -1.669913218399 Rises=F Damp=F
 DIIS: error= 1.85D-02 at cycle   6 NSaved=   6.
 NSaved= 6 IEnMin= 6 EnMin= -80.3923179550815     IErMin= 6 ErrMin= 1.85D-02
 ErrMax= 1.85D-02  0.00D+00 EMaxC= 1.00D-01 BMatC= 3.04D-02 BMatP= 1.21D-01
 IDIUse=3 WtCom= 8.15D-01 WtEn= 1.85D-01
 Coeff-Com: -0.165D+00 0.323D+00 0.249D+00-0.132D-01-0.266D-01 0.632D+00
 Coeff-En:   0.000D+00 0.000D+00 0.000D+00 0.000D+00 0.000D+00 0.100D+01
 Coeff:     -0.135D+00 0.264D+00 0.203D+00-0.108D-01-0.217D-01 0.700D+00
 Gap=     0.141 Goal=   None    Shift=    0.000
 Gap=     0.141 Goal=   None    Shift=    0.000
 RMSDP=1.59D-03 MaxDP=2.39D-02 DE=-1.67D+00 OVMax= 9.47D-02

 Cycle   7  Pass 1  IDiag  1:
 E= -80.4032754886076     Delta-E=       -0.010957533526 Rises=F Damp=F
 DIIS: error= 8.56D-03 at cycle   7 NSaved=   7.
 NSaved= 7 IEnMin= 7 EnMin= -80.4032754886076     IErMin= 7 ErrMin= 8.56D-03
 ErrMax= 8.56D-03  0.00D+00 EMaxC= 1.00D-01 BMatC= 1.73D-02 BMatP= 3.04D-02
 IDIUse=3 WtCom= 9.14D-01 WtEn= 8.56D-02
 Coeff-Com: -0.149D-01 0.158D+00 0.674D-01-0.733D-02-0.270D-01-0.514D-01
 Coeff-Com:  0.875D+00
 Coeff-En:   0.000D+00 0.000D+00 0.000D+00 0.000D+00 0.000D+00 0.000D+00
 Coeff-En:   0.100D+01
 Coeff:     -0.136D-01 0.144D+00 0.616D-01-0.670D-02-0.247D-01-0.470D-01
 Coeff:      0.886D+00
 Gap=     0.162 Goal=   None    Shift=    0.000
 Gap=     0.162 Goal=   None    Shift=    0.000
 RMSDP=4.00D-04 MaxDP=4.56D-03 DE=-1.10D-02 OVMax= 2.54D-02

 Cycle   8  Pass 1  IDiag  1:
 E= -80.4057349409348     Delta-E=       -0.002459452327 Rises=F Damp=F
 DIIS: error= 6.24D-03 at cycle   8 NSaved=   8.
 NSaved= 8 IEnMin= 8 EnMin= -80.4057349409348     IErMin= 8 ErrMin= 6.24D-03
 ErrMax= 6.24D-03  0.00D+00 EMaxC= 1.00D-01 BMatC= 9.73D-03 BMatP= 1.73D-02
 IDIUse=3 WtCom= 9.38D-01 WtEn= 6.24D-02
 Coeff-Com: -0.175D-01 0.492D-01 0.591D-01-0.727D-02-0.129D-01 0.378D-01
 Coeff-Com: -0.108D+01 0.197D+01
 Coeff-En:   0.000D+00 0.000D+00 0.000D+00 0.000D+00 0.000D+00 0.000D+00
 Coeff-En:   0.000D+00 0.100D+01
 Coeff:     -0.164D-01 0.462D-01 0.554D-01-0.681D-02-0.121D-01 0.354D-01
 Coeff:     -0.101D+01 0.191D+01
 Gap=     0.177 Goal=   None    Shift=    0.000
 Gap=     0.177 Goal=   None    Shift=    0.000
 RMSDP=4.66D-04 MaxDP=9.53D-03 DE=-2.46D-03 OVMax= 1.30D-02

 Cycle   9  Pass 1  IDiag  1:
 E= -80.4072056996416     Delta-E=       -0.001470758707 Rises=F Damp=F
 DIIS: error= 4.59D-03 at cycle   9 NSaved=   9.
 NSaved= 9 IEnMin= 9 EnMin= -80.4072056996416     IErMin= 9 ErrMin= 4.59D-03
 ErrMax= 4.59D-03  0.00D+00 EMaxC= 1.00D-01 BMatC= 5.18D-03 BMatP= 9.73D-03
 IDIUse=3 WtCom= 9.54D-01 WtEn= 4.59D-02
 Coeff-Com: -0.146D-02 0.114D-02 0.303D-01-0.168D-02-0.115D-01 0.135D+00
 Coeff-Com: -0.244D+00-0.867D+00 0.196D+01
 Coeff-En:   0.000D+00 0.000D+00 0.000D+00 0.000D+00 0.000D+00 0.000D+00
 Coeff-En:   0.000D+00 0.000D+00 0.100D+01
 Coeff:     -0.139D-02 0.109D-02 0.290D-01-0.160D-02-0.110D-01 0.129D+00
 Coeff:     -0.233D+00-0.827D+00 0.192D+01
 Gap=     0.171 Goal=   None    Shift=    0.000
 Gap=     0.171 Goal=   None    Shift=    0.000
 RMSDP=3.24D-04 MaxDP=5.23D-03 DE=-1.47D-03 OVMax= 7.92D-03

 Cycle  10  Pass 1  IDiag  1:
 E= -80.4083867679039     Delta-E=       -0.001181068262 Rises=F Damp=F
 DIIS: error= 2.42D-03 at cycle  10 NSaved=  10.
 NSaved=10 IEnMin=10 EnMin= -80.4083867679039     IErMin=10 ErrMin= 2.42D-03
 ErrMax= 2.42D-03  0.00D+00 EMaxC= 1.00D-01 BMatC= 1.49D-03 BMatP= 5.18D-03
 IDIUse=3 WtCom= 9.76D-01 WtEn= 2.42D-02
 Coeff-Com: -0.289D-03-0.798D-03 0.689D-03-0.611D-03-0.159D-02-0.616D-01
 Coeff-Com:  0.477D+00-0.559D+00-0.112D+01 0.226D+01
 Coeff-En:   0.000D+00 0.000D+00 0.000D+00 0.000D+00 0.000D+00 0.000D+00
 Coeff-En:   0.000D+00 0.000D+00 0.000D+00 0.100D+01
 Coeff:     -0.282D-03-0.779D-03 0.672D-03-0.596D-03-0.155D-02-0.601D-01
 Coeff:      0.465D+00-0.545D+00-0.109D+01 0.223D+01
 Gap=     0.151 Goal=   None    Shift=    0.000
 Gap=     0.151 Goal=   None    Shift=    0.000
 RMSDP=4.38D-04 MaxDP=9.85D-03 DE=-1.18D-03 OVMax= 1.16D-02

 Cycle  11  Pass 1  IDiag  1:
 E= -80.4089569309101     Delta-E=       -0.000570163006 Rises=F Damp=F
 DIIS: error= 2.71D-04 at cycle  11 NSaved=  11.
 NSaved=11 IEnMin=11 EnMin= -80.4089569309101     IErMin=11 ErrMin= 2.71D-04
 ErrMax= 2.71D-04  0.00D+00 EMaxC= 1.00D-01 BMatC= 1.35D-05 BMatP= 1.49D-03
 IDIUse=3 WtCom= 9.97D-01 WtEn= 2.71D-03
 Coeff-Com: -0.146D-03 0.442D-03 0.420D-03 0.191D-03-0.197D-03-0.173D-02
 Coeff-Com: -0.281D-01 0.817D-01-0.729D-01-0.609D-01 0.108D+01
 Coeff-En:   0.000D+00 0.000D+00 0.000D+00 0.000D+00 0.000D+00 0.000D+00
 Coeff-En:   0.000D+00 0.000D+00 0.000D+00 0.000D+00 0.100D+01
 Coeff:     -0.146D-03 0.440D-03 0.419D-03 0.190D-03-0.196D-03-0.173D-02
 Coeff:     -0.281D-01 0.814D-01-0.727D-01-0.608D-01 0.108D+01
 Gap=     0.149 Goal=   None    Shift=    0.000
 Gap=     0.149 Goal=   None    Shift=    0.000
 RMSDP=9.20D-05 MaxDP=2.35D-03 DE=-5.70D-04 OVMax= 1.52D-03

 Cycle  12  Pass 1  IDiag  1:
 E= -80.4089632201292     Delta-E=       -0.000006289219 Rises=F Damp=F
 DIIS: error= 2.57D-05 at cycle  12 NSaved=  12.
 NSaved=12 IEnMin=12 EnMin= -80.4089632201292     IErMin=12 ErrMin= 2.57D-05
 ErrMax= 2.57D-05  0.00D+00 EMaxC= 1.00D-01 BMatC= 1.22D-07 BMatP= 1.35D-05
 IDIUse=1 WtCom= 1.00D+00 WtEn= 0.00D+00
 Coeff-Com:  0.266D-04 0.557D-04-0.862D-04-0.135D-05 0.436D-04 0.110D-02
 Coeff-Com: -0.159D-01 0.165D-01 0.377D-01-0.703D-01 0.649D-01 0.966D+00
 Coeff:      0.266D-04 0.557D-04-0.862D-04-0.135D-05 0.436D-04 0.110D-02
 Coeff:     -0.159D-01 0.165D-01 0.377D-01-0.703D-01 0.649D-01 0.966D+00
 Gap=     0.149 Goal=   None    Shift=    0.000
 Gap=     0.149 Goal=   None    Shift=    0.000
 RMSDP=1.06D-05 MaxDP=2.23D-04 DE=-6.29D-06 OVMax= 2.24D-04

 Cycle  13  Pass 1  IDiag  1:
 E= -80.4089632913808     Delta-E=       -0.000000071252 Rises=F Damp=F
 DIIS: error= 8.55D-06 at cycle  13 NSaved=  13.
 NSaved=13 IEnMin=13 EnMin= -80.4089632913808     IErMin=13 ErrMin= 8.55D-06
 ErrMax= 8.55D-06  0.00D+00 EMaxC= 1.00D-01 BMatC= 1.41D-08 BMatP= 1.22D-07
 IDIUse=1 WtCom= 1.00D+00 WtEn= 0.00D+00
 Coeff-Com: -0.260D-05-0.790D-05-0.573D-05-0.179D-05 0.115D-04-0.306D-04
 Coeff-Com:  0.159D-02-0.339D-02-0.269D-03 0.847D-02-0.215D-01-0.821D-01
 Coeff-Com:  0.110D+01
 Coeff:     -0.260D-05-0.790D-05-0.573D-05-0.179D-05 0.115D-04-0.306D-04
 Coeff:      0.159D-02-0.339D-02-0.269D-03 0.847D-02-0.215D-01-0.821D-01
 Coeff:      0.110D+01
 Gap=     0.149 Goal=   None    Shift=    0.000
 Gap=     0.149 Goal=   None    Shift=    0.000
 RMSDP=1.98D-06 MaxDP=6.55D-05 DE=-7.13D-08 OVMax= 2.51D-05

 Cycle  14  Pass 1  IDiag  1:
 E= -80.4089632964389     Delta-E=       -0.000000005058 Rises=F Damp=F
 DIIS: error= 1.22D-06 at cycle  14 NSaved=  14.
 NSaved=14 IEnMin=14 EnMin= -80.4089632964389     IErMin=14 ErrMin= 1.22D-06
 ErrMax= 1.22D-06  0.00D+00 EMaxC= 1.00D-01 BMatC= 3.81D-10 BMatP= 1.41D-08
 IDIUse=1 WtCom= 1.00D+00 WtEn= 0.00D+00
 Coeff-Com: -0.640D-06 0.172D-05 0.634D-06-0.292D-06 0.113D-05-0.186D-04
 Coeff-Com:  0.222D-04 0.317D-03-0.534D-03 0.441D-04 0.222D-02 0.177D-02
 Coeff-Com: -0.176D+00 0.117D+01
 Coeff:     -0.640D-06 0.172D-05 0.634D-06-0.292D-06 0.113D-05-0.186D-04
 Coeff:      0.222D-04 0.317D-03-0.534D-03 0.441D-04 0.222D-02 0.177D-02
 Coeff:     -0.176D+00 0.117D+01
 Gap=     0.149 Goal=   None    Shift=    0.000
 Gap=     0.149 Goal=   None    Shift=    0.000
 RMSDP=2.83D-07 MaxDP=8.04D-06 DE=-5.06D-09 OVMax= 8.07D-06

 Cycle  15  Pass 1  IDiag  1:
 E= -80.4089632965889     Delta-E=       -0.000000000150 Rises=F Damp=F
 DIIS: error= 4.64D-08 at cycle  15 NSaved=  15.
 NSaved=15 IEnMin=15 EnMin= -80.4089632965889     IErMin=15 ErrMin= 4.64D-08
 ErrMax= 4.64D-08  0.00D+00 EMaxC= 1.00D-01 BMatC= 3.53D-13 BMatP= 3.81D-10
 IDIUse=1 WtCom= 1.00D+00 WtEn= 0.00D+00
 Coeff-Com:  0.606D-07-0.108D-06-0.105D-06-0.197D-07 0.136D-06 0.243D-05
 Coeff-Com: -0.188D-04-0.207D-04 0.690D-04-0.499D-04-0.416D-04 0.331D-03
 Coeff-Com:  0.151D-01-0.153D+00 0.114D+01
 Coeff:      0.606D-07-0.108D-06-0.105D-06-0.197D-07 0.136D-06 0.243D-05
 Coeff:     -0.188D-04-0.207D-04 0.690D-04-0.499D-04-0.416D-04 0.331D-03
 Coeff:      0.151D-01-0.153D+00 0.114D+01
 Gap=     0.149 Goal=   None    Shift=    0.000
 Gap=     0.149 Goal=   None    Shift=    0.000
 RMSDP=1.19D-08 MaxDP=1.62D-07 DE=-1.50D-10 OVMax= 4.21D-07

 Cycle  16  Pass 1  IDiag  1:
 E= -80.4089632965891     Delta-E=       -0.000000000000 Rises=F Damp=F
 DIIS: error= 1.13D-08 at cycle  16 NSaved=  16.
 NSaved=16 IEnMin=16 EnMin= -80.4089632965891     IErMin=16 ErrMin= 1.13D-08
 ErrMax= 1.13D-08  0.00D+00 EMaxC= 1.00D-01 BMatC= 3.30D-14 BMatP= 3.53D-13
 IDIUse=1 WtCom= 1.00D+00 WtEn= 0.00D+00
 Coeff-Com:  0.150D-08 0.508D-08 0.409D-08-0.110D-08 0.925D-08-0.202D-06
 Coeff-Com:  0.930D-06 0.173D-05-0.158D-05 0.404D-05-0.146D-04-0.430D-04
 Coeff-Com:  0.155D-04 0.440D-02-0.131D+00 0.113D+01
 Coeff:      0.150D-08 0.508D-08 0.409D-08-0.110D-08 0.925D-08-0.202D-06
 Coeff:      0.930D-06 0.173D-05-0.158D-05 0.404D-05-0.146D-04-0.430D-04
 Coeff:      0.155D-04 0.440D-02-0.131D+00 0.113D+01
 Gap=     0.149 Goal=   None    Shift=    0.000
 Gap=     0.149 Goal=   None    Shift=    0.000
 RMSDP=2.63D-09 MaxDP=4.72D-08 DE=-2.27D-13 OVMax= 1.16D-07

 SCF Done:  E(UM062X) =  -80.4089632966     A.U. after   16 cycles
            NFock= 16  Conv=0.26D-08     -V/T= 2.0011
 <Sx>= 0.0000 <Sy>= 0.0000 <Sz>= 0.0000 <S**2>=-0.0000 S=-0.0000
 <L.S>=  0.00000000000    
 KE= 8.031753955829D+01 PE=-2.118305014921D+02 EE= 3.905070795415D+01
 Annihilation of the first spin contaminant:
 S**2 before annihilation    -0.0000,   after    -0.0000
 Leave Link  502 at Mon Apr 21 18:08:55 2025, MaxMem=   536870912 cpu:              43.1 elap:               5.7
 (Enter /home/szhao/Apps/g16/l601.exe)
 Copying SCF densities to generalized density rwf, IOpCl= 1 IROHF=0.

 **********************************************************************

            Population analysis using the SCF density.

 **********************************************************************

 Alpha  occ. eigenvalues --  -14.82011  -7.11289  -0.90240  -0.55662  -0.45871
 Alpha  occ. eigenvalues --   -0.33193  -0.26984
 Alpha virt. eigenvalues --   -0.12038  -0.03866  -0.03821   0.02476   0.04032
 Alpha virt. eigenvalues --    0.06709   0.06811   0.09629   0.13920   0.14950
 Alpha virt. eigenvalues --    0.17755   0.20609   0.25815   0.38058   0.42614
 Alpha virt. eigenvalues --    0.42670   0.49183   0.57866   0.63026   0.80626
 Alpha virt. eigenvalues --    0.81080   0.82280   0.84287   0.84939   0.86514
 Alpha virt. eigenvalues --    0.86514   1.08570   1.16720   1.30955   1.32798
 Alpha virt. eigenvalues --    1.69653   1.69664   1.85606   1.85622   1.91824
 Alpha virt. eigenvalues --    1.98971   1.99786   2.02428   2.38572   2.39438
 Alpha virt. eigenvalues --    2.42851   2.47265   2.63733   3.03699   3.81125
 Alpha virt. eigenvalues --    3.85485   4.43770  14.25147  35.45035
  Beta  occ. eigenvalues --  -14.82011  -7.11289  -0.90240  -0.55662  -0.45871
  Beta  occ. eigenvalues --   -0.33193  -0.26984
  Beta virt. eigenvalues --   -0.12038  -0.03866  -0.03821   0.02476   0.04032
  Beta virt. eigenvalues --    0.06709   0.06811   0.09629   0.13920   0.14950
  Beta virt. eigenvalues --    0.17755   0.20609   0.25815   0.38058   0.42614
  Beta virt. eigenvalues --    0.42670   0.49183   0.57866   0.63026   0.80626
  Beta virt. eigenvalues --    0.81080   0.82280   0.84287   0.84939   0.86514
  Beta virt. eigenvalues --    0.86514   1.08570   1.16720   1.30955   1.32798
  Beta virt. eigenvalues --    1.69653   1.69664   1.85606   1.85622   1.91824
  Beta virt. eigenvalues --    1.98971   1.99786   2.02428   2.38572   2.39438
  Beta virt. eigenvalues --    2.42851   2.47265   2.63733   3.03699   3.81125
  Beta virt. eigenvalues --    3.85485   4.43770  14.25147  35.45035
          Condensed to atoms (all electrons):
               1          2          3          4
     1  B    4.930445  -0.024418   0.115529  -0.000070
     2  N   -0.024418   7.020942   0.001696   0.200666
     3  H    0.115529   0.001696   0.879592   0.000009
     4  H   -0.000070   0.200666   0.000009   0.582200
          Atomic-Atomic Spin Densities.
               1          2          3          4
     1  B    0.000000   0.000000   0.000000  -0.000000
     2  N    0.000000   0.000000  -0.000000  -0.000000
     3  H    0.000000  -0.000000  -0.000000   0.000000
     4  H   -0.000000  -0.000000   0.000000   0.000000
 Mulliken charges and spin densities:
               1          2
     1  B   -0.021485   0.000000
     2  N   -0.198885   0.000000
     3  H    0.003175  -0.000000
     4  H    0.217195  -0.000000
 Sum of Mulliken charges =  -0.00000   0.00000
 Mulliken charges and spin densities with hydrogens summed into heavy atoms:
               1          2
     1  B   -0.018310  -0.000000
     2  N    0.018310   0.000000
 Electronic spatial extent (au):  <R**2>=            253.8422
 Charge=             -0.0000 electrons
 Dipole moment (field-independent basis, Debye):
    X=              0.0240    Y=             -0.0010    Z=             -0.0000  Tot=              0.0241
 Quadrupole moment (field-independent basis, Debye-Ang):
   XX=             -2.3053   YY=            -11.7787   ZZ=            -15.0553
   XY=              0.0007   XZ=             -0.0000   YZ=              0.0000
 Traceless Quadrupole moment (field-independent basis, Debye-Ang):
   XX=              7.4078   YY=             -2.0656   ZZ=             -5.3422
   XY=              0.0007   XZ=             -0.0000   YZ=              0.0000
 Octapole moment (field-independent basis, Debye-Ang**2):
  XXX=             24.2020  YYY=             -0.0011  ZZZ=             -0.0000  XYY=              2.7209
  XXY=              0.0041  XXZ=             -0.0000  XZZ=             -3.7966  YZZ=             -0.0004
  YYZ=             -0.0000  XYZ=              0.0000
 Hexadecapole moment (field-independent basis, Debye-Ang**3):
 XXXX=           -294.1567 YYYY=            -14.4517 ZZZZ=            -20.8004 XXXY=             -0.0218
 XXXZ=             -0.0000 YYYX=             -0.0034 YYYZ=              0.0000 ZZZX=             -0.0000
 ZZZY=              0.0000 XXYY=            -53.7191 XXZZ=            -67.7438 YYZZ=             -5.8753
 XXYZ=              0.0000 YYXZ=             -0.0000 ZZXY=             -0.0012
 N-N= 1.205329068303D+01 E-N=-2.118305012075D+02  KE= 8.031753955829D+01
                          Isotropic Fermi Contact Couplings
        Atom                 a.u.       MegaHertz       Gauss      10(-4) cm-1
     1  B(11)             -0.00000      -0.00000      -0.00000      -0.00000
     2  N(14)              0.00000       0.00000       0.00000       0.00000
     3  H(1)               0.00000       0.00000       0.00000       0.00000
     4  H(1)              -0.00000      -0.00000      -0.00000      -0.00000
 --------------------------------------------------------
       Center         ----  Spin Dipole Couplings  ----
                      3XX-RR        3YY-RR        3ZZ-RR
 --------------------------------------------------------
     1   Atom        0.000000     -0.000000     -0.000000
     2   Atom       -0.000000     -0.000000      0.000000
     3   Atom        0.000000     -0.000000     -0.000000
     4   Atom        0.000000     -0.000000     -0.000000
 --------------------------------------------------------
                        XY            XZ            YZ
 --------------------------------------------------------
     1   Atom        0.000000      0.000000      0.000000
     2   Atom        0.000000     -0.000000      0.000000
     3   Atom        0.000000     -0.000000      0.000000
     4   Atom        0.000000     -0.000000      0.000000
 --------------------------------------------------------


 ---------------------------------------------------------------------------------
              Anisotropic Spin Dipole Couplings in Principal Axis System
 ---------------------------------------------------------------------------------

       Atom             a.u.   MegaHertz   Gauss  10(-4) cm-1        Axes

              Baa    -0.0000    -0.000    -0.000    -0.000  0.0000  0.7072 -0.7070
     1 B(11)  Bbb     0.0000     0.000     0.000     0.000  1.0000 -0.0000 -0.0000
              Bcc     0.0000     0.000     0.000     0.000  0.0000  0.7070  0.7072
 
              Baa    -0.0000    -0.000    -0.000    -0.000 -0.0000  0.7073 -0.7069
     2 N(14)  Bbb    -0.0000    -0.000    -0.000    -0.000  1.0000  0.0000 -0.0000
              Bcc     0.0000     0.000     0.000     0.000 -0.0000  0.7069  0.7073
 
              Baa    -0.0000    -0.000    -0.000    -0.000 -0.0004  0.7072 -0.7070
     3 H(1)   Bbb     0.0000     0.000     0.000     0.000  1.0000  0.0007  0.0001
              Bcc     0.0000     0.000     0.000     0.000 -0.0006  0.7070  0.7072
 
              Baa    -0.0000    -0.000    -0.000    -0.000 -0.0002  0.7072 -0.7070
     4 H(1)   Bbb     0.0000     0.000     0.000     0.000  1.0000  0.0003  0.0000
              Bcc     0.0000     0.000     0.000     0.000 -0.0002  0.7070  0.7072
 

 ---------------------------------------------------------------------------------

 No NMR shielding tensors so no spin-rotation constants.
 Leave Link  601 at Mon Apr 21 18:08:55 2025, MaxMem=   536870912 cpu:               2.0 elap:               0.3
 (Enter /home/szhao/Apps/g16/l701.exe)
 ... and contract with generalized density number  0.
 Compute integral first derivatives.
 Leave Link  701 at Mon Apr 21 18:08:56 2025, MaxMem=   536870912 cpu:               1.4 elap:               0.4
 (Enter /home/szhao/Apps/g16/l702.exe)
 L702 exits ... SP integral derivatives will be done elsewhere.
 Leave Link  702 at Mon Apr 21 18:08:56 2025, MaxMem=   536870912 cpu:               0.5 elap:               0.1
 (Enter /home/szhao/Apps/g16/l703.exe)
 Integral derivatives from FoFJK, PRISM(SPDF).
 Compute integral first derivatives, UseDBF=F ICtDFT=           0.
 Calling FoFJK, ICntrl=      2127 FMM=F ISym2X=0 I1Cent= 0 IOpClX= 1 NMat=1 NMatS=1 NMatT=0.
 FoFJK:  IHMeth= 1 ICntrl=    2127 DoSepK=F KAlg= 0 I1Cent=           0 FoldK=F
 IRaf=         0 NMat=       1 IRICut=       1 DoRegI=T DoRafI=F ISym2E= 0 IDoP0=0 IntGTp=1.
 FoFCou: FMM=F IPFlag=           0 FMFlag=      100000 FMFlg1=         800
         NFxFlg=           0 DoJE=F BraDBF=F KetDBF=F FulRan=T
         wScrn=  0.000000 ICntrl=      2127 IOpCl=  1 I1Cent=           0 NGrid=           0
         NMat0=    1 NMatS0=      1 NMatT0=    0 NMatD0=    1 NMtDS0=    0 NMtDT0=    0
 Symmetry not used in FoFCou.
 Leave Link  703 at Mon Apr 21 18:08:57 2025, MaxMem=   536870912 cpu:               4.9 elap:               0.7
 (Enter /home/szhao/Apps/g16/l716.exe)
 Dipole        = 9.45409294D-03-4.00283339D-04-4.24323386D-15
 -------------------------------------------------------------------
 Center     Atomic                   Forces (Hartrees/Bohr)
 Number     Number              X              Y              Z
 -------------------------------------------------------------------
      1        5          -0.000000000   -0.000000000   -0.000000000
      2        7          -0.000000000   -0.000000000   -0.000000000
      3        1          -0.030034836   -0.000019927   -0.000000000
      4        1           0.038989854    0.000004980   -0.000000000
 -------------------------------------------------------------------
 Cartesian Forces:  Max     0.038989854 RMS     0.014207687
 Leave Link  716 at Mon Apr 21 18:08:58 2025, MaxMem=   536870912 cpu:               0.8 elap:               0.2
 (Enter /home/szhao/Apps/g16/l103.exe)

 GradGradGradGradGradGradGradGradGradGradGradGradGradGradGradGradGradGrad
 Berny optimization.
 FormGI is forming the generalized inverse of G from B-inverse, IUseBI=4.
 Internal  Forces:  Max     0.038989854 RMS     0.020092704
 Search for a local minimum.
 Step number   1 out of a maximum of   22
 All quantities printed in internal units (Hartrees-Bohrs-Radians)
 RMS Force = .20093D-01 SwitMx=.10000D-02 MixMth= 1
 Mixed Optimization -- RFO/linear search
 Second derivative matrix not updated -- first step.
 The second derivative matrix:
                          X1        Y1        Z1        X2        Y2
           X1           0.50000
           Y1           0.00000   0.50000
           Z1           0.00000   0.00000   0.50000
           X2           0.00000   0.00000   0.00000   0.50000
           Y2           0.00000   0.00000   0.00000   0.00000   0.50000
           Z2           0.00000   0.00000   0.00000   0.00000   0.00000
           R1           0.00000   0.00000   0.00000   0.00000   0.00000
           R2           0.00000   0.00000   0.00000   0.00000   0.00000
           A1           0.00000   0.00000   0.00000   0.00000   0.00000
           A2           0.00000   0.00000   0.00000   0.00000   0.00000
           A3           0.00000   0.00000   0.00000   0.00000   0.00000
           A4           0.00000   0.00000   0.00000   0.00000   0.00000
                          Z2        R1        R2        A1        A2
           Z2           0.50000
           R1           0.00000   0.27332
           R2           0.00000   0.00000   0.48731
           A1           0.00000   0.00000   0.00000   0.00230
           A2           0.00000   0.00000   0.00000   0.00000   0.01106
           A3           0.00000   0.00000   0.00000   0.00000   0.00000
           A4           0.00000   0.00000   0.00000   0.00000   0.00000
                          A3        A4
           A3           0.00230
           A4           0.00000   0.01106
 ITU=  0
     Eigenvalues ---    0.00230   0.00997   0.01106   0.27332   0.48731
     Eigenvalues --- 1000.000001000.000001000.000001000.000001000.00000
     Eigenvalues --- 1000.000001000.00000
 RFO step:  Lambda=-6.30574397D-03 EMin= 2.30000000D-03
 Linear search not attempted -- first point.
 Iteration  1 RMS(Cart)=  0.03848795 RMS(Int)=  0.00000136
 Iteration  2 RMS(Cart)=  0.00000276 RMS(Int)=  0.00000000
 Iteration  3 RMS(Cart)=  0.00000000 RMS(Int)=  0.00000000
 ITry= 1 IFail=0 DXMaxC= 1.07D-01 DCOld= 1.00D+10 DXMaxT= 3.00D-01 DXLimC= 3.00D+00 Rises=F
 Variable       Old X    -DE/DX   Delta X   Delta X   Delta X     New X
                                 (Linear)    (Quad)   (Total)
    X1       -3.71722  -0.03003   0.00000   0.00000   0.00000  -3.71722
    Y1        0.00000  -0.00002   0.00000   0.00000   0.00000   0.00000
    Z1        0.00000  -0.00000   0.00000   0.00000   0.00000   0.00000
    X2        3.71722   0.03899   0.00000   0.00000   0.00000   3.71722
    Y2        0.00000   0.00000   0.00000   0.00000   0.00000   0.00000
    Z2        0.00000  -0.00000   0.00000   0.00000   0.00000   0.00000
    R1        2.20322   0.03003   0.00000   0.10741   0.10741   2.31062
    R2        1.87868   0.03899   0.00000   0.07899   0.07899   1.95767
    A1        3.14097   0.00000   0.00000   0.00004   0.00004   3.14101
    A2        3.14151  -0.00000   0.00000  -0.00011  -0.00011   3.14140
    A3        3.14159   0.00000   0.00000  -0.00000   0.00000   3.14159
    A4        3.14159  -0.00000   0.00000  -0.00000   0.00000   3.14159
         Item               Value     Threshold  Converged?
 Maximum Force            0.038990     0.000450     NO 
 RMS     Force            0.020093     0.000300     NO 
 Maximum Displacement     0.107409     0.001800     NO 
 RMS     Displacement     0.038488     0.001200     NO 
 Predicted change in Energy=-3.208917D-03
 Lowest energy point so far.  Saving SCF results.
 GradGradGradGradGradGradGradGradGradGradGradGradGradGradGradGradGradGrad

 Leave Link  103 at Mon Apr 21 18:08:58 2025, MaxMem=   536870912 cpu:               0.5 elap:               0.2
 (Enter /home/szhao/Apps/g16/l202.exe)
                          Input orientation:                          
 ---------------------------------------------------------------------
 Center     Atomic      Atomic             Coordinates (Angstroms)
 Number     Number       Type             X           Y           Z
 ---------------------------------------------------------------------
      1          5           0       -1.967066    0.000000    0.000000
      2          7           0        1.967066    0.000000    0.000000
      3          1           0       -3.189795   -0.000708    0.000000
      4          1           0        3.003018    0.000199   -0.000000
 ---------------------------------------------------------------------
                    Distance matrix (angstroms):
                    1          2          3          4
     1  B    0.000000
     2  N    3.934132   0.000000
     3  H    1.222730   5.156861   0.000000
     4  H    4.970083   1.035952   6.192813   0.000000
 Symmetry turned off by external request.
 This structure is nearly, but not quite of a higher symmetry.
 Consider Symm=Loose if the higher symmetry is desired.
 Stoichiometry    BH2N
 Framework group  CS[SG(BH2N)]
 Deg. of freedom     5
 Full point group                 CS      NOp   2
 Rotational constants (GHZ):  1105284327.1241708           4.3975708           4.3975708
 Leave Link  202 at Mon Apr 21 18:08:59 2025, MaxMem=   536870912 cpu:               0.3 elap:               0.1
 (Enter /home/szhao/Apps/g16/l301.exe)
 Standard basis: 6-311+G(d,p) (5D, 7F)
 Ernie: Thresh=  0.10000D-02 Tol=  0.10000D-05 Strict=F.
    56 basis functions,    88 primitive gaussians,    58 cartesian basis functions
     7 alpha electrons        7 beta electrons
       nuclear repulsion energy        11.7835559488 Hartrees.
 IExCor= 4336 DFT=T Ex+Corr=M062X ExCW=0 ScaHFX=  0.540000
 ScaDFX=  1.000000  1.000000  1.000000  1.000000 ScalE2=  1.000000  1.000000
 IRadAn=      7 IRanWt=     -1 IRanGd=            0 ICorTp=0 IEmpDi=  4
 NAtoms=    4 NActive=    4 NUniq=    4 SFac= 1.00D+00 NAtFMM=   60 NAOKFM=F Big=F
 Integral buffers will be    131072 words long.
 Raffenetti 2 integral format.
 Two-electron integral symmetry is turned off.
 Leave Link  301 at Mon Apr 21 18:08:59 2025, MaxMem=   536870912 cpu:               0.5 elap:               0.1
 (Enter /home/szhao/Apps/g16/l302.exe)
 NPDir=0 NMtPBC=     1 NCelOv=     1 NCel=       1 NClECP=     1 NCelD=      1
         NCelK=      1 NCelE2=     1 NClLst=     1 CellRange=     0.0.
 One-electron integrals computed using PRISM.
 NBasis=    56 RedAO= T EigKep=  9.17D-03  NBF=    56
 NBsUse=    56 1.00D-06 EigRej= -1.00D+00 NBFU=    56
 Precomputing XC quadrature grid using
 IXCGrd= 4 IRadAn=           7 IRanWt=          -1 IRanGd=           0 AccXCQ= 0.00D+00.
 Generated NRdTot=       0 NPtTot=           0 NUsed=           0 NTot=          32
 NSgBfM=    58    58    58    58    58 MxSgAt=     4 MxSgA2=     4.
 Leave Link  302 at Mon Apr 21 18:08:59 2025, MaxMem=   536870912 cpu:               1.4 elap:               0.2
 (Enter /home/szhao/Apps/g16/l303.exe)
 DipDrv:  MaxL=1.
 Leave Link  303 at Mon Apr 21 18:09:00 2025, MaxMem=   536870912 cpu:               0.6 elap:               0.1
 (Enter /home/szhao/Apps/g16/l401.exe)
 Initial guess from the checkpoint file:  "opt.chk"
 B after Tr=    -0.002030    0.000016   -0.000000
         Rot=    1.000000    0.000000   -0.000000   -0.000002 Ang=  -0.00 deg.
 Guess basis will be translated and rotated to current coordinates.
 JPrj=2 DoOrth=T DoCkMO=T.
 Initial guess <Sx>= 0.0000 <Sy>= 0.0000 <Sz>= 0.0000 <S**2>=-0.0000 S=-0.0000
 Generating alternative initial guess.
 ExpMin= 3.15D-02 ExpMax= 6.29D+03 ExpMxC= 9.49D+02 IAcc=3 IRadAn=         5 AccDes= 0.00D+00
 Harris functional with IExCor= 1009 and IRadAn=       5 diagonalized for initial guess.
 HarFok:  IExCor= 1009 AccDes= 0.00D+00 IRadAn=         5 IDoV= 1 UseB2=F ITyADJ=14
 ICtDFT=  3500011 ScaDFX=  1.000000  1.000000  1.000000  1.000000
 FoFCou: FMM=F IPFlag=           0 FMFlag=      100000 FMFlg1=           0
         NFxFlg=           0 DoJE=T BraDBF=F KetDBF=T FulRan=T
         wScrn=  0.000000 ICntrl=       500 IOpCl=  0 I1Cent=   200000004 NGrid=           0
         NMat0=    1 NMatS0=      1 NMatT0=    0 NMatD0=    1 NMtDS0=    0 NMtDT0=    0
 Symmetry not used in FoFCou.
 Harris En= -80.3921549510338    
 Leave Link  401 at Mon Apr 21 18:09:00 2025, MaxMem=   536870912 cpu:               2.0 elap:               0.3
 (Enter /home/szhao/Apps/g16/l502.exe)
 Keep R1 and R2 ints in memory in canonical form, NReq=9624198.
 FoFCou: FMM=F IPFlag=           0 FMFlag=           0 FMFlg1=           0
         NFxFlg=           0 DoJE=F BraDBF=F KetDBF=F FulRan=T
         wScrn=  0.000000 ICntrl=       600 IOpCl=  0 I1Cent=           0 NGrid=           0
         NMat0=    1 NMatS0=   1596 NMatT0=    0 NMatD0=    1 NMtDS0=    0 NMtDT0=    0
 Symmetry not used in FoFCou.
 Two-electron integral symmetry not used.
 UHF open shell SCF:
 Using DIIS extrapolation, IDIIS=  1040.
 NGot=   536870912 LenX=   534314338 LenY=   534310533
 Requested convergence on RMS density matrix=1.00D-08 within 128 cycles.
 Requested convergence on MAX density matrix=1.00D-06.
 Requested convergence on             energy=1.00D-06.
 No special actions if energy rises.

 Cycle   1  Pass 1  IDiag  1:
 E= -80.4115105612639    
 DIIS: error= 3.56D-03 at cycle   1 NSaved=   1.
 NSaved= 1 IEnMin= 1 EnMin= -80.4115105612639     IErMin= 1 ErrMin= 3.56D-03
 ErrMax= 3.56D-03  0.00D+00 EMaxC= 1.00D-01 BMatC= 3.16D-03 BMatP= 3.16D-03
 IDIUse=3 WtCom= 9.64D-01 WtEn= 3.56D-02
 Coeff-Com:  0.100D+01
 Coeff-En:   0.100D+01
 Coeff:      0.100D+01
 Gap=     0.516 Goal=   None    Shift=    0.000
 Gap=     0.516 Goal=   None    Shift=    0.000
 GapD=    0.516 DampG=2.000 DampE=1.000 DampFc=2.0000 IDamp=-1.
 RMSDP=4.86D-04 MaxDP=9.44D-03              OVMax= 1.01D-02

 Cycle   2  Pass 1  IDiag  1:
 E= -80.4122652349599     Delta-E=       -0.000754673696 Rises=F Damp=F
 DIIS: error= 5.98D-04 at cycle   2 NSaved=   2.
 NSaved= 2 IEnMin= 2 EnMin= -80.4122652349599     IErMin= 2 ErrMin= 5.98D-04
 ErrMax= 5.98D-04  0.00D+00 EMaxC= 1.00D-01 BMatC= 9.17D-05 BMatP= 3.16D-03
 IDIUse=3 WtCom= 9.94D-01 WtEn= 5.98D-03
 Coeff-Com:  0.226D-01 0.977D+00
 Coeff-En:   0.000D+00 0.100D+01
 Coeff:      0.225D-01 0.978D+00
 Gap=     0.150 Goal=   None    Shift=    0.000
 Gap=     0.150 Goal=   None    Shift=    0.000
 RMSDP=1.54D-04 MaxDP=3.18D-03 DE=-7.55D-04 OVMax= 2.93D-03

 Cycle   3  Pass 1  IDiag  1:
 E= -80.4122936970023     Delta-E=       -0.000028462042 Rises=F Damp=F
 DIIS: error= 2.73D-04 at cycle   3 NSaved=   3.
 NSaved= 3 IEnMin= 3 EnMin= -80.4122936970023     IErMin= 3 ErrMin= 2.73D-04
 ErrMax= 2.73D-04  0.00D+00 EMaxC= 1.00D-01 BMatC= 2.29D-05 BMatP= 9.17D-05
 IDIUse=3 WtCom= 9.97D-01 WtEn= 2.73D-03
 Coeff-Com: -0.165D-01 0.286D+00 0.730D+00
 Coeff-En:   0.000D+00 0.000D+00 0.100D+01
 Coeff:     -0.164D-01 0.285D+00 0.731D+00
 Gap=     0.152 Goal=   None    Shift=    0.000
 Gap=     0.152 Goal=   None    Shift=    0.000
 RMSDP=4.06D-05 MaxDP=7.50D-04 DE=-2.85D-05 OVMax= 1.14D-03

 Cycle   4  Pass 1  IDiag  1:
 E= -80.4122994769846     Delta-E=       -0.000005779982 Rises=F Damp=F
 DIIS: error= 9.10D-05 at cycle   4 NSaved=   4.
 NSaved= 4 IEnMin= 4 EnMin= -80.4122994769846     IErMin= 4 ErrMin= 9.10D-05
 ErrMax= 9.10D-05  0.00D+00 EMaxC= 1.00D-01 BMatC= 1.75D-06 BMatP= 2.29D-05
 IDIUse=1 WtCom= 1.00D+00 WtEn= 0.00D+00
 Coeff-Com: -0.513D-02-0.486D-01 0.139D+00 0.915D+00
 Coeff:     -0.513D-02-0.486D-01 0.139D+00 0.915D+00
 Gap=     0.151 Goal=   None    Shift=    0.000
 Gap=     0.151 Goal=   None    Shift=    0.000
 RMSDP=2.12D-05 MaxDP=3.53D-04 DE=-5.78D-06 OVMax= 4.99D-04

 Cycle   5  Pass 1  IDiag  1:
 E= -80.4123001539488     Delta-E=       -0.000000676964 Rises=F Damp=F
 DIIS: error= 1.61D-05 at cycle   5 NSaved=   5.
 NSaved= 5 IEnMin= 5 EnMin= -80.4123001539488     IErMin= 5 ErrMin= 1.61D-05
 ErrMax= 1.61D-05  0.00D+00 EMaxC= 1.00D-01 BMatC= 5.49D-08 BMatP= 1.75D-06
 IDIUse=1 WtCom= 1.00D+00 WtEn= 0.00D+00
 Coeff-Com:  0.124D-02-0.205D-01-0.496D-01 0.355D-01 0.103D+01
 Coeff:      0.124D-02-0.205D-01-0.496D-01 0.355D-01 0.103D+01
 Gap=     0.151 Goal=   None    Shift=    0.000
 Gap=     0.151 Goal=   None    Shift=    0.000
 RMSDP=6.14D-06 MaxDP=1.49D-04 DE=-6.77D-07 OVMax= 1.76D-04

 Cycle   6  Pass 1  IDiag  1:
 E= -80.4123001898558     Delta-E=       -0.000000035907 Rises=F Damp=F
 DIIS: error= 1.95D-06 at cycle   6 NSaved=   6.
 NSaved= 6 IEnMin= 6 EnMin= -80.4123001898558     IErMin= 6 ErrMin= 1.95D-06
 ErrMax= 1.95D-06  0.00D+00 EMaxC= 1.00D-01 BMatC= 8.67D-10 BMatP= 5.49D-08
 IDIUse=1 WtCom= 1.00D+00 WtEn= 0.00D+00
 Coeff-Com:  0.486D-04 0.322D-02 0.114D-02-0.281D-01-0.102D+00 0.113D+01
 Coeff:      0.486D-04 0.322D-02 0.114D-02-0.281D-01-0.102D+00 0.113D+01
 Gap=     0.151 Goal=   None    Shift=    0.000
 Gap=     0.151 Goal=   None    Shift=    0.000
 RMSDP=9.39D-07 MaxDP=2.03D-05 DE=-3.59D-08 OVMax= 3.15D-05

 Cycle   7  Pass 1  IDiag  1:
 E= -80.4123001906946     Delta-E=       -0.000000000839 Rises=F Damp=F
 DIIS: error= 3.26D-07 at cycle   7 NSaved=   7.
 NSaved= 7 IEnMin= 7 EnMin= -80.4123001906946     IErMin= 7 ErrMin= 3.26D-07
 ErrMax= 3.26D-07  0.00D+00 EMaxC= 1.00D-01 BMatC= 2.27D-11 BMatP= 8.67D-10
 IDIUse=1 WtCom= 1.00D+00 WtEn= 0.00D+00
 Coeff-Com: -0.417D-04 0.460D-03 0.122D-02-0.688D-04-0.226D-01-0.749D-01
 Coeff-Com:  0.110D+01
 Coeff:     -0.417D-04 0.460D-03 0.122D-02-0.688D-04-0.226D-01-0.749D-01
 Coeff:      0.110D+01
 Gap=     0.151 Goal=   None    Shift=    0.000
 Gap=     0.151 Goal=   None    Shift=    0.000
 RMSDP=1.40D-07 MaxDP=3.85D-06 DE=-8.39D-10 OVMax= 4.33D-06

 Cycle   8  Pass 1  IDiag  1:
 E= -80.4123001907158     Delta-E=       -0.000000000021 Rises=F Damp=F
 DIIS: error= 4.17D-08 at cycle   8 NSaved=   8.
 NSaved= 8 IEnMin= 8 EnMin= -80.4123001907158     IErMin= 8 ErrMin= 4.17D-08
 ErrMax= 4.17D-08  0.00D+00 EMaxC= 1.00D-01 BMatC= 7.62D-13 BMatP= 2.27D-11
 IDIUse=1 WtCom= 1.00D+00 WtEn= 0.00D+00
 Coeff-Com: -0.819D-06-0.606D-04-0.874D-05 0.673D-03 0.118D-02-0.237D-01
 Coeff-Com:  0.255D-01 0.996D+00
 Coeff:     -0.819D-06-0.606D-04-0.874D-05 0.673D-03 0.118D-02-0.237D-01
 Coeff:      0.255D-01 0.996D+00
 Gap=     0.151 Goal=   None    Shift=    0.000
 Gap=     0.151 Goal=   None    Shift=    0.000
 RMSDP=1.86D-08 MaxDP=3.62D-07 DE=-2.11D-11 OVMax= 6.68D-07

 Cycle   9  Pass 1  IDiag  1:
 E= -80.4123001907165     Delta-E=       -0.000000000001 Rises=F Damp=F
 DIIS: error= 2.03D-08 at cycle   9 NSaved=   9.
 NSaved= 9 IEnMin= 9 EnMin= -80.4123001907165     IErMin= 9 ErrMin= 2.03D-08
 ErrMax= 2.03D-08  0.00D+00 EMaxC= 1.00D-01 BMatC= 1.04D-13 BMatP= 7.62D-13
 IDIUse=1 WtCom= 1.00D+00 WtEn= 0.00D+00
 Coeff-Com:  0.144D-05-0.133D-04-0.272D-04 0.147D-04 0.532D-03 0.411D-02
 Coeff-Com: -0.482D-01-0.365D-01 0.108D+01
 Coeff:      0.144D-05-0.133D-04-0.272D-04 0.147D-04 0.532D-03 0.411D-02
 Coeff:     -0.482D-01-0.365D-01 0.108D+01
 Gap=     0.151 Goal=   None    Shift=    0.000
 Gap=     0.151 Goal=   None    Shift=    0.000
 RMSDP=6.27D-09 MaxDP=1.07D-07 DE=-7.67D-13 OVMax= 3.84D-07

 SCF Done:  E(UM062X) =  -80.4123001907     A.U. after    9 cycles
            NFock=  9  Conv=0.63D-08     -V/T= 2.0026
 <Sx>= 0.0000 <Sy>= 0.0000 <Sz>= 0.0000 <S**2>=-0.0000 S=-0.0000
 <L.S>=  0.00000000000    
 KE= 8.020021326390D+01 PE=-2.112182679995D+02 EE= 3.882219859609D+01
 Annihilation of the first spin contaminant:
 S**2 before annihilation    -0.0000,   after    -0.0000
 Leave Link  502 at Mon Apr 21 18:09:04 2025, MaxMem=   536870912 cpu:              24.6 elap:               3.3
 (Enter /home/szhao/Apps/g16/l701.exe)
 ... and contract with generalized density number  0.
 Compute integral first derivatives.
 Leave Link  701 at Mon Apr 21 18:09:04 2025, MaxMem=   536870912 cpu:               1.7 elap:               0.3
 (Enter /home/szhao/Apps/g16/l702.exe)
 L702 exits ... SP integral derivatives will be done elsewhere.
 Leave Link  702 at Mon Apr 21 18:09:04 2025, MaxMem=   536870912 cpu:               0.6 elap:               0.1
 (Enter /home/szhao/Apps/g16/l703.exe)
 Integral derivatives from FoFJK, PRISM(SPDF).
 Compute integral first derivatives, UseDBF=F ICtDFT=           0.
 Calling FoFJK, ICntrl=      2127 FMM=F ISym2X=0 I1Cent= 0 IOpClX= 1 NMat=1 NMatS=1 NMatT=0.
 FoFJK:  IHMeth= 1 ICntrl=    2127 DoSepK=F KAlg= 0 I1Cent=           0 FoldK=F
 IRaf=         0 NMat=       1 IRICut=       1 DoRegI=T DoRafI=F ISym2E= 0 IDoP0=0 IntGTp=1.
 FoFCou: FMM=F IPFlag=           0 FMFlag=      100000 FMFlg1=         800
         NFxFlg=           0 DoJE=F BraDBF=F KetDBF=F FulRan=T
         wScrn=  0.000000 ICntrl=      2127 IOpCl=  1 I1Cent=           0 NGrid=           0
         NMat0=    1 NMatS0=      1 NMatT0=    0 NMatD0=    1 NMtDS0=    0 NMtDT0=    0
 Symmetry not used in FoFCou.
 Leave Link  703 at Mon Apr 21 18:09:05 2025, MaxMem=   536870912 cpu:               4.8 elap:               0.6
 (Enter /home/szhao/Apps/g16/l716.exe)
 Dipole        = 6.70871631D-02-2.68204782D-04 2.22950551D-12
 -------------------------------------------------------------------
 Center     Atomic                   Forces (Hartrees/Bohr)
 Number     Number              X              Y              Z
 -------------------------------------------------------------------
      1        5          -0.000000000   -0.000000000   -0.000000000
      2        7          -0.000000000   -0.000000000   -0.000000000
      3        1          -0.004128326   -0.000003653    0.000000000
      4        1           0.002279136    0.000002159    0.000000000
 -------------------------------------------------------------------
 Cartesian Forces:  Max     0.004128326 RMS     0.001361297
 Leave Link  716 at Mon Apr 21 18:09:05 2025, MaxMem=   536870912 cpu:               0.8 elap:               0.2
 (Enter /home/szhao/Apps/g16/l103.exe)

 GradGradGradGradGradGradGradGradGradGradGradGradGradGradGradGradGradGrad
 Berny optimization.
 Using GEDIIS/GDIIS optimizer.
 FormGI is forming the generalized inverse of G from B-inverse, IUseBI=4.
 Internal  Forces:  Max     0.004128327 RMS     0.001925165
 Search for a local minimum.
 Step number   2 out of a maximum of   22
 All quantities printed in internal units (Hartrees-Bohrs-Radians)
 RMS Force = .19252D-02 SwitMx=.10000D-02 MixMth= 1
 Mixed Optimization -- RFO/linear search
 Update second derivatives using D2CorX and points    1    2
 DE= -3.34D-03 DEPred=-3.21D-03 R= 1.04D+00
 TightC=F SS=  1.41D+00  RLast= 1.33D-01 DXNew= 5.0454D-01 3.9998D-01
 Trust test= 1.04D+00 RLast= 1.33D-01 DXMaxT set to 4.00D-01
 The second derivative matrix:
                          X1        Y1        Z1        X2        Y2
           X1           0.61811
           Y1           0.00006   0.50000
           Z1           0.00000   0.00000   0.50000
           X2          -0.16737  -0.00009  -0.00000   0.73717
           Y2          -0.00001  -0.00000  -0.00000   0.00001   0.50000
           Z2           0.00000   0.00000   0.00000  -0.00000  -0.00000
           R1          -0.11811  -0.00006  -0.00000   0.16737   0.00001
           R2          -0.16737  -0.00009  -0.00000   0.23717   0.00001
           A1          -0.00001  -0.00000  -0.00000   0.00002   0.00000
           A2          -0.00001  -0.00000  -0.00000   0.00001   0.00000
           A3          -0.00000  -0.00000  -0.00000   0.00000   0.00000
           A4           0.00000   0.00000   0.00000  -0.00000  -0.00000
                          Z2        R1        R2        A1        A2
           Z2           0.50000
           R1          -0.00000   0.25228
           R2          -0.00000  -0.01508   0.48527
           A1          -0.00000   0.00001   0.00002   0.00230
           A2          -0.00000   0.00001   0.00002   0.00000   0.01106
           A3          -0.00000   0.00000   0.00000   0.00000   0.00000
           A4           0.00000  -0.00000  -0.00000  -0.00000  -0.00000
                          A3        A4
           A3           0.00230
           A4          -0.00000   0.01106
 ITU=  1  0
 Use linear search instead of GDIIS.
     Eigenvalues ---    0.00230   0.01009   0.01106   0.25131   0.48624
     Eigenvalues --- 1000.000001000.000001000.000001000.000001000.00000
     Eigenvalues --- 1000.000001000.00000
 RFO step:  Lambda=-1.56278506D-05 EMin= 2.30000000D-03
 Quartic linear search produced a step of  0.12876.
 Iteration  1 RMS(Cart)=  0.00587089 RMS(Int)=  0.00000036
 Iteration  2 RMS(Cart)=  0.00000078 RMS(Int)=  0.00000000
 ITry= 1 IFail=0 DXMaxC= 1.93D-02 DCOld= 1.00D+10 DXMaxT= 4.00D-01 DXLimC= 3.00D+00 Rises=F
 Variable       Old X    -DE/DX   Delta X   Delta X   Delta X     New X
                                 (Linear)    (Quad)   (Total)
    X1       -3.71722  -0.00413   0.00000   0.00000   0.00000  -3.71722
    Y1        0.00000  -0.00000   0.00000   0.00000   0.00000   0.00000
    Z1        0.00000   0.00000   0.00000   0.00000   0.00000   0.00000
    X2        3.71722   0.00228   0.00000   0.00000   0.00000   3.71722
    Y2        0.00000   0.00000   0.00000   0.00000   0.00000   0.00000
    Z2        0.00000   0.00000   0.00000   0.00000   0.00000   0.00000
    R1        2.31062   0.00413   0.01383   0.00550   0.01933   2.32996
    R2        1.95767   0.00228   0.01017  -0.00388   0.00629   1.96395
    A1        3.14101   0.00000   0.00001   0.00010   0.00010   3.14112
    A2        3.14140  -0.00000  -0.00001  -0.00028  -0.00029   3.14111
    A3        3.14159  -0.00000   0.00000  -0.00000   0.00000   3.14159
    A4        3.14159   0.00000   0.00000   0.00000   0.00000   3.14159
         Item               Value     Threshold  Converged?
 Maximum Force            0.004128     0.000450     NO 
 RMS     Force            0.001925     0.000300     NO 
 Maximum Displacement     0.019331     0.001800     NO 
 RMS     Displacement     0.005871     0.001200     NO 
 Predicted change in Energy=-3.923780D-05
 Lowest energy point so far.  Saving SCF results.
 GradGradGradGradGradGradGradGradGradGradGradGradGradGradGradGradGradGrad

 Leave Link  103 at Mon Apr 21 18:09:06 2025, MaxMem=   536870912 cpu:               0.8 elap:               0.1
 (Enter /home/szhao/Apps/g16/l202.exe)
                          Input orientation:                          
 ---------------------------------------------------------------------
 Center     Atomic      Atomic             Coordinates (Angstroms)
 Number     Number       Type             X           Y           Z
 ---------------------------------------------------------------------
      1          5           0       -1.967066    0.000000    0.000000
      2          7           0        1.967066    0.000000    0.000000
      3          1           0       -3.200025   -0.000587    0.000000
      4          1           0        3.006345    0.000500    0.000000
 ---------------------------------------------------------------------
                    Distance matrix (angstroms):
                    1          2          3          4
     1  B    0.000000
     2  N    3.934132   0.000000
     3  H    1.232959   5.167091   0.000000
     4  H    4.973411   1.039279   6.206370   0.000000
 Symmetry turned off by external request.
 This structure is nearly, but not quite of a higher symmetry.
 Consider Symm=Loose if the higher symmetry is desired.
 Stoichiometry    BH2N
 Framework group  CS[SG(BH2N)]
 Deg. of freedom     5
 Full point group                 CS      NOp   2
 Rotational constants (GHZ):  1017610702.9484366           4.3941693           4.3941692
 Leave Link  202 at Mon Apr 21 18:09:06 2025, MaxMem=   536870912 cpu:               0.7 elap:               0.2
 (Enter /home/szhao/Apps/g16/l301.exe)
 Standard basis: 6-311+G(d,p) (5D, 7F)
 Ernie: Thresh=  0.10000D-02 Tol=  0.10000D-05 Strict=F.
    56 basis functions,    88 primitive gaussians,    58 cartesian basis functions
     7 alpha electrons        7 beta electrons
       nuclear repulsion energy        11.7521887146 Hartrees.
 IExCor= 4336 DFT=T Ex+Corr=M062X ExCW=0 ScaHFX=  0.540000
 ScaDFX=  1.000000  1.000000  1.000000  1.000000 ScalE2=  1.000000  1.000000
 IRadAn=      7 IRanWt=     -1 IRanGd=            0 ICorTp=0 IEmpDi=  4
 NAtoms=    4 NActive=    4 NUniq=    4 SFac= 1.00D+00 NAtFMM=   60 NAOKFM=F Big=F
 Integral buffers will be    131072 words long.
 Raffenetti 2 integral format.
 Two-electron integral symmetry is turned off.
 Leave Link  301 at Mon Apr 21 18:09:06 2025, MaxMem=   536870912 cpu:               0.9 elap:               0.2
 (Enter /home/szhao/Apps/g16/l302.exe)
 NPDir=0 NMtPBC=     1 NCelOv=     1 NCel=       1 NClECP=     1 NCelD=      1
         NCelK=      1 NCelE2=     1 NClLst=     1 CellRange=     0.0.
 One-electron integrals computed using PRISM.
 NBasis=    56 RedAO= T EigKep=  9.23D-03  NBF=    56
 NBsUse=    56 1.00D-06 EigRej= -1.00D+00 NBFU=    56
 Precomputing XC quadrature grid using
 IXCGrd= 4 IRadAn=           7 IRanWt=          -1 IRanGd=           0 AccXCQ= 0.00D+00.
 Generated NRdTot=       0 NPtTot=           0 NUsed=           0 NTot=          32
 NSgBfM=    58    58    58    58    58 MxSgAt=     4 MxSgA2=     4.
 Leave Link  302 at Mon Apr 21 18:09:07 2025, MaxMem=   536870912 cpu:               2.3 elap:               0.4
 (Enter /home/szhao/Apps/g16/l303.exe)
 DipDrv:  MaxL=1.
 Leave Link  303 at Mon Apr 21 18:09:07 2025, MaxMem=   536870912 cpu:               0.8 elap:               0.2
 (Enter /home/szhao/Apps/g16/l401.exe)
 Initial guess from the checkpoint file:  "opt.chk"
 B after Tr=    -0.000932    0.000054    0.000000
         Rot=    1.000000    0.000000    0.000000   -0.000003 Ang=   0.00 deg.
 Guess basis will be translated and rotated to current coordinates.
 JPrj=2 DoOrth=T DoCkMO=T.
 Initial guess <Sx>= 0.0000 <Sy>= 0.0000 <Sz>= 0.0000 <S**2>=-0.0000 S=-0.0000
 Leave Link  401 at Mon Apr 21 18:09:07 2025, MaxMem=   536870912 cpu:               1.2 elap:               0.2
 (Enter /home/szhao/Apps/g16/l502.exe)
 Keep R1 and R2 ints in memory in canonical form, NReq=9624198.
 FoFCou: FMM=F IPFlag=           0 FMFlag=           0 FMFlg1=           0
         NFxFlg=           0 DoJE=F BraDBF=F KetDBF=F FulRan=T
         wScrn=  0.000000 ICntrl=       600 IOpCl=  0 I1Cent=           0 NGrid=           0
         NMat0=    1 NMatS0=   1596 NMatT0=    0 NMatD0=    1 NMtDS0=    0 NMtDT0=    0
 Symmetry not used in FoFCou.
 Two-electron integral symmetry not used.
 UHF open shell SCF:
 Using DIIS extrapolation, IDIIS=  1040.
 NGot=   536870912 LenX=   534314338 LenY=   534310533
 Requested convergence on RMS density matrix=1.00D-08 within 128 cycles.
 Requested convergence on MAX density matrix=1.00D-06.
 Requested convergence on             energy=1.00D-06.
 No special actions if energy rises.

 Cycle   1  Pass 1  IDiag  1:
 E= -80.4123335848338    
 DIIS: error= 5.85D-04 at cycle   1 NSaved=   1.
 NSaved= 1 IEnMin= 1 EnMin= -80.4123335848338     IErMin= 1 ErrMin= 5.85D-04
 ErrMax= 5.85D-04  0.00D+00 EMaxC= 1.00D-01 BMatC= 5.00D-05 BMatP= 5.00D-05
 IDIUse=3 WtCom= 9.94D-01 WtEn= 5.85D-03
 Coeff-Com:  0.100D+01
 Coeff-En:   0.100D+01
 Coeff:      0.100D+01
 Gap=     0.513 Goal=   None    Shift=    0.000
 Gap=     0.513 Goal=   None    Shift=    0.000
 RMSDP=7.09D-05 MaxDP=1.45D-03              OVMax= 1.77D-03

 Cycle   2  Pass 1  IDiag  1:
 E= -80.4123473718616     Delta-E=       -0.000013787028 Rises=F Damp=F
 DIIS: error= 5.76D-05 at cycle   2 NSaved=   2.
 NSaved= 2 IEnMin= 2 EnMin= -80.4123473718616     IErMin= 2 ErrMin= 5.76D-05
 ErrMax= 5.76D-05  0.00D+00 EMaxC= 1.00D-01 BMatC= 1.10D-06 BMatP= 5.00D-05
 IDIUse=1 WtCom= 1.00D+00 WtEn= 0.00D+00
 Coeff-Com:  0.584D-02 0.994D+00
 Coeff:      0.584D-02 0.994D+00
 Gap=     0.151 Goal=   None    Shift=    0.000
 Gap=     0.151 Goal=   None    Shift=    0.000
 RMSDP=2.40D-05 MaxDP=6.08D-04 DE=-1.38D-05 OVMax= 5.55D-04

 Cycle   3  Pass 1  IDiag  1:
 E= -80.4123479277169     Delta-E=       -0.000000555855 Rises=F Damp=F
 DIIS: error= 2.81D-05 at cycle   3 NSaved=   3.
 NSaved= 3 IEnMin= 3 EnMin= -80.4123479277169     IErMin= 3 ErrMin= 2.81D-05
 ErrMax= 2.81D-05  0.00D+00 EMaxC= 1.00D-01 BMatC= 1.90D-07 BMatP= 1.10D-06
 IDIUse=1 WtCom= 1.00D+00 WtEn= 0.00D+00
 Coeff-Com: -0.148D-01 0.162D+00 0.852D+00
 Coeff:     -0.148D-01 0.162D+00 0.852D+00
 Gap=     0.151 Goal=   None    Shift=    0.000
 Gap=     0.151 Goal=   None    Shift=    0.000
 RMSDP=5.70D-06 MaxDP=9.60D-05 DE=-5.56D-07 OVMax= 1.59D-04

 Cycle   4  Pass 1  IDiag  1:
 E= -80.4123479960279     Delta-E=       -0.000000068311 Rises=F Damp=F
 DIIS: error= 1.09D-05 at cycle   4 NSaved=   4.
 NSaved= 4 IEnMin= 4 EnMin= -80.4123479960279     IErMin= 4 ErrMin= 1.09D-05
 ErrMax= 1.09D-05  0.00D+00 EMaxC= 1.00D-01 BMatC= 3.72D-08 BMatP= 1.90D-07
 IDIUse=1 WtCom= 1.00D+00 WtEn= 0.00D+00
 Coeff-Com: -0.381D-02-0.964D-01 0.220D+00 0.880D+00
 Coeff:     -0.381D-02-0.964D-01 0.220D+00 0.880D+00
 Gap=     0.151 Goal=   None    Shift=    0.000
 Gap=     0.151 Goal=   None    Shift=    0.000
 RMSDP=3.23D-06 MaxDP=6.31D-05 DE=-6.83D-08 OVMax= 8.51D-05

 Cycle   5  Pass 1  IDiag  1:
 E= -80.4123480107569     Delta-E=       -0.000000014729 Rises=F Damp=F
 DIIS: error= 2.14D-06 at cycle   5 NSaved=   5.
 NSaved= 5 IEnMin= 5 EnMin= -80.4123480107569     IErMin= 5 ErrMin= 2.14D-06
 ErrMax= 2.14D-06  0.00D+00 EMaxC= 1.00D-01 BMatC= 1.32D-09 BMatP= 3.72D-08
 IDIUse=1 WtCom= 1.00D+00 WtEn= 0.00D+00
 Coeff-Com:  0.114D-02-0.210D-01-0.470D-01 0.995D-01 0.967D+00
 Coeff:      0.114D-02-0.210D-01-0.470D-01 0.995D-01 0.967D+00
 Gap=     0.151 Goal=   None    Shift=    0.000
 Gap=     0.151 Goal=   None    Shift=    0.000
 RMSDP=8.43D-07 MaxDP=2.25D-05 DE=-1.47D-08 OVMax= 2.38D-05

 Cycle   6  Pass 1  IDiag  1:
 E= -80.4123480115506     Delta-E=       -0.000000000794 Rises=F Damp=F
 DIIS: error= 3.70D-07 at cycle   6 NSaved=   6.
 NSaved= 6 IEnMin= 6 EnMin= -80.4123480115506     IErMin= 6 ErrMin= 3.70D-07
 ErrMax= 3.70D-07  0.00D+00 EMaxC= 1.00D-01 BMatC= 4.13D-11 BMatP= 1.32D-09
 IDIUse=1 WtCom= 1.00D+00 WtEn= 0.00D+00
 Coeff-Com:  0.117D-03 0.400D-02-0.547D-02-0.354D-01-0.478D-01 0.108D+01
 Coeff:      0.117D-03 0.400D-02-0.547D-02-0.354D-01-0.478D-01 0.108D+01
 Gap=     0.151 Goal=   None    Shift=    0.000
 Gap=     0.151 Goal=   None    Shift=    0.000
 RMSDP=1.49D-07 MaxDP=2.11D-06 DE=-7.94D-10 OVMax= 6.42D-06

 Cycle   7  Pass 1  IDiag  1:
 E= -80.4123480116071     Delta-E=       -0.000000000056 Rises=F Damp=F
 DIIS: error= 1.84D-07 at cycle   7 NSaved=   7.
 NSaved= 7 IEnMin= 7 EnMin= -80.4123480116071     IErMin= 7 ErrMin= 1.84D-07
 ErrMax= 1.84D-07  0.00D+00 EMaxC= 1.00D-01 BMatC= 6.87D-12 BMatP= 4.13D-11
 IDIUse=1 WtCom= 1.00D+00 WtEn= 0.00D+00
 Coeff-Com: -0.144D-03 0.557D-03 0.506D-02 0.207D-02-0.592D-01-0.341D+00
 Coeff-Com:  0.139D+01
 Coeff:     -0.144D-03 0.557D-03 0.506D-02 0.207D-02-0.592D-01-0.341D+00
 Coeff:      0.139D+01
 Gap=     0.151 Goal=   None    Shift=    0.000
 Gap=     0.151 Goal=   None    Shift=    0.000
 RMSDP=6.41D-08 MaxDP=7.43D-07 DE=-5.65D-11 OVMax= 4.56D-06

 Cycle   8  Pass 1  IDiag  1:
 E= -80.4123480116214     Delta-E=       -0.000000000014 Rises=F Damp=F
 DIIS: error= 6.56D-08 at cycle   8 NSaved=   8.
 NSaved= 8 IEnMin= 8 EnMin= -80.4123480116214     IErMin= 8 ErrMin= 6.56D-08
 ErrMax= 6.56D-08  0.00D+00 EMaxC= 1.00D-01 BMatC= 9.88D-13 BMatP= 6.87D-12
 IDIUse=1 WtCom= 1.00D+00 WtEn= 0.00D+00
 Coeff-Com:  0.194D-04-0.893D-03-0.345D-03 0.621D-02 0.238D-01-0.103D+00
 Coeff-Com: -0.282D+00 0.136D+01
 Coeff:      0.194D-04-0.893D-03-0.345D-03 0.621D-02 0.238D-01-0.103D+00
 Coeff:     -0.282D+00 0.136D+01
 Gap=     0.151 Goal=   None    Shift=    0.000
 Gap=     0.151 Goal=   None    Shift=    0.000
 RMSDP=2.87D-08 MaxDP=3.34D-07 DE=-1.43D-11 OVMax= 2.05D-06

 Cycle   9  Pass 1  IDiag  1:
 E= -80.4123480116233     Delta-E=       -0.000000000002 Rises=F Damp=F
 DIIS: error= 1.30D-08 at cycle   9 NSaved=   9.
 NSaved= 9 IEnMin= 9 EnMin= -80.4123480116233     IErMin= 9 ErrMin= 1.30D-08
 ErrMax= 1.30D-08  0.00D+00 EMaxC= 1.00D-01 BMatC= 4.39D-14 BMatP= 9.88D-13
 IDIUse=1 WtCom= 1.00D+00 WtEn= 0.00D+00
 Coeff-Com:  0.119D-04-0.931D-04-0.323D-03 0.194D-03 0.550D-02 0.222D-01
 Coeff-Com: -0.125D+00 0.160D-01 0.108D+01
 Coeff:      0.119D-04-0.931D-04-0.323D-03 0.194D-03 0.550D-02 0.222D-01
 Coeff:     -0.125D+00 0.160D-01 0.108D+01
 Gap=     0.151 Goal=   None    Shift=    0.000
 Gap=     0.151 Goal=   None    Shift=    0.000
 RMSDP=6.56D-09 MaxDP=6.87D-08 DE=-1.92D-12 OVMax= 4.23D-07

 SCF Done:  E(UM062X) =  -80.4123480116     A.U. after    9 cycles
            NFock=  9  Conv=0.66D-08     -V/T= 2.0028
 <Sx>= 0.0000 <Sy>= 0.0000 <Sz>= 0.0000 <S**2>=-0.0000 S=-0.0000
 <L.S>=  0.00000000000    
 KE= 8.018681385552D+01 PE=-2.111456188458D+02 EE= 3.879426826401D+01
 Annihilation of the first spin contaminant:
 S**2 before annihilation    -0.0000,   after     0.0000
 Leave Link  502 at Mon Apr 21 18:09:10 2025, MaxMem=   536870912 cpu:              24.5 elap:               3.3
 (Enter /home/szhao/Apps/g16/l701.exe)
 ... and contract with generalized density number  0.
 Compute integral first derivatives.
 Leave Link  701 at Mon Apr 21 18:09:11 2025, MaxMem=   536870912 cpu:               1.0 elap:               0.2
 (Enter /home/szhao/Apps/g16/l702.exe)
 L702 exits ... SP integral derivatives will be done elsewhere.
 Leave Link  702 at Mon Apr 21 18:09:11 2025, MaxMem=   536870912 cpu:               0.4 elap:               0.1
 (Enter /home/szhao/Apps/g16/l703.exe)
 Integral derivatives from FoFJK, PRISM(SPDF).
 Compute integral first derivatives, UseDBF=F ICtDFT=           0.
 Calling FoFJK, ICntrl=      2127 FMM=F ISym2X=0 I1Cent= 0 IOpClX= 1 NMat=1 NMatS=1 NMatT=0.
 FoFJK:  IHMeth= 1 ICntrl=    2127 DoSepK=F KAlg= 0 I1Cent=           0 FoldK=F
 IRaf=         0 NMat=       1 IRICut=       1 DoRegI=T DoRafI=F ISym2E= 0 IDoP0=0 IntGTp=1.
 FoFCou: FMM=F IPFlag=           0 FMFlag=      100000 FMFlg1=         800
         NFxFlg=           0 DoJE=F BraDBF=F KetDBF=F FulRan=T
         wScrn=  0.000000 ICntrl=      2127 IOpCl=  1 I1Cent=           0 NGrid=           0
         NMat0=    1 NMatS0=      1 NMatT0=    0 NMatD0=    1 NMtDS0=    0 NMtDT0=    0
 Symmetry not used in FoFCou.
 Leave Link  703 at Mon Apr 21 18:09:12 2025, MaxMem=   536870912 cpu:               4.3 elap:               0.6
 (Enter /home/szhao/Apps/g16/l716.exe)
 Dipole        = 7.89392114D-02-1.94310650D-05 1.03343737D-10
 -------------------------------------------------------------------
 Center     Atomic                   Forces (Hartrees/Bohr)
 Number     Number              X              Y              Z
 -------------------------------------------------------------------
      1        5          -0.000000000   -0.000000000   -0.000000000
      2        7          -0.000000000   -0.000000000   -0.000000000
      3        1          -0.000198179   -0.000001580    0.000000000
      4        1          -0.000257673    0.000002638   -0.000000000
 -------------------------------------------------------------------
 Cartesian Forces:  Max     0.000257673 RMS     0.000093844
 Leave Link  716 at Mon Apr 21 18:09:12 2025, MaxMem=   536870912 cpu:               0.6 elap:               0.2
 (Enter /home/szhao/Apps/g16/l103.exe)

 GradGradGradGradGradGradGradGradGradGradGradGradGradGradGradGradGradGrad
 Berny optimization.
 Using GEDIIS/GDIIS optimizer.
 FormGI is forming the generalized inverse of G from B-inverse, IUseBI=4.
 Internal  Forces:  Max     0.000257673 RMS     0.000132715
 Search for a local minimum.
 Step number   3 out of a maximum of   22
 All quantities printed in internal units (Hartrees-Bohrs-Radians)
 RMS Force = .13272D-03 SwitMx=.10000D-02 MixMth= 2
 Mixed Optimization -- En-DIIS/RFO-DIIS
 Update second derivatives using D2CorX and points    1    2    3
 DE= -4.78D-05 DEPred=-3.92D-05 R= 1.22D+00
 TightC=F SS=  1.41D+00  RLast= 2.03D-02 DXNew= 6.7268D-01 6.0991D-02
 Trust test= 1.22D+00 RLast= 2.03D-02 DXMaxT set to 4.00D-01
 The second derivative matrix:
                          X1        Y1        Z1        X2        Y2
           X1           0.68603
           Y1           0.00011   0.50000
           Z1           0.00000   0.00000   0.50000
           X2          -0.13235  -0.00008  -0.00000   0.60170
           Y2           0.00002   0.00000   0.00000  -0.00001   0.50000
           Z2          -0.00000  -0.00000  -0.00000   0.00000  -0.00000
           R1          -0.13981  -0.00008  -0.00000   0.07102  -0.00002
           R2          -0.19520  -0.00011  -0.00000   0.18509  -0.00001
           A1           0.00002   0.00000   0.00000  -0.00001   0.00000
           A2          -0.00018  -0.00000  -0.00000   0.00018  -0.00000
           A3          -0.00000  -0.00000  -0.00000   0.00000  -0.00000
           A4          -0.00000  -0.00000  -0.00000   0.00000  -0.00000
                          Z2        R1        R2        A1        A2
           Z2           0.50000
           R1           0.00000   0.21225
           R2           0.00000  -0.02748   0.48789
           A1          -0.00000  -0.00002  -0.00001   0.00230
           A2           0.00000   0.00021   0.00015   0.00000   0.01106
           A3           0.00000   0.00000   0.00000  -0.00000   0.00000
           A4           0.00000   0.00000   0.00000  -0.00000   0.00000
                          A3        A4
           A3           0.00230
           A4           0.00000   0.01106
 ITU=  1  1  0
 Use linear search instead of GDIIS.
     Eigenvalues ---    0.00230   0.01014   0.01106   0.20954   0.49060
     Eigenvalues --- 1000.000001000.000001000.000001000.000001000.00000
     Eigenvalues --- 1000.000001000.00000
 RFO step:  Lambda=-2.45697811D-07 EMin= 2.30000000D-03
 Quartic linear search produced a step of  0.02464.
 Iteration  1 RMS(Cart)=  0.00037500 RMS(Int)=  0.00000005
 Iteration  2 RMS(Cart)=  0.00000008 RMS(Int)=  0.00000001
 ITry= 1 IFail=0 DXMaxC= 8.84D-04 DCOld= 1.00D+10 DXMaxT= 4.00D-01 DXLimC= 3.00D+00 Rises=F
 Variable       Old X    -DE/DX   Delta X   Delta X   Delta X     New X
                                 (Linear)    (Quad)   (Total)
    X1       -3.71722  -0.00020   0.00000   0.00000   0.00000  -3.71722
    Y1        0.00000   0.00000   0.00000   0.00000   0.00000   0.00000
    Z1        0.00000   0.00000   0.00000   0.00000   0.00000   0.00000
    X2        3.71722  -0.00026   0.00000   0.00000   0.00000   3.71722
    Y2        0.00000   0.00000   0.00000   0.00000   0.00000   0.00000
    Z2        0.00000  -0.00000   0.00000   0.00000   0.00000   0.00000
    R1        2.32996   0.00020   0.00048   0.00041   0.00088   2.33084
    R2        1.96395  -0.00026   0.00015  -0.00063  -0.00048   1.96348
    A1        3.14112   0.00000   0.00000   0.00013   0.00013   3.14125
    A2        3.14111  -0.00000  -0.00001  -0.00038  -0.00039   3.14072
    A3        3.14159  -0.00000   0.00000  -0.00000   0.00000   3.14159
    A4        3.14159  -0.00000   0.00000  -0.00000   0.00000   3.14159
         Item               Value     Threshold  Converged?
 Maximum Force            0.000258     0.000450     YES
 RMS     Force            0.000133     0.000300     YES
 Maximum Displacement     0.000884     0.001800     YES
 RMS     Displacement     0.000375     0.001200     YES
 Predicted change in Energy=-1.489173D-07
 Optimization completed.
    -- Stationary point found.
                           ----------------------------
                           !   Optimized Parameters   !
                           ! (Angstroms and Degrees)  !
 --------------------------                            --------------------------
 ! Name  Definition              Value          Derivative Info.                !
 --------------------------------------------------------------------------------
 ! X1    R(1,-1)                -1.9671         -DE/DX =   -0.0002              !
 ! Y1    R(1,-2)                 0.0            -DE/DX =    0.0                 !
 ! Z1    R(1,-3)                 0.0            -DE/DX =    0.0                 !
 ! X2    R(2,-1)                 1.9671         -DE/DX =   -0.0003              !
 ! Y2    R(2,-2)                 0.0            -DE/DX =    0.0                 !
 ! Z2    R(2,-3)                 0.0            -DE/DX =    0.0                 !
 ! R1    R(1,3)                  1.233          -DE/DX =    0.0002              !
 ! R2    R(2,4)                  1.0393         -DE/DX =   -0.0003              !
 ! A1    L(2,1,3,-3,-1)        179.9727         -DE/DX =    0.0                 !
 ! A2    L(1,2,4,-3,-1)        179.9724         -DE/DX =    0.0                 !
 ! A3    L(2,1,3,-2,-2)        180.0            -DE/DX =    0.0                 !
 ! A4    L(1,2,4,-2,-2)        180.0            -DE/DX =    0.0                 !
 --------------------------------------------------------------------------------
 Lowest energy point so far.  Saving SCF results.
 Largest change from initial coordinates is atom    3       0.045 Angstoms.
 GradGradGradGradGradGradGradGradGradGradGradGradGradGradGradGradGradGrad

 Leave Link  103 at Mon Apr 21 18:09:13 2025, MaxMem=   536870912 cpu:               0.9 elap:               0.3
 (Enter /home/szhao/Apps/g16/l202.exe)
                          Input orientation:                          
 ---------------------------------------------------------------------
 Center     Atomic      Atomic             Coordinates (Angstroms)
 Number     Number       Type             X           Y           Z
 ---------------------------------------------------------------------
      1          5           0       -1.967066    0.000000    0.000000
      2          7           0        1.967066    0.000000    0.000000
      3          1           0       -3.200025   -0.000587    0.000000
      4          1           0        3.006345    0.000500    0.000000
 ---------------------------------------------------------------------
                    Distance matrix (angstroms):
                    1          2          3          4
     1  B    0.000000
     2  N    3.934132   0.000000
     3  H    1.232959   5.167091   0.000000
     4  H    4.973411   1.039279   6.206370   0.000000
 Symmetry turned off by external request.
 This structure is nearly, but not quite of a higher symmetry.
 Consider Symm=Loose if the higher symmetry is desired.
 Stoichiometry    BH2N
 Framework group  CS[SG(BH2N)]
 Deg. of freedom     5
 Full point group                 CS      NOp   2
 Rotational constants (GHZ):  1017610702.9484366           4.3941693           4.3941692
 Leave Link  202 at Mon Apr 21 18:09:13 2025, MaxMem=   536870912 cpu:               0.3 elap:               0.1
 (Enter /home/szhao/Apps/g16/l601.exe)
 Copying SCF densities to generalized density rwf, IOpCl= 1 IROHF=0.

 **********************************************************************

            Population analysis using the SCF density.

 **********************************************************************

 Alpha  occ. eigenvalues --  -14.82576  -7.12036  -0.89049  -0.54244  -0.45566
 Alpha  occ. eigenvalues --   -0.33226  -0.27236
 Alpha virt. eigenvalues --   -0.12097  -0.03981  -0.03936   0.02598   0.04010
 Alpha virt. eigenvalues --    0.06649   0.06751   0.09567   0.13841   0.14868
 Alpha virt. eigenvalues --    0.16981   0.19417   0.25266   0.38645   0.42487
 Alpha virt. eigenvalues --    0.42542   0.48953   0.56709   0.60075   0.79691
 Alpha virt. eigenvalues --    0.80941   0.82174   0.84209   0.84842   0.86343
 Alpha virt. eigenvalues --    0.86343   1.07894   1.15563   1.30122   1.31822
 Alpha virt. eigenvalues --    1.66117   1.66128   1.84958   1.84975   1.91258
 Alpha virt. eigenvalues --    1.94612   1.99728   2.02032   2.33438   2.34362
 Alpha virt. eigenvalues --    2.38634   2.51169   2.62614   2.97228   3.80614
 Alpha virt. eigenvalues --    3.84885   4.37300  14.20182  35.39636
  Beta  occ. eigenvalues --  -14.82576  -7.12036  -0.89049  -0.54244  -0.45566
  Beta  occ. eigenvalues --   -0.33226  -0.27236
  Beta virt. eigenvalues --   -0.12097  -0.03981  -0.03936   0.02598   0.04010
  Beta virt. eigenvalues --    0.06649   0.06751   0.09567   0.13841   0.14868
  Beta virt. eigenvalues --    0.16981   0.19417   0.25266   0.38645   0.42487
  Beta virt. eigenvalues --    0.42542   0.48953   0.56709   0.60075   0.79691
  Beta virt. eigenvalues --    0.80941   0.82174   0.84209   0.84842   0.86343
  Beta virt. eigenvalues --    0.86343   1.07894   1.15563   1.30122   1.31822
  Beta virt. eigenvalues --    1.66117   1.66128   1.84958   1.84975   1.91258
  Beta virt. eigenvalues --    1.94612   1.99728   2.02032   2.33438   2.34362
  Beta virt. eigenvalues --    2.38634   2.51169   2.62614   2.97228   3.80614
  Beta virt. eigenvalues --    3.84885   4.37300  14.20182  35.39636
          Condensed to atoms (all electrons):
               1          2          3          4
     1  B    4.892303  -0.024448   0.142430  -0.000114
     2  N   -0.024448   7.012613   0.001614   0.203844
     3  H    0.142430   0.001614   0.864758   0.000007
     4  H   -0.000114   0.203844   0.000007   0.583660
          Atomic-Atomic Spin Densities.
               1          2          3          4
     1  B    0.000000   0.000000  -0.000000   0.000000
     2  N    0.000000   0.000000  -0.000000  -0.000000
     3  H   -0.000000  -0.000000   0.000000  -0.000000
     4  H    0.000000  -0.000000  -0.000000  -0.000000
 Mulliken charges and spin densities:
               1          2
     1  B   -0.010170   0.000000
     2  N   -0.193624   0.000000
     3  H   -0.008808  -0.000000
     4  H    0.212602  -0.000000
 Sum of Mulliken charges =  -0.00000   0.00000
 Mulliken charges and spin densities with hydrogens summed into heavy atoms:
               1          2
     1  B   -0.018979   0.000000
     2  N    0.018979   0.000000
 Electronic spatial extent (au):  <R**2>=            257.1402
 Charge=             -0.0000 electrons
 Dipole moment (field-independent basis, Debye):
    X=              0.2006    Y=             -0.0000    Z=              0.0000  Tot=              0.2006
 Quadrupole moment (field-independent basis, Debye-Ang):
   XX=             -3.2436   YY=            -11.8593   ZZ=            -15.1388
   XY=              0.0015   XZ=              0.0000   YZ=             -0.0000
 Traceless Quadrupole moment (field-independent basis, Debye-Ang):
   XX=              6.8370   YY=             -1.7787   ZZ=             -5.0582
   XY=              0.0015   XZ=              0.0000   YZ=             -0.0000
 Octapole moment (field-independent basis, Debye-Ang**2):
  XXX=             28.3136  YYY=             -0.0011  ZZZ=              0.0000  XYY=              2.8730
  XXY=              0.0059  XXZ=              0.0000  XZZ=             -3.6468  YZZ=             -0.0004
  YYZ=              0.0000  XYZ=             -0.0000
 Hexadecapole moment (field-independent basis, Debye-Ang**3):
 XXXX=           -312.9038 YYYY=            -14.3824 ZZZZ=            -20.7454 XXXY=             -0.0156
 XXXZ=              0.0000 YYYX=             -0.0061 YYYZ=             -0.0000 ZZZX=              0.0000
 ZZZY=             -0.0000 XXYY=            -55.7995 XXZZ=            -69.8236 YYZZ=             -5.8546
 XXYZ=             -0.0000 YYXZ=              0.0000 ZZXY=             -0.0021
 N-N= 1.175218871465D+01 E-N=-2.111456190463D+02  KE= 8.018681385552D+01
                          Isotropic Fermi Contact Couplings
        Atom                 a.u.       MegaHertz       Gauss      10(-4) cm-1
     1  B(11)              0.00000       0.00000       0.00000       0.00000
     2  N(14)              0.00000       0.00000       0.00000       0.00000
     3  H(1)               0.00000       0.00000       0.00000       0.00000
     4  H(1)               0.00000       0.00000       0.00000       0.00000
 --------------------------------------------------------
       Center         ----  Spin Dipole Couplings  ----
                      3XX-RR        3YY-RR        3ZZ-RR
 --------------------------------------------------------
     1   Atom       -0.000000      0.000000      0.000000
     2   Atom       -0.000000      0.000000      0.000000
     3   Atom        0.000000     -0.000000     -0.000000
     4   Atom        0.000000     -0.000000     -0.000000
 --------------------------------------------------------
                        XY            XZ            YZ
 --------------------------------------------------------
     1   Atom        0.000000     -0.000000      0.000000
     2   Atom       -0.000000     -0.000000      0.000000
     3   Atom        0.000000     -0.000000      0.000000
     4   Atom        0.000000     -0.000000      0.000000
 --------------------------------------------------------


 ---------------------------------------------------------------------------------
              Anisotropic Spin Dipole Couplings in Principal Axis System
 ---------------------------------------------------------------------------------

       Atom             a.u.   MegaHertz   Gauss  10(-4) cm-1        Axes

              Baa    -0.0000    -0.000    -0.000    -0.000  0.0017 -0.7071  0.7071
     1 B(11)  Bbb    -0.0000    -0.000    -0.000    -0.000  1.0000  0.0023 -0.0000
              Bcc     0.0000     0.000     0.000     0.000 -0.0017  0.7071  0.7071
 
              Baa    -0.0000    -0.000    -0.000    -0.000 -0.0004  0.7071 -0.7071
     2 N(14)  Bbb    -0.0000    -0.000    -0.000    -0.000  1.0000  0.0005  0.0000
              Bcc     0.0000     0.000     0.000     0.000 -0.0004  0.7071  0.7071
 
              Baa    -0.0000    -0.000    -0.000    -0.000 -0.0007  0.7071 -0.7071
     3 H(1)   Bbb     0.0000     0.000     0.000     0.000  1.0000  0.0010  0.0000
              Bcc     0.0000     0.000     0.000     0.000 -0.0007  0.7071  0.7071
 
              Baa    -0.0000    -0.000    -0.000    -0.000 -0.0003  0.7071 -0.7071
     4 H(1)   Bbb     0.0000     0.000     0.000     0.000  1.0000  0.0004 -0.0000
              Bcc     0.0000     0.000     0.000     0.000 -0.0003  0.7071  0.7071
 

 ---------------------------------------------------------------------------------

 No NMR shielding tensors so no spin-rotation constants.
 Leave Link  601 at Mon Apr 21 18:09:14 2025, MaxMem=   536870912 cpu:               2.4 elap:               0.4
 (Enter /home/szhao/Apps/g16/l9999.exe)
 1\1\GINC-NODE05\FOpt\UM062X\6-311+G(d,p)\B1H2N1\SZHAO\21-Apr-2025\0\\#
 p opt UM062X/6-311+G** nosymm int=superfine\\Title Card Required\\0,1\
 B,-1.96706583,0.,0.\N,1.96706583,0.,0.\H,-3.2000250593,-0.0005865041,0
 .0000000001\H,3.006345056,0.0005003112,0.0000000001\\Version=ES64L-G16
 RevA.03\HF=-80.412348\S2=0.\S2-1=0.\S2A=0.\RMSD=6.558e-09\RMSF=9.384e-
 05\Dipole=0.0789392,-0.0000194,0.\Quadrupole=5.0831052,-1.3224426,-3.7
 606626,0.001137,0.,-0.0000003\PG=CS [SG(B1H2N1)]\\@


 ...THE PHYSICISTS HAVE MADE THEIR UNIVERSE, AND IF YOU DO NOT LIKE
 IT, YOU MUST MAKE YOUR OWN.
                               -- E. R. HARRISON IN "COSMOLOGY" (1980)
 Job cpu time:       0 days  0 hours  2 minutes 23.8 seconds.
 Elapsed time:       0 days  0 hours  0 minutes 21.0 seconds.
 File lengths (MBytes):  RWF=     17 Int=      0 D2E=      0 Chk=      2 Scr=      2
 Normal termination of Gaussian 16 at Mon Apr 21 18:09:14 2025.
