Title Card Required                                                     
FOpt      UM062X                                                      6-311+G(d,p)        
Number of atoms                            I                4
Info1-9                                    I   N=           9
          13          13           0           0           0         110
           2          18        -502
Full Title                                 C   N=           2
Title Card Required     
Route                                      C   N=           5
#p opt UM062X/6-311+G** nosymm int=superfine SCF=NoVarAcc   
Charge                                     I                1
Multiplicity                               I                2
Number of electrons                        I               13
Number of alpha electrons                  I                7
Number of beta electrons                   I                6
Number of basis functions                  I               56
Number of independent functions            I               56
Number of point charges in /Mol/           I                0
Number of translation vectors              I                0
Atomic numbers                             I   N=           4
           6           6           1           1
Nuclear charges                            R   N=           4
  6.00000000E+00  6.00000000E+00  1.00000000E+00  1.00000000E+00
Current cartesian coordinates              R   N=          12
 -1.58399867E+01  0.00000000E+00  0.00000000E+00  1.58399867E+01  0.00000000E+00
  0.00000000E+00 -1.79528138E+01  7.21423363E-14 -5.73776630E-13  1.79528120E+01
  1.00241029E-13 -2.86416969E-14
Number of symbols in /Mol/                 I                0
Force Field                                I                0
Atom Types                                 C   N=           4
                                                
Int Atom Types                             I   N=           4
           0           0           0           0
MM charges                                 R   N=           4
  0.00000000E+00  0.00000000E+00  0.00000000E+00  0.00000000E+00
Integer atomic weights                     I   N=           4
          12          12           1           1
Real atomic weights                        R   N=           4
  1.20000000E+01  1.20000000E+01  1.00782504E+00  1.00782504E+00
Atom fragment info                         I   N=           4
           0           0           0           0
Atom residue num                           I   N=           4
           0           0           0           0
Nuclear spins                              I   N=           4
           0           0           1           1
Nuclear ZEff                               R   N=           4
 -3.60000000E+00 -3.60000000E+00 -1.00000000E+00 -1.00000000E+00
Nuclear ZNuc                               R   N=           4
  6.00000000E+00  6.00000000E+00  1.00000000E+00  1.00000000E+00
Nuclear QMom                               R   N=           4
  0.00000000E+00  0.00000000E+00  0.00000000E+00  0.00000000E+00
Nuclear GFac                               R   N=           4
  0.00000000E+00  0.00000000E+00  2.79284600E+00  2.79284600E+00
MicOpt                                     I   N=           4
          -2          -2          -1          -1
Number of residues                         I                0
Number of secondary structures             I                0
Redundant internal dimensions              I   N=           4
          12           8           4           0
Redundant internal coordinate indices      I   N=          48
           1          -1           0           0           1          -2
           0           0           1          -3           0           0
           2          -1           0           0           2          -2
           0           0           2          -3           0           0
           1           3           0           0           2           4
           0           0           2           1           3          -4
           1           2           4          -4           2           1
           3          -8           1           2           4          -8
Redundant internal coordinates             R   N=          12
 -1.58399867E+01  0.00000000E+00  0.00000000E+00  1.58399867E+01  0.00000000E+00
  0.00000000E+00  2.11282705E+00  2.11282528E+00  3.14159265E+00  3.14159263E+00
  3.14159265E+00  3.14159263E+00
ZRed-IntVec                                I   N=          12
          -1          -1          -1          -1          -1          -1
           0           0           0           0           0           0
ZRed-FPVec                                 R   N=          12
  0.00000000E+00  0.00000000E+00  0.00000000E+00  0.00000000E+00  0.00000000E+00
  0.00000000E+00  0.00000000E+00  0.00000000E+00  0.00000000E+00  0.00000000E+00
  0.00000000E+00  0.00000000E+00
ZRed-Constraint1                           R   N=          12
 -1.58399867E+01  0.00000000E+00  0.00000000E+00  1.58399867E+01  0.00000000E+00
  0.00000000E+00  2.08057524E+00  2.08053366E+00  3.14159265E+00  3.14159265E+00
  3.14159265E+00  3.14159265E+00
ZRed-Constraint2                           R   N=          12
 -1.58399867E+01  0.00000000E+00  0.00000000E+00  1.58399867E+01  0.00000000E+00
  0.00000000E+00  0.00000000E+00  0.00000000E+00  0.00000000E+00  0.00000000E+00
  0.00000000E+00  0.00000000E+00
Number of contracted shells                I               20
Number of primitive shells                 I               38
Pure/Cartesian d shells                    I                0
Pure/Cartesian f shells                    I                0
Highest angular momentum                   I                2
Largest degree of contraction              I                6
Shell types                                I   N=          20
           0          -1          -1          -1          -1          -2
           0          -1          -1          -1          -1          -2
           0           0           0           1           0           0
           0           1
Number of primitives per shell             I   N=          20
           6           3           1           1           1           1
           6           3           1           1           1           1
           3           1           1           1           3           1
           1           1
Shell to atom map                          I   N=          20
           1           1           1           1           1           1
           2           2           2           2           2           2
           3           3           3           3           4           4
           4           4
Primitive exponents                        R   N=          38
  4.56324000E+03  6.82024000E+02  1.54973000E+02  4.44553000E+01  1.30290000E+01
  1.82773000E+00  2.09642000E+01  4.80331000E+00  1.45933000E+00  4.83456000E-01
  1.45585000E-01  4.38000000E-02  6.26000000E-01  4.56324000E+03  6.82024000E+02
  1.54973000E+02  4.44553000E+01  1.30290000E+01  1.82773000E+00  2.09642000E+01
  4.80331000E+00  1.45933000E+00  4.83456000E-01  1.45585000E-01  4.38000000E-02
  6.26000000E-01  3.38650000E+01  5.09479000E+00  1.15879000E+00  3.25840000E-01
  1.02741000E-01  7.50000000E-01  3.38650000E+01  5.09479000E+00  1.15879000E+00
  3.25840000E-01  1.02741000E-01  7.50000000E-01
Contraction coefficients                   R   N=          38
  1.96665025E-03  1.52306019E-02  7.61269097E-02  2.60801033E-01  6.16462078E-01
  2.21006028E-01  1.14660081E-01  9.19999648E-01 -3.03068213E-03  1.00000000E+00
  1.00000000E+00  1.00000000E+00  1.00000000E+00  1.96665025E-03  1.52306019E-02
  7.61269097E-02  2.60801033E-01  6.16462078E-01  2.21006028E-01  1.14660081E-01
  9.19999648E-01 -3.03068213E-03  1.00000000E+00  1.00000000E+00  1.00000000E+00
  1.00000000E+00  2.54938145E-02  1.90373109E-01  8.52161486E-01  1.00000000E+00
  1.00000000E+00  1.00000000E+00  2.54938145E-02  1.90373109E-01  8.52161486E-01
  1.00000000E+00  1.00000000E+00  1.00000000E+00
P(S=P) Contraction coefficients            R   N=          38
  0.00000000E+00  0.00000000E+00  0.00000000E+00  0.00000000E+00  0.00000000E+00
  0.00000000E+00  4.02486927E-02  2.37593957E-01  8.15853851E-01  1.00000000E+00
  1.00000000E+00  1.00000000E+00  0.00000000E+00  0.00000000E+00  0.00000000E+00
  0.00000000E+00  0.00000000E+00  0.00000000E+00  0.00000000E+00  4.02486927E-02
  2.37593957E-01  8.15853851E-01  1.00000000E+00  1.00000000E+00  1.00000000E+00
  0.00000000E+00  0.00000000E+00  0.00000000E+00  0.00000000E+00  0.00000000E+00
  0.00000000E+00  0.00000000E+00  0.00000000E+00  0.00000000E+00  0.00000000E+00
  0.00000000E+00  0.00000000E+00  0.00000000E+00
Coordinates of each shell                  R   N=          60
 -1.58399867E+01  0.00000000E+00  0.00000000E+00 -1.58399867E+01  0.00000000E+00
  0.00000000E+00 -1.58399867E+01  0.00000000E+00  0.00000000E+00 -1.58399867E+01
  0.00000000E+00  0.00000000E+00 -1.58399867E+01  0.00000000E+00  0.00000000E+00
 -1.58399867E+01  0.00000000E+00  0.00000000E+00  1.58399867E+01  0.00000000E+00
  0.00000000E+00  1.58399867E+01  0.00000000E+00  0.00000000E+00  1.58399867E+01
  0.00000000E+00  0.00000000E+00  1.58399867E+01  0.00000000E+00  0.00000000E+00
  1.58399867E+01  0.00000000E+00  0.00000000E+00  1.58399867E+01  0.00000000E+00
  0.00000000E+00 -1.79528138E+01  7.21423363E-14 -5.73776630E-13 -1.79528138E+01
  7.21423363E-14 -5.73776630E-13 -1.79528138E+01  7.21423363E-14 -5.73776630E-13
 -1.79528138E+01  7.21423363E-14 -5.73776630E-13  1.79528120E+01  1.00241029E-13
 -2.86416969E-14  1.79528120E+01  1.00241029E-13 -2.86416969E-14  1.79528120E+01
  1.00241029E-13 -2.86416969E-14  1.79528120E+01  1.00241029E-13 -2.86416969E-14
Num ILSW                                   I              100
ILSW                                       I   N=         100
           1           0           0           0           2           0
           0           0           0           0        4336          -1
           7           0           0           0           2           0
           0           0           0           0           1           0
           1           1           0           0           0           0
           0           0      100000           0          -1           0
           0           0           0           0           0           0
           0           0           0           1           0           0
           0 -2000000000           1           0           0           0
           0           0           4          52           0           0
           0           0          55           0           0           0
           0           0           0           4           0           1
           0           0           0           0           0           0
           0           0           0           0           0           0
           0           0           0           0           0           0
           0           0           0           0           0           0
           0           0           0           0
Num RLSW                                   I               52
RLSW                                       R   N=          52
  1.00000000E+00  1.00000000E+00  1.00000000E+00  1.00000000E+00  5.40000000E-01
  0.00000000E+00  0.00000000E+00  1.00000000E+00  0.00000000E+00  0.00000000E+00
  0.00000000E+00  0.00000000E+00  1.00000000E+00  0.00000000E+00  0.00000000E+00
  0.00000000E+00  0.00000000E+00  1.00000000E+00  0.00000000E+00  0.00000000E+00
  0.00000000E+00  0.00000000E+00  1.00000000E+00  0.00000000E+00  0.00000000E+00
  0.00000000E+00  0.00000000E+00  1.00000000E+00  0.00000000E+00  0.00000000E+00
  0.00000000E+00  0.00000000E+00  1.00000000E+00  0.00000000E+00  0.00000000E+00
  0.00000000E+00  0.00000000E+00  0.00000000E+00  1.00000000E+00  1.00000000E+00
  0.00000000E+00  1.00000000E+00  0.00000000E+00  0.00000000E+00  0.00000000E+00
  0.00000000E+00  0.00000000E+00  0.00000000E+00  0.00000000E+00  0.00000000E+00
  0.00000000E+00  0.00000000E+00
MxBond                                     I                2
NBond                                      I   N=           4
           2           2           1           1
IBond                                      I   N=           8
           2           3           1           4           1           0
           2           0
RBond                                      R   N=           8
  1.00000000E-01  1.00000000E+00  1.00000000E-01  1.00000000E+00  1.00000000E+00
  0.00000000E+00  1.00000000E+00  0.00000000E+00
Virial Ratio                               R      2.002700540136385E+00
SCF Energy                                 R     -7.658523336716699E+01
Total Energy                               R     -7.658523336716699E+01
S**2                                       R      7.512981379909762E-01
S**2 after annihilation                    R      7.500012125452346E-01
RMS Force                                  R      1.419789864472733E-04
RMS Density                                R      6.136140372536439E-09
Job Status                                 I                1
Nuclear derivative order                   I                1
External E-field                           R   N=          35
  0.00000000E+00  0.00000000E+00  0.00000000E+00  0.00000000E+00  0.00000000E+00
  0.00000000E+00  0.00000000E+00  0.00000000E+00  0.00000000E+00  0.00000000E+00
  0.00000000E+00  0.00000000E+00  0.00000000E+00  0.00000000E+00  0.00000000E+00
  0.00000000E+00  0.00000000E+00  0.00000000E+00  0.00000000E+00  0.00000000E+00
  0.00000000E+00  0.00000000E+00  0.00000000E+00  0.00000000E+00  0.00000000E+00
  0.00000000E+00  0.00000000E+00  0.00000000E+00  0.00000000E+00  0.00000000E+00
  0.00000000E+00  0.00000000E+00  0.00000000E+00  0.00000000E+00  0.00000000E+00
IOpCl                                      I                1
IROHF                                      I                0
Alpha Orbital Energies                     R   N=          56
 -1.09066214E+01 -1.09066213E+01 -9.44629127E-01 -9.44619151E-01 -5.94679709E-01
 -5.94675939E-01 -4.14448339E-01 -3.97485126E-01 -2.93939389E-01 -2.93939354E-01
 -8.45350014E-02 -8.45315311E-02 -3.10419356E-02 -3.10419110E-02 -2.93648608E-02
 -2.93647911E-02 -2.80928120E-02 -2.80912114E-02  2.97820320E-02  2.97833625E-02
  3.12371475E-01  3.12373392E-01  4.05419015E-01  4.05419065E-01  4.14494060E-01
  4.14494083E-01  4.40929923E-01  4.40930231E-01  5.07765320E-01  5.07767525E-01
  9.30831857E-01  9.30831911E-01  9.32758583E-01  9.32772680E-01  1.11558002E+00
  1.11558700E+00  1.12591641E+00  1.12592326E+00  1.39088291E+00  1.39088360E+00
  1.66369750E+00  1.66369818E+00  1.66647613E+00  1.66647747E+00  2.19438492E+00
  2.19438573E+00  2.31422679E+00  2.31422683E+00  2.47699781E+00  2.47699791E+00
  2.49132999E+00  2.49133001E+00  2.97069019E+00  2.97069068E+00  2.32765520E+01
  2.32765534E+01
Beta Orbital Energies                      R   N=          56
 -1.09024766E+01 -1.09024765E+01 -9.21023150E-01 -9.21022885E-01 -5.80748312E-01
 -5.80748272E-01 -2.75124402E-01 -2.75124374E-01 -2.58801689E-01 -2.58801658E-01
 -8.65023400E-02 -8.65023211E-02 -2.82607563E-02 -2.82607272E-02 -2.30680871E-02
 -2.30680752E-02 -1.38043290E-02 -1.38043161E-02  4.78174240E-02  4.78177008E-02
  3.05799330E-01  3.05799452E-01  4.10047643E-01  4.10047662E-01  4.12615120E-01
  4.12615142E-01  4.70856064E-01  4.70856294E-01  5.28880923E-01  5.28881341E-01
  1.00177886E+00  1.00177912E+00  1.01080276E+00  1.01080302E+00  1.14819311E+00
  1.14819311E+00  1.14829579E+00  1.14829580E+00  1.39488997E+00  1.39489037E+00
  1.68081176E+00  1.68081246E+00  1.68758636E+00  1.68758706E+00  2.35218136E+00
  2.35218178E+00  2.36157049E+00  2.36157243E+00  2.50311446E+00  2.50311452E+00
  2.52667484E+00  2.52667491E+00  3.06372262E+00  3.06372396E+00  2.32896629E+01
  2.32896644E+01
Alpha MO coefficients                      R   N=        3136
  5.02314683E-01  4.13844170E-01 -1.81221018E-03 -9.59336795E-15 -1.04011459E-15
  8.32290914E-03 -1.05160952E-03  2.30686347E-14  2.14522011E-15 -3.52988265E-03
 -6.64869768E-05 -8.46583918E-15 -4.23952808E-16  3.86509153E-04  5.74978070E-04
  2.79833114E-15  3.30462877E-16 -4.45193997E-04  3.47999105E-15  3.63591260E-06
  7.34961090E-04  2.43406599E-14  2.56512861E-01  2.11334359E-01  9.25426455E-04
 -2.76989419E-15 -1.89185829E-15  4.25018896E-03  5.37023798E-04  8.20627709E-15
  3.23253695E-15 -1.80251697E-03  3.39692410E-05 -2.65534302E-15 -1.43769385E-15
  1.97401455E-04 -2.93617923E-04  9.49033689E-16  4.97996739E-16 -2.27330957E-04
 -6.48568322E-16  1.79291386E-06  3.75317656E-04 -1.09217296E-14  3.28548698E-04
 -2.33951055E-03  1.94562823E-03 -1.64571087E-03  9.78374365E-16 -1.00758831E-15
  1.67778664E-04 -1.19472320E-03  9.93537227E-04  8.40408123E-04  7.13514674E-16
 -7.89421978E-16 -2.56512868E-01 -2.11334370E-01  9.25426864E-04  5.18641730E-15
  5.07815558E-16 -4.25020137E-03  5.37013185E-04 -1.23757697E-14 -1.40373786E-15
  1.80267447E-03  3.39238636E-05  4.47716498E-15  7.99240630E-16 -1.97327700E-04
 -2.93622967E-04 -2.03031215E-15 -2.98415586E-16  2.27384801E-04 -1.78982579E-15
 -1.86454464E-06 -3.75308778E-04 -1.24527189E-14  5.02314685E-01  4.13844176E-01
  1.81221155E-03 -7.58612332E-15  6.18424620E-16  8.32292612E-03  1.05161657E-03
  1.87019501E-14  9.98005423E-16 -3.52996053E-03  6.64642630E-05 -6.34686065E-15
 -5.36216108E-16  3.86466701E-04 -5.74982664E-04  2.14406760E-15  2.53670314E-16
 -4.45250242E-04 -2.87292332E-15  3.52628220E-06  7.34948348E-04 -2.10153750E-14
 -1.67773388E-04  1.19466939E-03 -9.93600087E-04  8.40397443E-04 -6.58824570E-16
  5.18735187E-16  3.28543971E-04 -2.33950228E-03  1.94567076E-03  1.64571593E-03
  8.70863142E-16  4.64156020E-16 -7.87864533E-02 -1.28622061E-01 -5.57645018E-02
  7.16569045E-13  7.32386945E-14  3.79302510E-01 -8.55502133E-02  1.46438174E-12
  1.52142549E-13  2.39539894E-01 -3.19417804E-02  3.91140365E-13  6.80853815E-14
 -5.40483468E-03 -2.26142804E-03 -7.47343923E-16 -9.37077969E-15 -3.91904422E-03
  3.64285352E-14 -7.21259258E-05  7.50765157E-03  1.72341563E-13 -8.06595776E-02
 -1.31680010E-01  5.70904646E-02  6.22276566E-13  7.34635693E-14  3.88320320E-01
  8.75843508E-02  1.09828002E-12  1.31931604E-13  2.45234512E-01  3.27011550E-02
  4.00249202E-13  5.77189890E-14 -5.53353728E-03  2.31518075E-03 -3.57631494E-14
 -6.39067721E-15 -4.01190213E-03 -3.75416991E-14 -7.14816689E-05  7.68639474E-03
 -1.69827058E-13  9.73767627E-02  1.21080226E-01 -1.95625180E-03  1.66593954E-02
 -1.86090212E-13 -7.38356296E-14  9.96920845E-02  1.23959174E-01 -2.00261783E-03
 -1.70555017E-02 -1.47069967E-13 -2.81594154E-14 -8.06592824E-02 -1.31679643E-01
 -5.70928902E-02  7.33602941E-13  7.53147554E-14  3.88322218E-01 -8.75876199E-02
  1.49890089E-12  1.55748631E-13  2.45224141E-01 -3.26990476E-02  4.00641017E-13
  6.97975469E-14 -5.54236877E-03 -2.31454131E-03 -1.14417123E-15 -9.42337565E-15
 -4.01539061E-03  3.72112347E-14 -7.32733159E-05  7.68589483E-03  1.76288078E-13
  7.87861108E-02  1.28621609E-01 -5.57671814E-02 -6.09170704E-13 -7.09474626E-14
 -3.79304116E-01 -8.55537518E-02 -1.07121579E-12 -1.28753223E-13 -2.39528874E-01
 -3.19396382E-02 -3.91626449E-13 -5.55433981E-14  5.41385643E-03 -2.26077833E-03
  3.51300915E-14  6.29850411E-15  3.92183130E-03  3.66708947E-14  6.92674605E-05
 -7.50764846E-03  1.65456464E-13  9.96938755E-02  1.23965783E-01 -1.99566051E-03
  1.70561671E-02 -1.90738354E-13 -7.57200662E-14 -9.73788720E-02 -1.21087189E-01
  1.94917481E-03  1.66601006E-02  1.42976895E-13  2.74694931E-14 -4.24447983E-02
 -7.07643254E-02  1.64978424E-01  5.26170156E-12  7.31206844E-13  2.19339018E-01
  2.44063638E-01  7.91035446E-12  1.17105977E-12  2.62271352E-01  1.39458741E-01
  6.01036458E-12  7.73385315E-13  1.79618730E-02 -2.20995451E-03 -1.66713221E-13
 -4.53798515E-15  1.47989668E-02  1.97448667E-14 -1.13741963E-06 -2.56212339E-02
 -6.64396397E-14 -4.30693979E-02 -7.18056661E-02 -1.67405981E-01  4.57546004E-12
  5.08066341E-13  2.22566748E-01 -2.47654833E-01  7.46257860E-12  8.31586785E-13
  2.66130798E-01 -1.41510739E-01  4.98043270E-12  5.39165133E-13  1.82260536E-02
  2.24247148E-03 -3.87402663E-15 -1.95124938E-15  1.50167035E-02 -2.62268965E-14
 -1.11822304E-06 -2.59982455E-02  7.23576109E-14 -9.47032139E-02 -1.70810409E-01
 -7.86210422E-02 -7.83103873E-03  3.28925868E-13  4.27496564E-14 -9.60966426E-02
 -1.73323599E-01 -7.97778114E-02  7.94624438E-03  2.77853571E-13  4.42541703E-14
 -4.30711483E-02 -7.18086315E-02  1.67405296E-01  5.33863444E-12  7.42263453E-13
  2.22578044E-01  2.47654042E-01  8.02657341E-12  1.18872630E-12  2.66130291E-01
  1.41514495E-01  6.09876914E-12  7.85199289E-13  1.82165605E-02 -2.24180545E-03
 -1.69675204E-13 -4.57791828E-15  1.50144989E-02  2.03372803E-14 -7.35949488E-07
 -2.59986131E-02 -6.74279882E-14  4.24466301E-02  7.07674316E-02  1.64977779E-01
 -4.51153243E-12 -4.99456325E-13 -2.19350762E-01  2.44062799E-01 -7.35959206E-12
 -8.17468073E-13 -2.62271458E-01  1.39462364E-01 -4.91254888E-12 -5.29536756E-13
 -1.79522893E-02 -2.20929625E-03  2.98048944E-15  2.12733526E-15 -1.47967553E-02
  2.52705461E-14  6.89891218E-07  2.56216219E-02 -7.16973680E-14 -9.60946686E-02
 -1.73318359E-01 -7.97722314E-02 -7.94552633E-03  3.33756427E-13  4.39830514E-14
  9.47011449E-02  1.70804919E-01  7.86153768E-02 -7.83028655E-03 -2.73809579E-13
 -4.37076492E-14  4.02399789E-14  7.02769984E-14 -1.57864452E-13 -2.06067925E-02
  2.07202578E-01 -1.67265054E-13 -4.13262348E-14 -3.24390726E-02  3.26180408E-01
 -7.71877635E-13  1.17928166E-13 -2.93405713E-02  2.95019296E-01 -2.36356293E-13
  1.12491749E-13 -2.42653707E-03  2.43990555E-02  1.17744350E-13 -1.89321894E-02
  4.42903196E-13 -4.24844474E-15  1.88272231E-03  1.98063196E-14  3.64212136E-14
  1.89398765E-14 -1.99435752E-02  2.07267452E-01 -6.22621749E-14 -8.46480347E-14
 -3.13950392E-02  3.26282557E-01 -7.32662660E-13 -4.20017367E-13 -2.83962666E-02
  2.95111697E-01 -3.85516264E-13 -2.06290589E-13 -2.34844006E-03  2.44066963E-02
  1.16160624E-13  1.89381329E-02  3.75644059E-13 -3.63347652E-14 -1.82212839E-03
  8.23364785E-14  4.81290045E-13  6.87895654E-13  1.19722379E-13 -1.62186955E-03
  1.63076223E-02  1.22315323E-14  3.94062724E-13  9.51765222E-13 -1.33131802E-13
 -1.56967241E-03  1.63127433E-02 -3.95914812E-14 -6.89937326E-14  1.56290473E-13
  2.06058058E-02 -2.07193414E-01  1.58668457E-13  3.91423259E-14  3.24371244E-02
 -3.26162041E-01  7.86907344E-13 -1.21806453E-13  2.93389502E-02 -2.95004156E-01
  2.35088861E-13 -1.15224402E-13  2.42858389E-03 -2.44198104E-02 -1.18420664E-13
  1.90783560E-02 -4.43894183E-13  4.27518514E-15 -1.89725242E-03  1.99099193E-14
  3.65679103E-14  1.89848498E-14 -1.99426180E-02  2.07258274E-01 -6.25366742E-14
 -8.43197586E-14 -3.13931501E-02  3.26264166E-01 -7.34386408E-13 -4.21210393E-13
 -2.83946940E-02  2.95096537E-01 -3.87417291E-13 -2.06458117E-13 -2.35041989E-03
  2.44274564E-02  1.16273919E-13  1.90843443E-02  3.75584139E-13 -3.63233455E-14
 -1.83619065E-03 -8.21421500E-14 -4.78338962E-13 -7.02122013E-13 -1.20728682E-13
  1.62916951E-03 -1.63810879E-02  1.23976417E-14  3.94319771E-13  9.55172393E-13
 -1.33067579E-13 -1.57673725E-03  1.63862310E-02  1.25236813E-12  2.01255380E-12
 -3.31258153E-12  2.29049313E-01  2.27793918E-02 -5.16861345E-12 -6.69020962E-12
  3.70092345E-01  3.68067769E-02 -8.08795679E-12 -4.39525035E-12  3.53423231E-01
  3.51483774E-02 -2.00401765E-12 -1.62436062E-12  6.70174774E-02  6.66502090E-03
 -9.08623096E-13 -2.07308794E-03  1.13216477E-13  5.29700714E-13 -2.08436783E-02
  7.32563079E-13  1.20140630E-12  2.06165960E-12  1.52590934E-01  1.46824748E-02
 -3.18454658E-12  3.00974214E-12  2.46552745E-01  2.37238386E-02 -5.11334821E-12
  2.90480754E-12  2.35447935E-01  2.26549134E-02 -8.48257966E-13  9.08113945E-13
  4.46465758E-02  4.29594500E-03 -3.99714681E-13  1.33621226E-03  6.35504340E-14
  1.18127843E-13  1.38859102E-02  2.31277854E-12  2.61878675E-12  2.62537350E-12
 -7.88245525E-13  2.02287858E-02  2.01174894E-03  1.40634571E-12  2.35688863E-12
  1.27433455E-12  1.75496777E-14  1.34762766E-02  1.29667503E-03 -8.34285136E-13
 -1.34067615E-12  2.20714324E-12 -1.52543200E-01 -1.51706462E-02  3.44237345E-12
  4.45707577E-12 -2.46475618E-01 -2.45126237E-02  5.39119860E-12  2.92679810E-12
 -2.35374236E-01 -2.34081643E-02  1.33308719E-12  1.08410043E-12 -4.46325040E-02
 -4.43878350E-03  6.05100738E-13  1.38063719E-03 -7.57890894E-14 -3.53004260E-13
  1.38815584E-02  1.09995499E-12  1.80391625E-12  3.09557097E-12  2.29121043E-01
  2.20461888E-02 -4.78150170E-12  4.51972922E-12  3.70208249E-01  3.56220799E-02
 -7.67839884E-12  4.36121506E-12  3.53533931E-01  3.40170607E-02 -1.27521173E-12
  1.36185046E-12  6.70384122E-02  6.45050064E-03 -6.00171894E-13  2.00636335E-03
  9.53567678E-14  1.77609121E-13  2.08502180E-02 -1.54092829E-12 -1.74581565E-12
 -1.74884093E-12  5.24477561E-13 -1.34720511E-02 -1.33978752E-03  2.11170884E-12
  3.53793175E-12  1.91622925E-12  2.65149198E-14  2.02351398E-02  1.94699846E-03
  2.55365673E-02  4.27713229E-02  4.95403001E-02  2.36051928E-14 -1.07504208E-14
 -1.24911725E-01  1.04218967E-01 -3.04800083E-13 -3.13392896E-14 -5.15556714E-01
  1.26827618E-01  3.24662292E-13 -2.32306209E-14  9.54289296E-01 -3.82740561E-01
  5.24895516E-13  1.00514000E-14  8.07179114E-03  2.04192077E-14 -3.69358949E-04
 -1.03046267E-02  1.34849292E-13  2.53864794E-02  4.25199463E-02 -4.92489445E-02
 -2.80019647E-14 -1.72204111E-14 -1.24177682E-01 -1.03606276E-01 -8.07661013E-14
 -2.85475053E-14 -5.12526131E-01 -1.26081446E-01 -1.41246419E-14 -1.83105056E-14
  9.48682095E-01  3.80491728E-01  2.63479974E-13  4.61197715E-14  8.02640143E-03
  7.86248138E-16 -3.55494850E-04 -1.02429592E-02 -1.19434571E-13 -7.17176985E-04
  1.32051739E-01 -9.09483417E-02 -4.41812053E-03 -6.91839624E-15  1.07230663E-13
 -7.13120008E-04  1.31275504E-01 -9.04157166E-02  4.39209835E-03 -3.07840530E-14
  1.06086799E-14 -2.53849925E-02 -4.25173035E-02 -4.92545047E-02 -2.32652692E-14
  1.13335817E-14  1.24164749E-01 -1.03613727E-01  3.02752157E-13  3.06106442E-14
  5.12540108E-01 -1.26110422E-01 -3.22596033E-13  2.38679059E-14 -9.48648923E-01
  3.80512516E-01 -5.21681654E-13 -1.05477028E-14 -8.02161512E-03 -2.01511122E-14
  3.66619630E-04  1.02450783E-02 -1.34160802E-13  2.55350481E-02  4.27686380E-02
 -4.95454677E-02 -2.85118095E-14 -1.72267842E-14 -1.24898822E-01 -1.04226050E-01
 -8.21978392E-14 -2.80485839E-14 -5.15569366E-01 -1.26855123E-01 -1.16446144E-14
 -2.18408635E-14  9.54258093E-01  3.82762480E-01  2.62171324E-13  4.74413406E-14
  8.07109575E-03  3.58652820E-16 -3.57024710E-04 -1.03045291E-02 -1.19963295E-13
  7.11713068E-04 -1.31287607E-01  9.03815056E-02  4.39182882E-03  6.74952482E-15
 -1.06408958E-13 -7.16079227E-04  1.32063556E-01 -9.09176919E-02  4.41773421E-03
 -3.12735123E-14  1.13079760E-14  9.12196342E-13  1.54165622E-12 -4.98964771E-12
 -8.26535359E-02 -8.22121166E-03 -5.02552921E-12 -3.88460290E-12 -9.29702040E-02
 -9.24732637E-03 -1.57332922E-11 -2.19583125E-11 -2.96003938E-01 -2.94425204E-02
  3.88637934E-11  5.83484345E-11  8.09523599E-01  8.05216280E-02 -1.20135981E-13
  6.75036346E-04 -4.41361789E-14  6.31420672E-13  6.78610490E-03  8.70792424E-13
  1.46417801E-12  4.91041454E-12 -8.87530947E-02 -8.54128343E-03 -4.81030788E-12
  4.33324405E-12 -9.98310953E-02 -9.60731699E-03 -1.39006365E-11  2.21239150E-11
 -3.17848103E-01 -3.05888302E-02  3.97201290E-11 -5.50715017E-11  8.69263839E-01
  8.36566974E-02 -1.63649225E-13 -7.01318007E-04 -4.12987793E-14  6.72961396E-13
 -7.28690663E-03  6.48433584E-13 -1.84803328E-12 -5.92133992E-12  9.99453390E-13
  2.74157191E-03  2.72738388E-04  4.92091817E-13 -2.31982306E-12 -9.25646975E-12
 -7.58849036E-13  2.94387731E-03  2.83359506E-04  9.78912768E-13  1.65441552E-12
 -5.35330024E-12 -8.87252951E-02 -8.82515204E-03 -5.39306147E-12 -4.16650878E-12
 -9.97998054E-02 -9.92664221E-03 -1.68866845E-11 -2.35601450E-11 -3.17748604E-01
 -3.16054182E-02  4.17051308E-11  6.26104358E-11  8.68991800E-01  8.64368924E-02
 -1.29002565E-13  7.24625232E-04 -4.72946871E-14  6.77519893E-13  7.28461403E-03
 -8.10580833E-13 -1.36294182E-12 -4.57102981E-12  8.26793807E-02  7.95676208E-03
  4.47778037E-12 -4.03338891E-12  9.29992487E-02  8.94984037E-03  1.29406308E-11
 -2.05952087E-11  2.96096641E-01  2.84954996E-02 -3.69817306E-11  5.12649519E-11
 -8.09777067E-01 -7.79316967E-02  1.52413757E-13  6.53323360E-04  3.83782873E-14
 -6.26407318E-13  6.78823512E-03  6.96017780E-13 -1.98102640E-12 -6.35014107E-12
  1.07250867E-12  2.94297517E-03  2.92775003E-04 -4.57887598E-13  2.15867335E-12
  8.62136793E-12  7.06496116E-13 -2.74242249E-03 -2.63968405E-04  8.16982077E-14
  1.35176603E-13 -3.77598114E-13  8.14542579E-03 -8.18880775E-02 -3.85532992E-13
 -3.54628282E-13  7.69843444E-03 -7.73934079E-02 -1.60532344E-12 -1.59064694E-12
  3.07139371E-02 -3.08778034E-01  2.94011567E-12  4.70780655E-12 -8.71030510E-02
  8.75688842E-01 -4.39778591E-14  6.42908896E-03 -1.19413731E-13  3.54890529E-14
 -6.39455407E-04  5.85048602E-14  9.51587000E-14  2.41388203E-13  7.29972091E-03
 -7.58485376E-02 -2.61977181E-13  2.45875393E-13  6.89914346E-03 -7.16851252E-02
 -1.23621334E-12  9.89988206E-13  2.75250973E-02 -2.86005499E-01  1.64507706E-12
 -3.47430017E-12 -7.80597803E-02  8.11107980E-01 -4.47180280E-14 -5.95489748E-03
 -9.39401674E-14  4.39595672E-14  5.73061362E-04  7.54551939E-14 -2.06034206E-13
  1.15841672E-13  7.55111689E-14 -4.58419538E-04  4.60912939E-03  7.62196795E-14
 -2.04298604E-13  6.89502642E-13 -1.62756932E-14 -4.10825309E-04  4.26924448E-03
 -6.81959339E-14 -1.12791923E-13  3.16013513E-13 -7.54285119E-03  7.58303191E-02
  3.20824822E-13  2.99691898E-13 -7.12924253E-03  7.16713335E-02  1.34909130E-12
  1.32594545E-12 -2.84406288E-02  2.85923957E-01 -2.46575971E-12 -3.94107670E-12
  8.06539291E-02 -8.10853517E-01  3.86175556E-14 -5.95391609E-03  1.10497640E-13