 Entering Gaussian System, Link 0=g16
 Initial command:
 /home/szhao/Apps/g16/l1.exe "/home/szhao/tmp/Gau-115199.inp" -scrdir="/home/szhao/tmp/"
 Default is to use a total of  16 processors:
                               16 via shared-memory
                                1 via Linda
 Entering Link 1 = /home/szhao/Apps/g16/l1.exe PID=    115201.
  
 Copyright (c) 1988,1990,1992,1993,1995,1998,2003,2009,2016,
            Gaussian, Inc.  All Rights Reserved.
  
 This is part of the Gaussian(R) 16 program.  It is based on
 the Gaussian(R) 09 system (copyright 2009, Gaussian, Inc.),
 the Gaussian(R) 03 system (copyright 2003, Gaussian, Inc.),
 the Gaussian(R) 98 system (copyright 1998, Gaussian, Inc.),
 the Gaussian(R) 94 system (copyright 1995, Gaussian, Inc.),
 the Gaussian 92(TM) system (copyright 1992, Gaussian, Inc.),
 the Gaussian 90(TM) system (copyright 1990, Gaussian, Inc.),
 the Gaussian 88(TM) system (copyright 1988, Gaussian, Inc.),
 the Gaussian 86(TM) system (copyright 1986, Carnegie Mellon
 University), and the Gaussian 82(TM) system (copyright 1983,
 Carnegie Mellon University). Gaussian is a federally registered
 trademark of Gaussian, Inc.
  
 This software contains proprietary and confidential information,
 including trade secrets, belonging to Gaussian, Inc.
  
 This software is provided under written license and may be
 used, copied, transmitted, or stored only in accord with that
 written license.
  
 The following legend is applicable only to US Government
 contracts under FAR:
  
                    RESTRICTED RIGHTS LEGEND
  
 Use, reproduction and disclosure by the US Government is
 subject to restrictions as set forth in subparagraphs (a)
 and (c) of the Commercial Computer Software - Restricted
 Rights clause in FAR 52.227-19.
  
 Gaussian, Inc.
 340 Quinnipiac St., Bldg. 40, Wallingford CT 06492
  
  
 ---------------------------------------------------------------
 Warning -- This program may not be used in any manner that
 competes with the business of Gaussian, Inc. or will provide
 assistance to any competitor of Gaussian, Inc.  The licensee
 of this program is prohibited from giving any competitor of
 Gaussian, Inc. access to this program.  By using this program,
 the user acknowledges that Gaussian, Inc. is engaged in the
 business of creating and licensing software in the field of
 computational chemistry and represents and warrants to the
 licensee that it is not a competitor of Gaussian, Inc. and that
 it will not use this program in any manner prohibited above.
 ---------------------------------------------------------------
  

 Cite this work as:
 Gaussian 16, Revision A.03,
 M. J. Frisch, G. W. Trucks, H. B. Schlegel, G. E. Scuseria, 
 M. A. Robb, J. R. Cheeseman, G. Scalmani, V. Barone, 
 G. A. Petersson, H. Nakatsuji, X. Li, M. Caricato, A. V. Marenich, 
 J. Bloino, B. G. Janesko, R. Gomperts, B. Mennucci, H. P. Hratchian, 
 J. V. Ortiz, A. F. Izmaylov, J. L. Sonnenberg, D. Williams-Young, 
 F. Ding, F. Lipparini, F. Egidi, J. Goings, B. Peng, A. Petrone, 
 T. Henderson, D. Ranasinghe, V. G. Zakrzewski, J. Gao, N. Rega, 
 G. Zheng, W. Liang, M. Hada, M. Ehara, K. Toyota, R. Fukuda, 
 J. Hasegawa, M. Ishida, T. Nakajima, Y. Honda, O. Kitao, H. Nakai, 
 T. Vreven, K. Throssell, J. A. Montgomery, Jr., J. E. Peralta, 
 F. Ogliaro, M. J. Bearpark, J. J. Heyd, E. N. Brothers, K. N. Kudin, 
 V. N. Staroverov, T. A. Keith, R. Kobayashi, J. Normand, 
 K. Raghavachari, A. P. Rendell, J. C. Burant, S. S. Iyengar, 
 J. Tomasi, M. Cossi, J. M. Millam, M. Klene, C. Adamo, R. Cammi, 
 J. W. Ochterski, R. L. Martin, K. Morokuma, O. Farkas, 
 J. B. Foresman, and D. J. Fox, Gaussian, Inc., Wallingford CT, 2016.
 
 ******************************************
 Gaussian 16:  ES64L-G16RevA.03 25-Dec-2016
                19-Nov-2024 
 ******************************************
 %chk=opt.chk
 %mem=4GB
 %nprocshared=8
 Will use up to    8 processors via shared memory.
 --------------------------------------------
 #p opt UM062X/6-311+G** nosymm int=superfine
 --------------------------------------------
 1/18=20,19=15,26=5,38=1/1,3;
 2/9=110,12=2,15=1,17=6,18=5,40=1/2;
 3/5=4,6=6,7=111,11=2,25=1,30=1,71=1,74=-55,75=-7,116=2/1,2,3;
 4//1;
 5/5=2,38=5/2;
 6/7=2,8=2,9=2,10=2,28=1/1;
 7/30=1/1,2,3,16;
 1/18=20,19=15,26=5/3(2);
 2/9=110,15=1/2;
 99//99;
 2/9=110,15=1/2;
 3/5=4,6=6,7=111,11=2,25=1,30=1,71=1,74=-55,75=-7,116=2/1,2,3;
 4/5=5,16=3,69=1/1;
 5/5=2,38=5/2;
 7/30=1/1,2,3,16;
 1/18=20,19=15,26=5/3(-5);
 2/9=110,15=1/2;
 6/7=2,8=2,9=2,10=2,19=2,28=1/1;
 99/9=1/99;
 Leave Link    1 at Tue Nov 19 09:53:40 2024, MaxMem=   536870912 cpu:               0.4 elap:               0.0
 (Enter /home/szhao/Apps/g16/l101.exe)
 -------------------
 Title Card Required
 -------------------
 Symbolic Z-matrix:
 Charge =  0 Multiplicity = 1
 C                    -1   -0.28503   0.        0. 
 C                    -1    0.28503   0.        0. 
 H                    0    -0.52995  -0.92138   0. 
 H                    0    -0.52856   0.9257    0. 
 H                    0     0.52995   0.92138   0. 
 H                    0     0.52856  -0.9257    0. 
 
 ITRead=  2  2  0  0  0  0
 MicOpt= -2 -2 -1 -1 -1 -1
 NAtoms=      6 NQM=        4 NQMF=       2 NMMI=      0 NMMIF=      0
                NMic=       0 NMicF=      0.
                    Isotopes and Nuclear Properties:
 (Nuclear quadrupole moments (NQMom) in fm**2, nuclear magnetic moments (NMagM)
  in nuclear magnetons)

  Atom         1           2           3           4           5           6
 IAtWgt=          12          12           1           1           1           1
 AtmWgt=  12.0000000  12.0000000   1.0078250   1.0078250   1.0078250   1.0078250
 NucSpn=           0           0           1           1           1           1
 AtZEff=  -0.0000000  -0.0000000  -0.0000000  -0.0000000  -0.0000000  -0.0000000
 NQMom=    0.0000000   0.0000000   0.0000000   0.0000000   0.0000000   0.0000000
 NMagM=    0.0000000   0.0000000   2.7928460   2.7928460   2.7928460   2.7928460
 AtZNuc=   6.0000000   6.0000000   1.0000000   1.0000000   1.0000000   1.0000000
 Leave Link  101 at Tue Nov 19 09:53:40 2024, MaxMem=   536870912 cpu:               2.5 elap:               0.3
 (Enter /home/szhao/Apps/g16/l103.exe)

 GradGradGradGradGradGradGradGradGradGradGradGradGradGradGradGradGradGrad
 Berny optimization.
 Initialization pass.
                           ----------------------------
                           !    Initial Parameters    !
                           ! (Angstroms and Degrees)  !
 --------------------------                            --------------------------
 ! Name  Definition              Value          Derivative Info.                !
 --------------------------------------------------------------------------------
 ! X1    R(1,-1)                -0.285          Frozen                          !
 ! Y1    R(1,-2)                 0.0            Frozen                          !
 ! Z1    R(1,-3)                 0.0            Frozen                          !
 ! X2    R(2,-1)                 0.285          Frozen                          !
 ! Y2    R(2,-2)                 0.0            Frozen                          !
 ! Z2    R(2,-3)                 0.0            Frozen                          !
 ! R1    R(1,3)                  0.9534         estimate D2E/DX2                !
 ! R2    R(1,4)                  0.9572         estimate D2E/DX2                !
 ! R3    R(1,5)                  1.2301         estimate D2E/DX2                !
 ! R4    R(1,6)                  1.2324         estimate D2E/DX2                !
 ! R5    R(2,3)                  1.2301         estimate D2E/DX2                !
 ! R6    R(2,4)                  1.2324         estimate D2E/DX2                !
 ! R7    R(2,5)                  0.9534         estimate D2E/DX2                !
 ! R8    R(2,6)                  0.9572         estimate D2E/DX2                !
 ! A1    A(3,1,4)              150.3752         estimate D2E/DX2                !
 ! A2    A(3,1,5)              153.3922         estimate D2E/DX2                !
 ! A3    A(3,1,6)               56.1979         estimate D2E/DX2                !
 ! A4    A(4,1,5)               56.2326         estimate D2E/DX2                !
 ! A5    A(4,1,6)              153.4269         estimate D2E/DX2                !
 ! A6    A(5,1,6)               97.1943         estimate D2E/DX2                !
 ! A7    A(3,2,4)               97.1943         estimate D2E/DX2                !
 ! A8    A(3,2,5)              153.3922         estimate D2E/DX2                !
 ! A9    A(3,2,6)               56.2326         estimate D2E/DX2                !
 ! A10   A(4,2,5)               56.1979         estimate D2E/DX2                !
 ! A11   A(4,2,6)              153.4269         estimate D2E/DX2                !
 ! A12   A(5,2,6)              150.3752         estimate D2E/DX2                !
 ! D1    D(3,1,5,4)            180.0            estimate D2E/DX2                !
 ! D2    D(3,1,6,4)            180.0            estimate D2E/DX2                !
 ! D3    D(3,1,6,5)            180.0            estimate D2E/DX2                !
 ! D4    D(4,1,6,5)              0.0            estimate D2E/DX2                !
 ! D5    D(3,2,5,4)              0.0            estimate D2E/DX2                !
 ! D6    D(3,2,6,4)              0.0            estimate D2E/DX2                !
 ! D7    D(3,2,6,5)            180.0            estimate D2E/DX2                !
 ! D8    D(4,2,6,5)            180.0            estimate D2E/DX2                !
 --------------------------------------------------------------------------------
 Trust Radius=3.00D-01 FncErr=1.00D-07 GrdErr=1.00D-07 EigMax=2.50D+02 EigMin=1.00D-04
 Number of steps in this run=     44 maximum allowed number of steps=    100.
 GradGradGradGradGradGradGradGradGradGradGradGradGradGradGradGradGradGrad

 Leave Link  103 at Tue Nov 19 09:53:40 2024, MaxMem=   536870912 cpu:               0.1 elap:               0.0
 (Enter /home/szhao/Apps/g16/l202.exe)
                          Input orientation:                          
 ---------------------------------------------------------------------
 Center     Atomic      Atomic             Coordinates (Angstroms)
 Number     Number       Type             X           Y           Z
 ---------------------------------------------------------------------
      1          6           0       -0.285035    0.000000    0.000000
      2          6           0        0.285035    0.000000    0.000000
      3          1           0       -0.529951   -0.921382    0.000000
      4          1           0       -0.528562    0.925704    0.000000
      5          1           0        0.529951    0.921382    0.000000
      6          1           0        0.528562   -0.925704    0.000000
 ---------------------------------------------------------------------
                    Distance matrix (angstroms):
                    1          2          3          4          5
     1  C    0.000000
     2  C    0.570070   0.000000
     3  H    0.953378   1.230101   0.000000
     4  H    0.957201   1.232424   1.847087   0.000000
     5  H    1.230101   0.953378   2.125835   1.058523   0.000000
     6  H    1.232424   0.957201   1.058523   2.131953   1.847087
                    6
     6  H    0.000000
 Symmetry turned off by external request.
 Stoichiometry    C2H4
 Framework group  C2H[SGH(C2H4)]
 Deg. of freedom     5
 Full point group                 C2H     NOp   4
 Rotational constants (GHZ):         164.1327021         146.9785653          77.5413545
 Leave Link  202 at Tue Nov 19 09:53:40 2024, MaxMem=   536870912 cpu:               0.0 elap:               0.0
 (Enter /home/szhao/Apps/g16/l301.exe)
 Standard basis: 6-311+G(d,p) (5D, 7F)
 Ernie: Thresh=  0.10000D-02 Tol=  0.10000D-05 Strict=F.
    68 basis functions,   104 primitive gaussians,    70 cartesian basis functions
     8 alpha electrons        8 beta electrons
       nuclear repulsion energy        59.0971394906 Hartrees.
 IExCor= 4336 DFT=T Ex+Corr=M062X ExCW=0 ScaHFX=  0.540000
 ScaDFX=  1.000000  1.000000  1.000000  1.000000 ScalE2=  1.000000  1.000000
 IRadAn=      7 IRanWt=     -1 IRanGd=            0 ICorTp=0 IEmpDi=  4
 NAtoms=    6 NActive=    6 NUniq=    6 SFac= 1.00D+00 NAtFMM=   60 NAOKFM=F Big=F
 Integral buffers will be    131072 words long.
 Raffenetti 2 integral format.
 Two-electron integral symmetry is turned off.
 Leave Link  301 at Tue Nov 19 09:53:40 2024, MaxMem=   536870912 cpu:               0.3 elap:               0.0
 (Enter /home/szhao/Apps/g16/l302.exe)
 NPDir=0 NMtPBC=     1 NCelOv=     1 NCel=       1 NClECP=     1 NCelD=      1
         NCelK=      1 NCelE2=     1 NClLst=     1 CellRange=     0.0.
 One-electron integrals computed using PRISM.
 NBasis=    68 RedAO= T EigKep=  2.83D-05  NBF=    68
 NBsUse=    67 1.00D-06 EigRej=  8.75D-07 NBFU=    67
 Precomputing XC quadrature grid using
 IXCGrd= 4 IRadAn=           7 IRanWt=          -1 IRanGd=           0 AccXCQ= 0.00D+00.
 Generated NRdTot=       0 NPtTot=           0 NUsed=           0 NTot=          32
 NSgBfM=    70    70    70    70    70 MxSgAt=     6 MxSgA2=     6.
 Leave Link  302 at Tue Nov 19 09:53:40 2024, MaxMem=   536870912 cpu:               1.0 elap:               0.1
 (Enter /home/szhao/Apps/g16/l303.exe)
 DipDrv:  MaxL=1.
 Leave Link  303 at Tue Nov 19 09:53:40 2024, MaxMem=   536870912 cpu:               0.3 elap:               0.0
 (Enter /home/szhao/Apps/g16/l401.exe)
 ExpMin= 4.38D-02 ExpMax= 4.56D+03 ExpMxC= 6.82D+02 IAcc=3 IRadAn=         7 AccDes= 0.00D+00
 Harris functional with IExCor= 1009 and IRadAn=       7 diagonalized for initial guess.
 HarFok:  IExCor= 1009 AccDes= 0.00D+00 IRadAn=         7 IDoV= 1 UseB2=F ITyADJ=14
 ICtDFT=  3500011 ScaDFX=  1.000000  1.000000  1.000000  1.000000
 FoFCou: FMM=F IPFlag=           0 FMFlag=      100000 FMFlg1=           0
         NFxFlg=           0 DoJE=T BraDBF=F KetDBF=T FulRan=T
         wScrn=  0.000000 ICntrl=       500 IOpCl=  0 I1Cent=   200000004 NGrid=           0
         NMat0=    1 NMatS0=      1 NMatT0=    0 NMatD0=    1 NMtDS0=    0 NMtDT0=    0
 Symmetry not used in FoFCou.
 Harris En= -75.3289281125476    
 JPrj=0 DoOrth=F DoCkMO=F.
 Initial guess <Sx>= 0.0000 <Sy>= 0.0000 <Sz>= 0.0000 <S**2>= 0.0000 S= 0.0000
 Leave Link  401 at Tue Nov 19 09:53:41 2024, MaxMem=   536870912 cpu:               2.7 elap:               0.3
 (Enter /home/szhao/Apps/g16/l502.exe)
 Keep R1 and R2 ints in memory in canonical form, NReq=12681638.
 FoFCou: FMM=F IPFlag=           0 FMFlag=           0 FMFlg1=           0
         NFxFlg=           0 DoJE=F BraDBF=F KetDBF=F FulRan=T
         wScrn=  0.000000 ICntrl=       600 IOpCl=  0 I1Cent=           0 NGrid=           0
         NMat0=    1 NMatS0=   2346 NMatT0=    0 NMatD0=    1 NMtDS0=    0 NMtDT0=    0
 Symmetry not used in FoFCou.
 Two-electron integral symmetry not used.
 UHF open shell SCF:
 Using DIIS extrapolation, IDIIS=  1040.
 NGot=   536870912 LenX=   531353770 LenY=   531348429
 Requested convergence on RMS density matrix=1.00D-08 within 128 cycles.
 Requested convergence on MAX density matrix=1.00D-06.
 Requested convergence on             energy=1.00D-06.
 No special actions if energy rises.

 Cycle   1  Pass 1  IDiag  1:
 E= -73.0658309204967    
 DIIS: error= 2.07D-01 at cycle   1 NSaved=   1.
 NSaved= 1 IEnMin= 1 EnMin= -73.0658309204967     IErMin= 1 ErrMin= 2.07D-01
 ErrMax= 2.07D-01  0.00D+00 EMaxC= 1.00D-01 BMatC= 7.52D+00 BMatP= 7.52D+00
 IDIUse=3 WtCom= 0.00D+00 WtEn= 1.00D+00
 Coeff-Com:  0.100D+01
 Coeff-En:   0.100D+01
 Coeff:      0.100D+01
 Gap=     0.144 Goal=   None    Shift=    0.000
 Gap=     0.144 Goal=   None    Shift=    0.000
 GapD=    0.144 DampG=1.000 DampE=0.250 DampFc=0.2500 IDamp=-1.
 Damping current iteration by 2.50D-01
 RMSDP=8.71D-02 MaxDP=1.36D+00              OVMax= 9.83D-01

 Cycle   2  Pass 1  IDiag  1:
 E= -73.5210994525473     Delta-E=       -0.455268532051 Rises=F Damp=T
 DIIS: error= 8.58D-02 at cycle   2 NSaved=   2.
 NSaved= 2 IEnMin= 2 EnMin= -73.5210994525473     IErMin= 2 ErrMin= 8.58D-02
 ErrMax= 8.58D-02  0.00D+00 EMaxC= 1.00D-01 BMatC= 1.47D+00 BMatP= 7.52D+00
 IDIUse=3 WtCom= 1.42D-01 WtEn= 8.58D-01
 Coeff-Com: -0.750D+00 0.175D+01
 Coeff-En:   0.000D+00 0.100D+01
 Coeff:     -0.106D+00 0.111D+01
 Gap=     0.033 Goal=   None    Shift=    0.000
 Gap=     0.033 Goal=   None    Shift=    0.000
 RMSDP=3.22D-02 MaxDP=7.57D-01 DE=-4.55D-01 OVMax= 8.39D-01

 Cycle   3  Pass 1  IDiag  1:
 E= -74.2315199077776     Delta-E=       -0.710420455230 Rises=F Damp=F
 DIIS: error= 5.06D-02 at cycle   3 NSaved=   3.
 NSaved= 3 IEnMin= 3 EnMin= -74.2315199077776     IErMin= 3 ErrMin= 5.06D-02
 ErrMax= 5.06D-02  0.00D+00 EMaxC= 1.00D-01 BMatC= 6.06D-01 BMatP= 1.47D+00
 IDIUse=3 WtCom= 4.94D-01 WtEn= 5.06D-01
 Coeff-Com: -0.108D+00 0.575D+00 0.533D+00
 Coeff-En:   0.000D+00 0.000D+00 0.100D+01
 Coeff:     -0.533D-01 0.284D+00 0.769D+00
 Gap=     0.352 Goal=   None    Shift=    0.000
 Gap=     0.352 Goal=   None    Shift=    0.000
 RMSDP=1.02D-02 MaxDP=8.06D-02 DE=-7.10D-01 OVMax= 2.71D-01

 Cycle   4  Pass 1  IDiag  1:
 E= -74.2713142963024     Delta-E=       -0.039794388525 Rises=F Damp=F
 DIIS: error= 4.64D-02 at cycle   4 NSaved=   4.
 NSaved= 4 IEnMin= 4 EnMin= -74.2713142963024     IErMin= 4 ErrMin= 4.64D-02
 ErrMax= 4.64D-02  0.00D+00 EMaxC= 1.00D-01 BMatC= 3.96D-01 BMatP= 6.06D-01
 IDIUse=3 WtCom= 5.36D-01 WtEn= 4.64D-01
 Coeff-Com: -0.207D+00 0.243D+00 0.237D+00 0.727D+00
 Coeff-En:   0.000D+00 0.000D+00 0.395D+00 0.605D+00
 Coeff:     -0.111D+00 0.130D+00 0.310D+00 0.670D+00
 Gap=     0.244 Goal=   None    Shift=    0.000
 Gap=     0.244 Goal=   None    Shift=    0.000
 RMSDP=7.21D-03 MaxDP=1.64D-01 DE=-3.98D-02 OVMax= 8.77D-02

 Cycle   5  Pass 1  IDiag  1:
 E= -74.3413234796205     Delta-E=       -0.070009183318 Rises=F Damp=F
 DIIS: error= 2.86D-03 at cycle   5 NSaved=   5.
 NSaved= 5 IEnMin= 5 EnMin= -74.3413234796205     IErMin= 5 ErrMin= 2.86D-03
 ErrMax= 2.86D-03  0.00D+00 EMaxC= 1.00D-01 BMatC= 1.17D-03 BMatP= 3.96D-01
 IDIUse=3 WtCom= 9.71D-01 WtEn= 2.86D-02
 Coeff-Com: -0.152D-01 0.450D-01-0.566D-01-0.138D+00 0.117D+01
 Coeff-En:   0.000D+00 0.000D+00 0.000D+00 0.000D+00 0.100D+01
 Coeff:     -0.148D-01 0.438D-01-0.550D-01-0.134D+00 0.116D+01
 Gap=     0.236 Goal=   None    Shift=    0.000
 Gap=     0.236 Goal=   None    Shift=    0.000
 RMSDP=6.94D-03 MaxDP=2.13D-01 DE=-7.00D-02 OVMax= 1.07D-02

 Cycle   6  Pass 1  IDiag  1:
 E= -74.3416292011740     Delta-E=       -0.000305721554 Rises=F Damp=F
 DIIS: error= 1.27D-03 at cycle   6 NSaved=   6.
 NSaved= 6 IEnMin= 6 EnMin= -74.3416292011740     IErMin= 6 ErrMin= 1.27D-03
 ErrMax= 1.27D-03  0.00D+00 EMaxC= 1.00D-01 BMatC= 2.88D-04 BMatP= 1.17D-03
 IDIUse=3 WtCom= 9.87D-01 WtEn= 1.27D-02
 Coeff-Com:  0.283D-03 0.275D-02-0.271D-02-0.337D-01-0.129D+00 0.116D+01
 Coeff-En:   0.000D+00 0.000D+00 0.000D+00 0.000D+00 0.000D+00 0.100D+01
 Coeff:      0.280D-03 0.271D-02-0.267D-02-0.333D-01-0.127D+00 0.116D+01
 Gap=     0.234 Goal=   None    Shift=    0.000
 Gap=     0.234 Goal=   None    Shift=    0.000
 RMSDP=6.24D-04 MaxDP=1.67D-02 DE=-3.06D-04 OVMax= 3.02D-03

 Cycle   7  Pass 1  IDiag  1:
 E= -74.3416896685887     Delta-E=       -0.000060467415 Rises=F Damp=F
 DIIS: error= 3.44D-05 at cycle   7 NSaved=   7.
 NSaved= 7 IEnMin= 7 EnMin= -74.3416896685887     IErMin= 7 ErrMin= 3.44D-05
 ErrMax= 3.44D-05  0.00D+00 EMaxC= 1.00D-01 BMatC= 2.71D-07 BMatP= 2.88D-04
 IDIUse=1 WtCom= 1.00D+00 WtEn= 0.00D+00
 Coeff-Com:  0.188D-03-0.805D-03 0.434D-03 0.500D-02 0.766D-02-0.153D+00
 Coeff-Com:  0.114D+01
 Coeff:      0.188D-03-0.805D-03 0.434D-03 0.500D-02 0.766D-02-0.153D+00
 Coeff:      0.114D+01
 Gap=     0.234 Goal=   None    Shift=    0.000
 Gap=     0.234 Goal=   None    Shift=    0.000
 RMSDP=6.25D-05 MaxDP=1.50D-03 DE=-6.05D-05 OVMax= 5.42D-04

 Cycle   8  Pass 1  IDiag  1:
 E= -74.3416899264913     Delta-E=       -0.000000257903 Rises=F Damp=F
 DIIS: error= 3.07D-05 at cycle   8 NSaved=   8.
 NSaved= 8 IEnMin= 8 EnMin= -74.3416899264913     IErMin= 8 ErrMin= 3.07D-05
 ErrMax= 3.07D-05  0.00D+00 EMaxC= 1.00D-01 BMatC= 1.66D-07 BMatP= 2.71D-07
 IDIUse=1 WtCom= 1.00D+00 WtEn= 0.00D+00
 Coeff-Com:  0.110D-03-0.242D-03 0.971D-04 0.112D-03-0.483D-02 0.338D-01
 Coeff-Com: -0.271D+00 0.124D+01
 Coeff:      0.110D-03-0.242D-03 0.971D-04 0.112D-03-0.483D-02 0.338D-01
 Coeff:     -0.271D+00 0.124D+01
 Gap=     0.234 Goal=   None    Shift=    0.000
 Gap=     0.234 Goal=   None    Shift=    0.000
 RMSDP=2.88D-05 MaxDP=8.24D-04 DE=-2.58D-07 OVMax= 1.74D-04

 Cycle   9  Pass 1  IDiag  1:
 E= -74.3416899815533     Delta-E=       -0.000000055062 Rises=F Damp=F
 DIIS: error= 8.39D-06 at cycle   9 NSaved=   9.
 NSaved= 9 IEnMin= 9 EnMin= -74.3416899815533     IErMin= 9 ErrMin= 8.39D-06
 ErrMax= 8.39D-06  0.00D+00 EMaxC= 1.00D-01 BMatC= 1.13D-08 BMatP= 1.66D-07
 IDIUse=1 WtCom= 1.00D+00 WtEn= 0.00D+00
 Coeff-Com: -0.100D-05 0.274D-04-0.284D-04-0.272D-03-0.299D-03 0.107D-01
 Coeff-Com: -0.614D-01-0.178D+00 0.123D+01
 Coeff:     -0.100D-05 0.274D-04-0.284D-04-0.272D-03-0.299D-03 0.107D-01
 Coeff:     -0.614D-01-0.178D+00 0.123D+01
 Gap=     0.234 Goal=   None    Shift=    0.000
 Gap=     0.234 Goal=   None    Shift=    0.000
 RMSDP=8.58D-06 MaxDP=2.40D-04 DE=-5.51D-08 OVMax= 6.27D-05

 Cycle  10  Pass 1  IDiag  1:
 E= -74.3416899860248     Delta-E=       -0.000000004472 Rises=F Damp=F
 DIIS: error= 1.02D-06 at cycle  10 NSaved=  10.
 NSaved=10 IEnMin=10 EnMin= -74.3416899860248     IErMin=10 ErrMin= 1.02D-06
 ErrMax= 1.02D-06  0.00D+00 EMaxC= 1.00D-01 BMatC= 1.58D-10 BMatP= 1.13D-08
 IDIUse=1 WtCom= 1.00D+00 WtEn= 0.00D+00
 Coeff-Com: -0.350D-05 0.342D-05 0.248D-05 0.508D-04 0.158D-03-0.360D-02
 Coeff-Com:  0.157D-01-0.214D-01-0.123D+00 0.113D+01
 Coeff:     -0.350D-05 0.342D-05 0.248D-05 0.508D-04 0.158D-03-0.360D-02
 Coeff:      0.157D-01-0.214D-01-0.123D+00 0.113D+01
 Gap=     0.234 Goal=   None    Shift=    0.000
 Gap=     0.234 Goal=   None    Shift=    0.000
 RMSDP=1.46D-06 MaxDP=4.37D-05 DE=-4.47D-09 OVMax= 8.07D-06

 Cycle  11  Pass 1  IDiag  1:
 E= -74.3416899860825     Delta-E=       -0.000000000058 Rises=F Damp=F
 DIIS: error= 1.54D-07 at cycle  11 NSaved=  11.
 NSaved=11 IEnMin=11 EnMin= -74.3416899860825     IErMin=11 ErrMin= 1.54D-07
 ErrMax= 1.54D-07  0.00D+00 EMaxC= 1.00D-01 BMatC= 2.95D-12 BMatP= 1.58D-10
 IDIUse=1 WtCom= 1.00D+00 WtEn= 0.00D+00
 Coeff-Com:  0.698D-06-0.482D-06-0.453D-06-0.291D-05 0.106D-04-0.259D-04
 Coeff-Com:  0.807D-03 0.406D-02-0.996D-02-0.708D-01 0.108D+01
 Coeff:      0.698D-06-0.482D-06-0.453D-06-0.291D-05 0.106D-04-0.259D-04
 Coeff:      0.807D-03 0.406D-02-0.996D-02-0.708D-01 0.108D+01
 Gap=     0.234 Goal=   None    Shift=    0.000
 Gap=     0.234 Goal=   None    Shift=    0.000
 RMSDP=3.27D-08 MaxDP=3.01D-07 DE=-5.76D-11 OVMax= 5.69D-07

 Cycle  12  Pass 1  IDiag  1:
 E= -74.3416899860831     Delta-E=       -0.000000000001 Rises=F Damp=F
 DIIS: error= 5.05D-08 at cycle  12 NSaved=  12.
 NSaved=12 IEnMin=12 EnMin= -74.3416899860831     IErMin=12 ErrMin= 5.05D-08
 ErrMax= 5.05D-08  0.00D+00 EMaxC= 1.00D-01 BMatC= 3.93D-13 BMatP= 2.95D-12
 IDIUse=1 WtCom= 1.00D+00 WtEn= 0.00D+00
 Coeff-Com:  0.703D-07-0.176D-06 0.849D-07-0.739D-07-0.477D-05 0.728D-04
 Coeff-Com: -0.354D-03-0.624D-03 0.368D-02-0.107D-01-0.579D-01 0.107D+01
 Coeff:      0.703D-07-0.176D-06 0.849D-07-0.739D-07-0.477D-05 0.728D-04
 Coeff:     -0.354D-03-0.624D-03 0.368D-02-0.107D-01-0.579D-01 0.107D+01
 Gap=     0.234 Goal=   None    Shift=    0.000
 Gap=     0.234 Goal=   None    Shift=    0.000
 RMSDP=1.60D-08 MaxDP=1.87D-07 DE=-6.25D-13 OVMax= 1.46D-07

 Cycle  13  Pass 1  IDiag  1:
 E= -74.3416899860833     Delta-E=       -0.000000000000 Rises=F Damp=F
 DIIS: error= 6.32D-09 at cycle  13 NSaved=  13.
 NSaved=13 IEnMin=13 EnMin= -74.3416899860833     IErMin=13 ErrMin= 6.32D-09
 ErrMax= 6.32D-09  0.00D+00 EMaxC= 1.00D-01 BMatC= 6.95D-15 BMatP= 3.93D-13
 IDIUse=1 WtCom= 1.00D+00 WtEn= 0.00D+00
 Coeff-Com: -0.488D-08 0.202D-07-0.288D-07-0.133D-07 0.114D-05-0.140D-04
 Coeff-Com:  0.813D-04 0.148D-03-0.774D-03 0.277D-02 0.830D-02-0.371D+00
 Coeff-Com:  0.136D+01
 Coeff:     -0.488D-08 0.202D-07-0.288D-07-0.133D-07 0.114D-05-0.140D-04
 Coeff:      0.813D-04 0.148D-03-0.774D-03 0.277D-02 0.830D-02-0.371D+00
 Coeff:      0.136D+01
 Gap=     0.234 Goal=   None    Shift=    0.000
 Gap=     0.234 Goal=   None    Shift=    0.000
 RMSDP=4.08D-09 MaxDP=7.02D-08 DE=-1.71D-13 OVMax= 4.60D-08

 SCF Done:  E(UM062X) =  -74.3416899861     A.U. after   13 cycles
            NFock= 13  Conv=0.41D-08     -V/T= 1.8522
 <Sx>= 0.0000 <Sy>= 0.0000 <Sz>= 0.0000 <S**2>=-0.0000 S=-0.0000
 <L.S>=  0.00000000000    
 KE= 8.723654569595D+01 PE=-2.975061383722D+02 EE= 7.683076319953D+01
 Annihilation of the first spin contaminant:
 S**2 before annihilation    -0.0000,   after     0.0000
 Leave Link  502 at Tue Nov 19 09:53:49 2024, MaxMem=   536870912 cpu:              65.2 elap:               8.3
 (Enter /home/szhao/Apps/g16/l601.exe)
 Copying SCF densities to generalized density rwf, IOpCl= 1 IROHF=0.

 **********************************************************************

            Population analysis using the SCF density.

 **********************************************************************

 Alpha  occ. eigenvalues --  -11.16193 -10.58351  -1.04345  -1.04330  -0.77182
 Alpha  occ. eigenvalues --   -0.52977  -0.28052  -0.23230
 Alpha virt. eigenvalues --    0.00168   0.03674   0.04160   0.06672   0.08096
 Alpha virt. eigenvalues --    0.09298   0.09713   0.10881   0.13926   0.27986
 Alpha virt. eigenvalues --    0.30506   0.36108   0.36743   0.39598   0.42892
 Alpha virt. eigenvalues --    0.49005   0.52541   0.62225   0.63489   0.66009
 Alpha virt. eigenvalues --    0.78382   0.79056   0.79414   0.87366   1.11443
 Alpha virt. eigenvalues --    1.20317   1.38307   1.42057   1.45669   1.63681
 Alpha virt. eigenvalues --    1.65030   1.73516   1.76624   1.94269   1.95283
 Alpha virt. eigenvalues --    1.96572   2.07269   2.11958   2.29359   2.40248
 Alpha virt. eigenvalues --    2.41688   2.45689   2.46565   2.47252   2.73623
 Alpha virt. eigenvalues --    2.73689   2.80636   2.99351   3.00217   3.00458
 Alpha virt. eigenvalues --    3.45878   3.62599   3.62657   4.26374   4.27833
 Alpha virt. eigenvalues --    4.54959   6.49530  25.21529  25.50237
  Beta  occ. eigenvalues --  -11.16193 -10.58351  -1.04345  -1.04330  -0.77182
  Beta  occ. eigenvalues --   -0.52977  -0.28052  -0.23230
  Beta virt. eigenvalues --    0.00168   0.03674   0.04160   0.06672   0.08096
  Beta virt. eigenvalues --    0.09298   0.09713   0.10881   0.13926   0.27986
  Beta virt. eigenvalues --    0.30506   0.36108   0.36743   0.39598   0.42892
  Beta virt. eigenvalues --    0.49005   0.52541   0.62225   0.63489   0.66009
  Beta virt. eigenvalues --    0.78382   0.79056   0.79414   0.87366   1.11443
  Beta virt. eigenvalues --    1.20317   1.38307   1.42057   1.45669   1.63681
  Beta virt. eigenvalues --    1.65030   1.73516   1.76624   1.94269   1.95283
  Beta virt. eigenvalues --    1.96572   2.07269   2.11958   2.29359   2.40248
  Beta virt. eigenvalues --    2.41688   2.45689   2.46565   2.47252   2.73623
  Beta virt. eigenvalues --    2.73689   2.80636   2.99351   3.00217   3.00458
  Beta virt. eigenvalues --    3.45878   3.62599   3.62657   4.26374   4.27833
  Beta virt. eigenvalues --    4.54959   6.49530  25.21529  25.50237
          Condensed to atoms (all electrons):
               1          2          3          4          5          6
     1  C    8.130549  -2.725543   0.938042   0.936532  -0.590848  -0.593868
     2  C   -2.725543   8.130549  -0.590848  -0.593868   0.938042   0.936532
     3  H    0.938042  -0.590848   1.085326  -0.178672   0.158837  -0.462348
     4  H    0.936532  -0.593868  -0.178672   1.092697  -0.462348   0.160456
     5  H   -0.590848   0.938042   0.158837  -0.462348   1.085326  -0.178672
     6  H   -0.593868   0.936532  -0.462348   0.160456  -0.178672   1.092697
          Atomic-Atomic Spin Densities.
               1          2          3          4          5          6
     1  C   -0.000000   0.000000  -0.000000   0.000000  -0.000000   0.000000
     2  C    0.000000  -0.000000   0.000000  -0.000000   0.000000  -0.000000
     3  H   -0.000000   0.000000   0.000000   0.000000  -0.000000  -0.000000
     4  H    0.000000  -0.000000   0.000000  -0.000000   0.000000  -0.000000
     5  H   -0.000000   0.000000  -0.000000   0.000000  -0.000000  -0.000000
     6  H    0.000000  -0.000000  -0.000000  -0.000000  -0.000000   0.000000
 Mulliken charges and spin densities:
               1          2
     1  C   -0.094864  -0.000000
     2  C   -0.094864   0.000000
     3  H    0.049662   0.000000
     4  H    0.045202  -0.000000
     5  H    0.049662  -0.000000
     6  H    0.045202   0.000000
 Sum of Mulliken charges =  -0.00000  -0.00000
 Mulliken charges and spin densities with hydrogens summed into heavy atoms:
               1          2
     1  C    0.000000  -0.000000
     2  C   -0.000000   0.000000
 Electronic spatial extent (au):  <R**2>=             50.0727
 Charge=             -0.0000 electrons
 Dipole moment (field-independent basis, Debye):
    X=              0.0000    Y=             -0.0000    Z=              0.0000  Tot=              0.0000
 Quadrupole moment (field-independent basis, Debye-Ang):
   XX=            -18.3159   YY=            -10.8908   ZZ=            -11.6910
   XY=              0.0486   XZ=              0.0000   YZ=             -0.0000
 Traceless Quadrupole moment (field-independent basis, Debye-Ang):
   XX=             -4.6833   YY=              2.7418   ZZ=              1.9415
   XY=              0.0486   XZ=              0.0000   YZ=             -0.0000
 Octapole moment (field-independent basis, Debye-Ang**2):
  XXX=              0.0000  YYY=             -0.0000  ZZZ=             -0.0000  XYY=              0.0000
  XXY=             -0.0000  XXZ=              0.0000  XZZ=             -0.0000  YZZ=              0.0000
  YYZ=              0.0000  XYZ=              0.0000
 Hexadecapole moment (field-independent basis, Debye-Ang**3):
 XXXX=            -43.5768 YYYY=            -29.1629 ZZZZ=            -10.7292 XXXY=              0.1101
 XXXZ=              0.0000 YYYX=              0.1655 YYYZ=              0.0000 ZZZX=              0.0000
 ZZZY=              0.0000 XXYY=            -15.7469 XXZZ=             -8.3368 YYZZ=             -7.2279
 XXYZ=              0.0000 YYXZ=              0.0000 ZZXY=              0.0349
 N-N= 5.909713949061D+01 E-N=-2.975061387396D+02  KE= 8.723654569595D+01
                          Isotropic Fermi Contact Couplings
        Atom                 a.u.       MegaHertz       Gauss      10(-4) cm-1
     1  C(13)              0.00000       0.00000       0.00000       0.00000
     2  C(13)             -0.00000      -0.00000      -0.00000      -0.00000
     3  H(1)              -0.00000      -0.00000      -0.00000      -0.00000
     4  H(1)              -0.00000      -0.00000      -0.00000      -0.00000
     5  H(1)               0.00000       0.00000       0.00000       0.00000
     6  H(1)               0.00000       0.00000       0.00000       0.00000
 --------------------------------------------------------
       Center         ----  Spin Dipole Couplings  ----
                      3XX-RR        3YY-RR        3ZZ-RR
 --------------------------------------------------------
     1   Atom        0.000000      0.000000     -0.000000
     2   Atom        0.000000     -0.000000     -0.000000
     3   Atom        0.000000      0.000000     -0.000000
     4   Atom       -0.000000      0.000000     -0.000000
     5   Atom       -0.000000      0.000000     -0.000000
     6   Atom        0.000000      0.000000     -0.000000
 --------------------------------------------------------
                        XY            XZ            YZ
 --------------------------------------------------------
     1   Atom       -0.000000      0.000000     -0.000000
     2   Atom        0.000000     -0.000000      0.000000
     3   Atom       -0.000000      0.000000      0.000000
     4   Atom        0.000000      0.000000     -0.000000
     5   Atom        0.000000     -0.000000     -0.000000
     6   Atom       -0.000000     -0.000000      0.000000
 --------------------------------------------------------


 ---------------------------------------------------------------------------------
              Anisotropic Spin Dipole Couplings in Principal Axis System
 ---------------------------------------------------------------------------------

       Atom             a.u.   MegaHertz   Gauss  10(-4) cm-1        Axes

              Baa    -0.0000    -0.000    -0.000    -0.000 -0.0113 -0.0022  0.9999
     1 C(13)  Bbb    -0.0000    -0.000    -0.000    -0.000  0.5665  0.8240  0.0082
              Bcc     0.0000     0.000     0.000     0.000  0.8240 -0.5665  0.0081
 
              Baa    -0.0000    -0.000    -0.000    -0.000  0.0771 -0.0532  0.9956
     2 C(13)  Bbb    -0.0000    -0.000    -0.000    -0.000 -0.3018  0.9505  0.0741
              Bcc     0.0000     0.000     0.000     0.000  0.9503  0.3062 -0.0572
 
              Baa    -0.0000    -0.000    -0.000    -0.000 -0.0053 -0.0202  0.9998
     3 H(1)   Bbb     0.0000     0.000     0.000     0.000  0.4713  0.8818  0.0204
              Bcc     0.0000     0.000     0.000     0.000  0.8820 -0.4713 -0.0048
 
              Baa    -0.0000    -0.000    -0.000    -0.000 -0.0045  0.0138  0.9999
     4 H(1)   Bbb    -0.0000    -0.000    -0.000    -0.000  0.9997 -0.0235  0.0048
              Bcc     0.0000     0.000     0.000     0.000  0.0235  0.9996 -0.0137
 
              Baa    -0.0000    -0.000    -0.000    -0.000  0.9054 -0.4240  0.0210
     5 H(1)   Bbb    -0.0000    -0.000    -0.000    -0.000 -0.0160  0.0154  0.9998
              Bcc     0.0000     0.000     0.000     0.000  0.4242  0.9055 -0.0072
 
              Baa    -0.0000    -0.000    -0.000    -0.000 -0.0068 -0.0313  0.9995
     6 H(1)   Bbb    -0.0000    -0.000    -0.000    -0.000  0.7468  0.6645  0.0259
              Bcc     0.0000     0.000     0.000     0.000 -0.6650  0.7466  0.0189
 

 ---------------------------------------------------------------------------------

 No NMR shielding tensors so no spin-rotation constants.
 Leave Link  601 at Tue Nov 19 09:53:49 2024, MaxMem=   536870912 cpu:               1.3 elap:               0.2
 (Enter /home/szhao/Apps/g16/l701.exe)
 ... and contract with generalized density number  0.
 Compute integral first derivatives.
 Leave Link  701 at Tue Nov 19 09:53:49 2024, MaxMem=   536870912 cpu:               0.7 elap:               0.1
 (Enter /home/szhao/Apps/g16/l702.exe)
 L702 exits ... SP integral derivatives will be done elsewhere.
 Leave Link  702 at Tue Nov 19 09:53:49 2024, MaxMem=   536870912 cpu:               0.3 elap:               0.0
 (Enter /home/szhao/Apps/g16/l703.exe)
 Integral derivatives from FoFJK, PRISM(SPDF).
 Compute integral first derivatives, UseDBF=F ICtDFT=           0.
 Calling FoFJK, ICntrl=      2127 FMM=F ISym2X=0 I1Cent= 0 IOpClX= 1 NMat=1 NMatS=1 NMatT=0.
 FoFJK:  IHMeth= 1 ICntrl=    2127 DoSepK=F KAlg= 0 I1Cent=           0 FoldK=F
 IRaf=         0 NMat=       1 IRICut=       1 DoRegI=T DoRafI=F ISym2E= 0 IDoP0=0 IntGTp=1.
 FoFCou: FMM=F IPFlag=           0 FMFlag=      100000 FMFlg1=         800
         NFxFlg=           0 DoJE=F BraDBF=F KetDBF=F FulRan=T
         wScrn=  0.000000 ICntrl=      2127 IOpCl=  1 I1Cent=           0 NGrid=           0
         NMat0=    1 NMatS0=      1 NMatT0=    0 NMatD0=    1 NMtDS0=    0 NMtDT0=    0
 Symmetry not used in FoFCou.
 Leave Link  703 at Tue Nov 19 09:53:51 2024, MaxMem=   536870912 cpu:               9.4 elap:               1.2
 (Enter /home/szhao/Apps/g16/l716.exe)
 Dipole        = 4.61630734D-13-7.77156117D-15 2.53877976D-15
 -------------------------------------------------------------------
 Center     Atomic                   Forces (Hartrees/Bohr)
 Number     Number              X              Y              Z
 -------------------------------------------------------------------
      1        6          -0.000000000   -0.000000000   -0.000000000
      2        6          -0.000000000   -0.000000000   -0.000000000
      3        1          -0.266087118   -0.087186389    0.000000000
      4        1          -0.264476589    0.084961263   -0.000000000
      5        1           0.266087118    0.087186389    0.000000000
      6        1           0.264476589   -0.084961263   -0.000000000
 -------------------------------------------------------------------
 Cartesian Forces:  Max     0.266087118 RMS     0.131474587
 Leave Link  716 at Tue Nov 19 09:53:51 2024, MaxMem=   536870912 cpu:               0.3 elap:               0.0
 (Enter /home/szhao/Apps/g16/l103.exe)

 GradGradGradGradGradGradGradGradGradGradGradGradGradGradGradGradGradGrad
 Berny optimization.
 FormGI is forming the generalized inverse of G from B-inverse, IUseBI=4.
 Internal  Forces:  Max     0.125095799 RMS     0.066650487
 Search for a local minimum.
 Step number   1 out of a maximum of   44
 All quantities printed in internal units (Hartrees-Bohrs-Radians)
 RMS Force = .72867D-01 SwitMx=.10000D-02 MixMth= 1
 Mixed Optimization -- RFO/linear search
 Second derivative matrix not updated -- first step.
 ITU=  0
     Eigenvalues ---    0.00230   0.01443   0.01998   0.16573   0.16575
     Eigenvalues ---    0.16591   0.21056   0.39409   0.39465   0.40490
     Eigenvalues ---    0.552541000.000001000.000001000.000001000.00000
     Eigenvalues --- 1000.000001000.000001000.000001000.000001000.00000
     Eigenvalues --- 1000.000001000.000001000.000001000.000001000.00000
     Eigenvalues --- 1000.000001000.000001000.000001000.000001000.00000
     Eigenvalues --- 1000.000001000.000001000.000001000.00000
 RFO step:  Lambda=-2.90927921D-01 EMin= 2.30000000D-03
 Linear search not attempted -- first point.
 Maximum step size (   0.300) exceeded in Quadratic search.
    -- Step size scaled by   0.392
 Iteration  1 RMS(Cart)=  0.03566736 RMS(Int)=  0.00139667
 Iteration  2 RMS(Cart)=  0.00102293 RMS(Int)=  0.00018240
 New curvilinear step failed, DQL= 6.52D-06 SP=-1.08D-01.
 ITry= 1 IFail=1 DXMaxC= 1.06D-01 DCOld= 1.00D+10 DXMaxT= 3.00D-01 DXLimC= 3.00D+00 Rises=F
 Iteration  1 RMS(Cart)=  0.03210062 RMS(Int)=  0.00113246
 Iteration  2 RMS(Cart)=  0.00082797 RMS(Int)=  0.00014780
 New curvilinear step failed, DQL= 4.29D-06 SP=-1.14D-01.
 ITry= 2 IFail=1 DXMaxC= 9.50D-02 DCOld= 1.00D+10 DXMaxT= 3.00D-01 DXLimC= 3.00D+00 Rises=F
 Iteration  1 RMS(Cart)=  0.02853389 RMS(Int)=  0.00089569
 Iteration  2 RMS(Cart)=  0.00065373 RMS(Int)=  0.00011682
 New curvilinear step failed, DQL= 2.68D-06 SP=-1.20D-01.
 ITry= 3 IFail=1 DXMaxC= 8.44D-02 DCOld= 1.00D+10 DXMaxT= 3.00D-01 DXLimC= 3.00D+00 Rises=F
 Iteration  1 RMS(Cart)=  0.02496715 RMS(Int)=  0.00068646
 Iteration  2 RMS(Cart)=  0.00050015 RMS(Int)=  0.00008948
 New curvilinear step failed, DQL= 1.58D-06 SP=-1.25D-01.
 ITry= 4 IFail=1 DXMaxC= 7.37D-02 DCOld= 1.00D+10 DXMaxT= 3.00D-01 DXLimC= 3.00D+00 Rises=F
 Iteration  1 RMS(Cart)=  0.02140041 RMS(Int)=  0.00050484
 Iteration  2 RMS(Cart)=  0.00036720 RMS(Int)=  0.00006577
 New curvilinear step failed, DQL= 8.53D-07 SP=-1.29D-01.
 ITry= 5 IFail=1 DXMaxC= 6.31D-02 DCOld= 1.00D+10 DXMaxT= 3.00D-01 DXLimC= 3.00D+00 Rises=F
 Iteration  1 RMS(Cart)=  0.01783368 RMS(Int)=  0.00035093
 Iteration  2 RMS(Cart)=  0.00025482 RMS(Int)=  0.00004569
 New curvilinear step failed, DQL= 4.12D-07 SP=-1.33D-01.
 ITry= 6 IFail=1 DXMaxC= 5.25D-02 DCOld= 1.00D+10 DXMaxT= 3.00D-01 DXLimC= 3.00D+00 Rises=F
 Iteration  1 RMS(Cart)=  0.01426694 RMS(Int)=  0.00022481
 Iteration  2 RMS(Cart)=  0.00016297 RMS(Int)=  0.00002925
 New curvilinear step failed, DQL= 1.69D-07 SP=-1.36D-01.
 ITry= 7 IFail=1 DXMaxC= 4.20D-02 DCOld= 1.00D+10 DXMaxT= 3.00D-01 DXLimC= 3.00D+00 Rises=F
 Iteration  1 RMS(Cart)=  0.01070021 RMS(Int)=  0.00012658
 Iteration  2 RMS(Cart)=  0.00009160 RMS(Int)=  0.00001646
 Iteration  3 RMS(Cart)=  0.00000001 RMS(Int)=  0.00001646
 ITry= 8 IFail=0 DXMaxC= 3.15D-02 DCOld= 1.00D+10 DXMaxT= 3.00D-01 DXLimC= 3.00D+00 Rises=F
 Variable       Old X    -DE/DX   Delta X   Delta X   Delta X     New X
                                 (Linear)    (Quad)   (Total)
    X1       -0.53864  -0.01537   0.00000   0.00000   0.00000  -0.53864
    Y1        0.00000  -0.00336   0.00000   0.00000   0.00000   0.00000
    Z1        0.00000   0.00000   0.00000   0.00000   0.00000   0.00000
    X2        0.53864   0.01537   0.00000   0.00000   0.00000   0.53864
    Y2        0.00000   0.00336   0.00000   0.00000   0.00000   0.00000
    Z2        0.00000  -0.00000   0.00000   0.00000   0.00000   0.00000
    R1        1.80162   0.06838   0.00000   0.03960   0.01191   1.81353
    R2        1.80885   0.06508   0.00000   0.03843   0.01156   1.82040
    R3        2.32455   0.12510   0.00000   0.07788   0.02335   2.34790
    R4        2.32894   0.12499   0.00000   0.07817   0.02343   2.35238
    R5        2.32455   0.12510   0.00000   0.07788   0.02335   2.34790
    R6        2.32894   0.12499   0.00000   0.07817   0.02343   2.35238
    R7        1.80162   0.06838   0.00000   0.03960   0.01191   1.81353
    R8        1.80885   0.06508   0.00000   0.03843   0.01156   1.82040
    A1        2.62454  -0.11150   0.00000  -0.10677  -0.03201   2.59253
    A2        2.67720   0.01986   0.00000   0.02379   0.00711   2.68431
    A3        0.98084   0.09136   0.00000   0.08286   0.02486   1.00570
    A4        0.98144   0.09164   0.00000   0.08298   0.02490   1.00635
    A5        2.67780   0.02014   0.00000   0.02391   0.00715   2.68495
    A6        1.69636  -0.07150   0.00000  -0.05907  -0.01775   1.67861
    A7        1.69636  -0.07150   0.00000  -0.05907  -0.01775   1.67861
    A8        2.67720   0.01986   0.00000   0.02379   0.00711   2.68431
    A9        0.98144   0.09164   0.00000   0.08298   0.02490   1.00635
   A10        0.98084   0.09136   0.00000   0.08286   0.02486   1.00570
   A11        2.67780   0.02014   0.00000   0.02391   0.00715   2.68495
   A12        2.62454  -0.11150   0.00000  -0.10677  -0.03201   2.59253
    D1        3.14159   0.00000   0.00000   0.00000   0.00000   3.14159
    D2        3.14159  -0.00000   0.00000  -0.00000   0.00000   3.14159
    D3        3.14159   0.00000   0.00000   0.00000   0.00000   3.14159
    D4        0.00000   0.00000   0.00000   0.00000   0.00000   0.00000
    D5        0.00000  -0.00000   0.00000  -0.00000  -0.00000   0.00000
    D6        0.00000   0.00000   0.00000   0.00000  -0.00000   0.00000
    D7        3.14159   0.00000   0.00000   0.00000   0.00000   3.14159
    D8        3.14159  -0.00000   0.00000  -0.00000   0.00000   3.14159
         Item               Value     Threshold  Converged?
 Maximum Force            0.124577     0.000450     NO 
 RMS     Force            0.072867     0.000300     NO 
 Maximum Displacement     0.031452     0.001800     NO 
 RMS     Displacement     0.010728     0.001200     NO 
 Predicted change in Energy=-3.335665D-02
 Lowest energy point so far.  Saving SCF results.
 GradGradGradGradGradGradGradGradGradGradGradGradGradGradGradGradGradGrad

 Leave Link  103 at Tue Nov 19 09:53:51 2024, MaxMem=   536870912 cpu:               0.2 elap:               0.0
 (Enter /home/szhao/Apps/g16/l202.exe)
                          Input orientation:                          
 ---------------------------------------------------------------------
 Center     Atomic      Atomic             Coordinates (Angstroms)
 Number     Number       Type             X           Y           Z
 ---------------------------------------------------------------------
      1          6           0       -0.285035    0.000000    0.000000
      2          6           0        0.285035    0.000000    0.000000
      3          1           0       -0.546176   -0.923465   -0.000000
      4          1           0       -0.545206    0.927518   -0.000000
      5          1           0        0.546176    0.923465    0.000000
      6          1           0        0.545206   -0.927518    0.000000
 ---------------------------------------------------------------------
                    Distance matrix (angstroms):
                    1          2          3          4          5
     1  C    0.000000
     2  C    0.570070   0.000000
     3  H    0.959678   1.242457   0.000000
     4  H    0.963316   1.244825   1.850983   0.000000
     5  H    1.242457   0.959678   2.145783   1.091390   0.000000
     6  H    1.244825   0.963316   1.091390   2.151780   1.850983
                    6
     6  H    0.000000
 Symmetry turned off by external request.
 Stoichiometry    C2H4
 Framework group  C2H[SGH(C2H4)]
 Deg. of freedom     5
 Full point group                 C2H     NOp   4
 Rotational constants (GHZ):         160.4229188         146.3599383          76.5345519
 Leave Link  202 at Tue Nov 19 09:53:51 2024, MaxMem=   536870912 cpu:               0.0 elap:               0.0
 (Enter /home/szhao/Apps/g16/l301.exe)
 Standard basis: 6-311+G(d,p) (5D, 7F)
 Ernie: Thresh=  0.10000D-02 Tol=  0.10000D-05 Strict=F.
    68 basis functions,   104 primitive gaussians,    70 cartesian basis functions
     8 alpha electrons        8 beta electrons
       nuclear repulsion energy        58.8727049791 Hartrees.
 IExCor= 4336 DFT=T Ex+Corr=M062X ExCW=0 ScaHFX=  0.540000
 ScaDFX=  1.000000  1.000000  1.000000  1.000000 ScalE2=  1.000000  1.000000
 IRadAn=      7 IRanWt=     -1 IRanGd=            0 ICorTp=0 IEmpDi=  4
 NAtoms=    6 NActive=    6 NUniq=    6 SFac= 1.00D+00 NAtFMM=   60 NAOKFM=F Big=F
 Integral buffers will be    131072 words long.
 Raffenetti 2 integral format.
 Two-electron integral symmetry is turned off.
 Leave Link  301 at Tue Nov 19 09:53:51 2024, MaxMem=   536870912 cpu:               0.3 elap:               0.0
 (Enter /home/szhao/Apps/g16/l302.exe)
 NPDir=0 NMtPBC=     1 NCelOv=     1 NCel=       1 NClECP=     1 NCelD=      1
         NCelK=      1 NCelE2=     1 NClLst=     1 CellRange=     0.0.
 One-electron integrals computed using PRISM.
 NBasis=    68 RedAO= T EigKep=  2.84D-05  NBF=    68
 NBsUse=    67 1.00D-06 EigRej=  8.77D-07 NBFU=    67
 Precomputing XC quadrature grid using
 IXCGrd= 4 IRadAn=           7 IRanWt=          -1 IRanGd=           0 AccXCQ= 0.00D+00.
 Generated NRdTot=       0 NPtTot=           0 NUsed=           0 NTot=          32
 NSgBfM=    70    70    70    70    70 MxSgAt=     6 MxSgA2=     6.
 Leave Link  302 at Tue Nov 19 09:53:51 2024, MaxMem=   536870912 cpu:               1.1 elap:               0.1
 (Enter /home/szhao/Apps/g16/l303.exe)
 DipDrv:  MaxL=1.
 Leave Link  303 at Tue Nov 19 09:53:51 2024, MaxMem=   536870912 cpu:               0.3 elap:               0.0
 (Enter /home/szhao/Apps/g16/l401.exe)
 Initial guess from the checkpoint file:  "opt.chk"
 B after Tr=     0.000000   -0.000000   -0.000000
         Rot=    1.000000   -0.000000    0.000000   -0.000109 Ang=  -0.01 deg.
 Guess basis will be translated and rotated to current coordinates.
 JPrj=2 DoOrth=T DoCkMO=T.
 Initial guess <Sx>= 0.0000 <Sy>= 0.0000 <Sz>= 0.0000 <S**2>= 0.0000 S= 0.0000
 Generating alternative initial guess.
 ExpMin= 4.38D-02 ExpMax= 4.56D+03 ExpMxC= 6.82D+02 IAcc=3 IRadAn=         5 AccDes= 0.00D+00
 Harris functional with IExCor= 1009 and IRadAn=       5 diagonalized for initial guess.
 HarFok:  IExCor= 1009 AccDes= 0.00D+00 IRadAn=         5 IDoV= 1 UseB2=F ITyADJ=14
 ICtDFT=  3500011 ScaDFX=  1.000000  1.000000  1.000000  1.000000
 FoFCou: FMM=F IPFlag=           0 FMFlag=      100000 FMFlg1=           0
         NFxFlg=           0 DoJE=T BraDBF=F KetDBF=T FulRan=T
         wScrn=  0.000000 ICntrl=       500 IOpCl=  0 I1Cent=   200000004 NGrid=           0
         NMat0=    1 NMatS0=      1 NMatT0=    0 NMatD0=    1 NMtDS0=    0 NMtDT0=    0
 Symmetry not used in FoFCou.
 Harris En= -75.3595375882432    
 Leave Link  401 at Tue Nov 19 09:53:51 2024, MaxMem=   536870912 cpu:               1.8 elap:               0.2
 (Enter /home/szhao/Apps/g16/l502.exe)
 Keep R1 and R2 ints in memory in canonical form, NReq=12681638.
 FoFCou: FMM=F IPFlag=           0 FMFlag=           0 FMFlg1=           0
         NFxFlg=           0 DoJE=F BraDBF=F KetDBF=F FulRan=T
         wScrn=  0.000000 ICntrl=       600 IOpCl=  0 I1Cent=           0 NGrid=           0
         NMat0=    1 NMatS0=   2346 NMatT0=    0 NMatD0=    1 NMtDS0=    0 NMtDT0=    0
 Symmetry not used in FoFCou.
 Two-electron integral symmetry not used.
 UHF open shell SCF:
 Using DIIS extrapolation, IDIIS=  1040.
 NGot=   536870912 LenX=   531353770 LenY=   531348429
 Requested convergence on RMS density matrix=1.00D-08 within 128 cycles.
 Requested convergence on MAX density matrix=1.00D-06.
 Requested convergence on             energy=1.00D-06.
 No special actions if energy rises.

 Cycle   1  Pass 1  IDiag  1:
 E= -74.3748351610025    
 DIIS: error= 2.84D-03 at cycle   1 NSaved=   1.
 NSaved= 1 IEnMin= 1 EnMin= -74.3748351610025     IErMin= 1 ErrMin= 2.84D-03
 ErrMax= 2.84D-03  0.00D+00 EMaxC= 1.00D-01 BMatC= 9.80D-04 BMatP= 9.80D-04
 IDIUse=3 WtCom= 9.72D-01 WtEn= 2.84D-02
 Coeff-Com:  0.100D+01
 Coeff-En:   0.100D+01
 Coeff:      0.100D+01
 Gap=     0.589 Goal=   None    Shift=    0.000
 Gap=     0.589 Goal=   None    Shift=    0.000
 GapD=    0.589 DampG=2.000 DampE=1.000 DampFc=2.0000 IDamp=-1.
 RMSDP=9.65D-04 MaxDP=2.32D-02              OVMax= 4.61D-03

 Cycle   2  Pass 1  IDiag  1:
 E= -74.3750461300326     Delta-E=       -0.000210969030 Rises=F Damp=F
 DIIS: error= 4.66D-04 at cycle   2 NSaved=   2.
 NSaved= 2 IEnMin= 2 EnMin= -74.3750461300326     IErMin= 2 ErrMin= 4.66D-04
 ErrMax= 4.66D-04  0.00D+00 EMaxC= 1.00D-01 BMatC= 4.34D-05 BMatP= 9.80D-04
 IDIUse=3 WtCom= 9.95D-01 WtEn= 4.66D-03
 Coeff-Com: -0.381D-01 0.104D+01
 Coeff-En:   0.000D+00 0.100D+01
 Coeff:     -0.379D-01 0.104D+01
 Gap=     0.237 Goal=   None    Shift=    0.000
 Gap=     0.237 Goal=   None    Shift=    0.000
 RMSDP=5.54D-04 MaxDP=1.71D-02 DE=-2.11D-04 OVMax= 3.38D-03

 Cycle   3  Pass 1  IDiag  1:
 E= -74.3750514772337     Delta-E=       -0.000005347201 Rises=F Damp=F
 DIIS: error= 5.19D-04 at cycle   3 NSaved=   3.
 NSaved= 3 IEnMin= 3 EnMin= -74.3750514772337     IErMin= 2 ErrMin= 4.66D-04
 ErrMax= 5.19D-04  0.00D+00 EMaxC= 1.00D-01 BMatC= 5.53D-05 BMatP= 4.34D-05
 IDIUse=3 WtCom= 3.05D-01 WtEn= 6.95D-01
 Coeff-Com: -0.597D-01 0.581D+00 0.479D+00
 Coeff-En:   0.000D+00 0.310D+00 0.690D+00
 Coeff:     -0.182D-01 0.393D+00 0.625D+00
 Gap=     0.238 Goal=   None    Shift=    0.000
 Gap=     0.238 Goal=   None    Shift=    0.000
 RMSDP=1.52D-04 MaxDP=3.81D-03 DE=-5.35D-06 OVMax= 1.59D-03

 Cycle   4  Pass 1  IDiag  1:
 E= -74.3750604621680     Delta-E=       -0.000008984934 Rises=F Damp=F
 DIIS: error= 1.73D-04 at cycle   4 NSaved=   4.
 NSaved= 4 IEnMin= 4 EnMin= -74.3750604621680     IErMin= 4 ErrMin= 1.73D-04
 ErrMax= 1.73D-04  0.00D+00 EMaxC= 1.00D-01 BMatC= 6.72D-06 BMatP= 4.34D-05
 IDIUse=3 WtCom= 9.98D-01 WtEn= 1.73D-03
 Coeff-Com:  0.107D-01-0.213D+00 0.185D+00 0.102D+01
 Coeff-En:   0.000D+00 0.000D+00 0.126D-01 0.987D+00
 Coeff:      0.107D-01-0.212D+00 0.185D+00 0.102D+01
 Gap=     0.238 Goal=   None    Shift=    0.000
 Gap=     0.238 Goal=   None    Shift=    0.000
 RMSDP=1.75D-04 MaxDP=5.41D-03 DE=-8.98D-06 OVMax= 9.28D-04

 Cycle   5  Pass 1  IDiag  1:
 E= -74.3750621191768     Delta-E=       -0.000001657009 Rises=F Damp=F
 DIIS: error= 1.42D-05 at cycle   5 NSaved=   5.
 NSaved= 5 IEnMin= 5 EnMin= -74.3750621191768     IErMin= 5 ErrMin= 1.42D-05
 ErrMax= 1.42D-05  0.00D+00 EMaxC= 1.00D-01 BMatC= 2.15D-08 BMatP= 6.72D-06
 IDIUse=1 WtCom= 1.00D+00 WtEn= 0.00D+00
 Coeff-Com:  0.152D-02-0.178D-02-0.587D-01-0.152D+00 0.121D+01
 Coeff:      0.152D-02-0.178D-02-0.587D-01-0.152D+00 0.121D+01
 Gap=     0.238 Goal=   None    Shift=    0.000
 Gap=     0.238 Goal=   None    Shift=    0.000
 RMSDP=3.43D-05 MaxDP=1.02D-03 DE=-1.66D-06 OVMax= 2.35D-04

 Cycle   6  Pass 1  IDiag  1:
 E= -74.3750621541422     Delta-E=       -0.000000034965 Rises=F Damp=F
 DIIS: error= 3.06D-06 at cycle   6 NSaved=   6.
 NSaved= 6 IEnMin= 6 EnMin= -74.3750621541422     IErMin= 6 ErrMin= 3.06D-06
 ErrMax= 3.06D-06  0.00D+00 EMaxC= 1.00D-01 BMatC= 1.74D-09 BMatP= 2.15D-08
 IDIUse=1 WtCom= 1.00D+00 WtEn= 0.00D+00
 Coeff-Com: -0.615D-03 0.102D-01-0.981D-02-0.392D-01-0.847D-01 0.112D+01
 Coeff:     -0.615D-03 0.102D-01-0.981D-02-0.392D-01-0.847D-01 0.112D+01
 Gap=     0.238 Goal=   None    Shift=    0.000
 Gap=     0.238 Goal=   None    Shift=    0.000
 RMSDP=3.48D-06 MaxDP=7.71D-05 DE=-3.50D-08 OVMax= 3.84D-05

 Cycle   7  Pass 1  IDiag  1:
 E= -74.3750621551598     Delta-E=       -0.000000001018 Rises=F Damp=F
 DIIS: error= 4.55D-07 at cycle   7 NSaved=   7.
 NSaved= 7 IEnMin= 7 EnMin= -74.3750621551598     IErMin= 7 ErrMin= 4.55D-07
 ErrMax= 4.55D-07  0.00D+00 EMaxC= 1.00D-01 BMatC= 2.19D-11 BMatP= 1.74D-09
 IDIUse=1 WtCom= 1.00D+00 WtEn= 0.00D+00
 Coeff-Com:  0.507D-04-0.135D-02 0.238D-02 0.934D-02-0.397D-02-0.185D+00
 Coeff-Com:  0.118D+01
 Coeff:      0.507D-04-0.135D-02 0.238D-02 0.934D-02-0.397D-02-0.185D+00
 Coeff:      0.118D+01
 Gap=     0.238 Goal=   None    Shift=    0.000
 Gap=     0.238 Goal=   None    Shift=    0.000
 RMSDP=1.27D-06 MaxDP=4.01D-05 DE=-1.02D-09 OVMax= 2.91D-06

 Cycle   8  Pass 1  IDiag  1:
 E= -74.3750621551714     Delta-E=       -0.000000000012 Rises=F Damp=F
 DIIS: error= 5.27D-08 at cycle   8 NSaved=   8.
 NSaved= 8 IEnMin= 8 EnMin= -74.3750621551714     IErMin= 8 ErrMin= 5.27D-08
 ErrMax= 5.27D-08  0.00D+00 EMaxC= 1.00D-01 BMatC= 4.66D-13 BMatP= 2.19D-11
 IDIUse=1 WtCom= 1.00D+00 WtEn= 0.00D+00
 Coeff-Com:  0.989D-05-0.116D-03-0.412D-04 0.183D-04 0.214D-02-0.103D-01
 Coeff-Com: -0.130D+00 0.114D+01
 Coeff:      0.989D-05-0.116D-03-0.412D-04 0.183D-04 0.214D-02-0.103D-01
 Coeff:     -0.130D+00 0.114D+01
 Gap=     0.238 Goal=   None    Shift=    0.000
 Gap=     0.238 Goal=   None    Shift=    0.000
 RMSDP=8.77D-08 MaxDP=2.65D-06 DE=-1.17D-11 OVMax= 6.69D-07

 Cycle   9  Pass 1  IDiag  1:
 E= -74.3750621551719     Delta-E=       -0.000000000000 Rises=F Damp=F
 DIIS: error= 1.90D-08 at cycle   9 NSaved=   9.
 NSaved= 9 IEnMin= 9 EnMin= -74.3750621551719     IErMin= 9 ErrMin= 1.90D-08
 ErrMax= 1.90D-08  0.00D+00 EMaxC= 1.00D-01 BMatC= 5.05D-14 BMatP= 4.66D-13
 IDIUse=1 WtCom= 1.00D+00 WtEn= 0.00D+00
 Coeff-Com: -0.187D-05 0.400D-04-0.613D-04-0.146D-03-0.365D-03 0.724D-02
 Coeff-Com: -0.195D-01-0.180D+00 0.119D+01
 Coeff:     -0.187D-05 0.400D-04-0.613D-04-0.146D-03-0.365D-03 0.724D-02
 Coeff:     -0.195D-01-0.180D+00 0.119D+01
 Gap=     0.238 Goal=   None    Shift=    0.000
 Gap=     0.238 Goal=   None    Shift=    0.000
 RMSDP=1.40D-08 MaxDP=3.29D-07 DE=-4.26D-13 OVMax= 1.29D-07

 Cycle  10  Pass 1  IDiag  1:
 E= -74.3750621551719     Delta-E=        0.000000000000 Rises=F Damp=F
 DIIS: error= 1.26D-09 at cycle  10 NSaved=  10.
 NSaved=10 IEnMin= 9 EnMin= -74.3750621551719     IErMin=10 ErrMin= 1.26D-09
 ErrMax= 1.26D-09  0.00D+00 EMaxC= 1.00D-01 BMatC= 2.76D-16 BMatP= 5.05D-14
 IDIUse=1 WtCom= 1.00D+00 WtEn= 0.00D+00
 Coeff-Com:  0.714D-07-0.379D-05 0.101D-04 0.295D-04-0.417D-04-0.717D-03
 Coeff-Com:  0.593D-02-0.136D-03-0.162D+00 0.116D+01
 Coeff:      0.714D-07-0.379D-05 0.101D-04 0.295D-04-0.417D-04-0.717D-03
 Coeff:      0.593D-02-0.136D-03-0.162D+00 0.116D+01
 Gap=     0.238 Goal=   None    Shift=    0.000
 Gap=     0.238 Goal=   None    Shift=    0.000
 RMSDP=3.11D-09 MaxDP=9.13D-08 DE= 0.00D+00 OVMax= 1.02D-08

 SCF Done:  E(UM062X) =  -74.3750621552     A.U. after   10 cycles
            NFock= 10  Conv=0.31D-08     -V/T= 1.8530
 <Sx>= 0.0000 <Sy>= 0.0000 <Sz>= 0.0000 <S**2>=-0.0000 S=-0.0000
 <L.S>=  0.00000000000    
 KE= 8.718779298875D+01 PE=-2.971361039359D+02 EE= 7.670054381293D+01
 Annihilation of the first spin contaminant:
 S**2 before annihilation    -0.0000,   after     0.0000
 Leave Link  502 at Tue Nov 19 09:53:58 2024, MaxMem=   536870912 cpu:              48.9 elap:               6.2
 (Enter /home/szhao/Apps/g16/l701.exe)
 ... and contract with generalized density number  0.
 Compute integral first derivatives.
 Leave Link  701 at Tue Nov 19 09:53:58 2024, MaxMem=   536870912 cpu:               0.7 elap:               0.1
 (Enter /home/szhao/Apps/g16/l702.exe)
 L702 exits ... SP integral derivatives will be done elsewhere.
 Leave Link  702 at Tue Nov 19 09:53:58 2024, MaxMem=   536870912 cpu:               0.3 elap:               0.0
 (Enter /home/szhao/Apps/g16/l703.exe)
 Integral derivatives from FoFJK, PRISM(SPDF).
 Compute integral first derivatives, UseDBF=F ICtDFT=           0.
 Calling FoFJK, ICntrl=      2127 FMM=F ISym2X=0 I1Cent= 0 IOpClX= 1 NMat=1 NMatS=1 NMatT=0.
 FoFJK:  IHMeth= 1 ICntrl=    2127 DoSepK=F KAlg= 0 I1Cent=           0 FoldK=F
 IRaf=         0 NMat=       1 IRICut=       1 DoRegI=T DoRafI=F ISym2E= 0 IDoP0=0 IntGTp=1.
 FoFCou: FMM=F IPFlag=           0 FMFlag=      100000 FMFlg1=         800
         NFxFlg=           0 DoJE=F BraDBF=F KetDBF=F FulRan=T
         wScrn=  0.000000 ICntrl=      2127 IOpCl=  1 I1Cent=           0 NGrid=           0
         NMat0=    1 NMatS0=      1 NMatT0=    0 NMatD0=    1 NMtDS0=    0 NMtDT0=    0
 Symmetry not used in FoFCou.
 Leave Link  703 at Tue Nov 19 09:53:59 2024, MaxMem=   536870912 cpu:               8.9 elap:               1.1
 (Enter /home/szhao/Apps/g16/l716.exe)
 Dipole        =-1.62536651D-13 6.65845157D-12-2.64914064D-13
 -------------------------------------------------------------------
 Center     Atomic                   Forces (Hartrees/Bohr)
 Number     Number              X              Y              Z
 -------------------------------------------------------------------
      1        6          -0.000000000   -0.000000000   -0.000000000
      2        6          -0.000000000   -0.000000000   -0.000000000
      3        1          -0.253326236   -0.079924496   -0.000000000
      4        1          -0.251779270    0.077775285   -0.000000000
      5        1           0.253326236    0.079924496   -0.000000000
      6        1           0.251779270   -0.077775285    0.000000000
 -------------------------------------------------------------------
 Cartesian Forces:  Max     0.253326236 RMS     0.124723651
 Leave Link  716 at Tue Nov 19 09:53:59 2024, MaxMem=   536870912 cpu:               0.3 elap:               0.0
 (Enter /home/szhao/Apps/g16/l103.exe)

 GradGradGradGradGradGradGradGradGradGradGradGradGradGradGradGradGradGrad
 Berny optimization.
 Using GEDIIS/GDIIS optimizer.
 FormGI is forming the generalized inverse of G from B-inverse, IUseBI=4.
 Internal  Forces:  Max     0.118939584 RMS     0.063465535
 Search for a local minimum.
 Step number   2 out of a maximum of   44
 All quantities printed in internal units (Hartrees-Bohrs-Radians)
 RMS Force = .69403D-01 SwitMx=.10000D-02 MixMth= 1
 Mixed Optimization -- RFO/linear search
 Update second derivatives using D2CorX and points    1    2
 DE= -3.34D-02 DEPred=-3.34D-02 R= 1.00D+00
 TightC=F SS=  1.41D+00  RLast= 9.00D-02 DXNew= 5.0454D-01 2.6999D-01
 Trust test= 1.00D+00 RLast= 9.00D-02 DXMaxT set to 3.00D-01
 ITU=  1  0
 Use linear search instead of GDIIS.
     Eigenvalues ---    0.00230   0.01430   0.01998   0.16564   0.16583
     Eigenvalues ---    0.18600   0.21042   0.34247   0.39441   0.40479
     Eigenvalues ---    0.551131000.000001000.000001000.000001000.00000
     Eigenvalues --- 1000.000001000.000001000.000001000.000001000.00000
     Eigenvalues --- 1000.000001000.000001000.000001000.000001000.00000
     Eigenvalues --- 1000.000001000.000001000.000001000.000001000.00000
     Eigenvalues --- 1000.000001000.000001000.000001000.00000
 RFO step:  Lambda=-9.01690861D-03 EMin= 2.30000000D-03
 Quartic linear search produced a step of  2.00000.
 Iteration  1 RMS(Cart)=  0.02662026 RMS(Int)=  0.00037767
 Iteration  2 RMS(Cart)=  0.00011383 RMS(Int)=  0.00032714
 Iteration  3 RMS(Cart)=  0.00000002 RMS(Int)=  0.00032714
 ITry= 1 IFail=0 DXMaxC= 6.64D-02 DCOld= 1.00D+10 DXMaxT= 3.00D-01 DXLimC= 3.00D+00 Rises=F
 Variable       Old X    -DE/DX   Delta X   Delta X   Delta X     New X
                                 (Linear)    (Quad)   (Total)
    X1       -0.53864  -0.01447   0.00000   0.00000   0.00000  -0.53864
    Y1        0.00000  -0.00295   0.00000   0.00000   0.00000   0.00000
    Z1        0.00000   0.00000   0.00000   0.00000   0.00000   0.00000
    X2        0.53864   0.01447   0.00000   0.00000   0.00000   0.53864
    Y2        0.00000   0.00295   0.00000   0.00000   0.00000   0.00000
    Z2        0.00000  -0.00000   0.00000   0.00000   0.00000   0.00000
    R1        1.81353   0.06487   0.02381   0.05154   0.07552   1.88905
    R2        1.82040   0.06188   0.02311   0.05005   0.07333   1.89374
    R3        2.34790   0.11894   0.04670   0.03086   0.07770   2.42560
    R4        2.35238   0.11874   0.04687   0.02874   0.07572   2.42810
    R5        2.34790   0.11894   0.04670   0.03086   0.07770   2.42560
    R6        2.35238   0.11874   0.04687   0.02874   0.07572   2.42810
    R7        1.81353   0.06487   0.02381   0.05154   0.07552   1.88905
    R8        1.82040   0.06188   0.02311   0.05005   0.07333   1.89374
    A1        2.59253  -0.10638  -0.06403   0.03938  -0.02399   2.56854
    A2        2.68431   0.01890   0.01422   0.00379   0.01734   2.70165
    A3        1.00570   0.08724   0.04973  -0.04260   0.00711   1.01281
    A4        1.00635   0.08748   0.04980  -0.04317   0.00665   1.01299
    A5        2.68495   0.01914   0.01430   0.00322   0.01688   2.70184
    A6        1.67861  -0.06833  -0.03550   0.04640   0.01024   1.68884
    A7        1.67861  -0.06833  -0.03550   0.04640   0.01024   1.68884
    A8        2.68431   0.01890   0.01422   0.00379   0.01734   2.70165
    A9        1.00635   0.08748   0.04980  -0.04317   0.00665   1.01299
   A10        1.00570   0.08724   0.04973  -0.04260   0.00711   1.01281
   A11        2.68495   0.01914   0.01430   0.00322   0.01688   2.70184
   A12        2.59253  -0.10638  -0.06403   0.03938  -0.02399   2.56854
    D1        3.14159   0.00000   0.00000   0.00000   0.00000   3.14159
    D2        3.14159   0.00000   0.00000   0.00000   0.00000   3.14159
    D3        3.14159   0.00000   0.00000   0.00000   0.00000   3.14159
    D4        0.00000  -0.00000   0.00000  -0.00000   0.00000   0.00000
    D5       -0.00000   0.00000   0.00000   0.00000   0.00000   0.00000
    D6       -0.00000  -0.00000   0.00000  -0.00000   0.00000   0.00000
    D7        3.14159  -0.00000   0.00000  -0.00000   0.00000   3.14159
    D8        3.14159  -0.00000   0.00000  -0.00000   0.00000   3.14159
         Item               Value     Threshold  Converged?
 Maximum Force            0.118552     0.000450     NO 
 RMS     Force            0.069403     0.000300     NO 
 Maximum Displacement     0.066356     0.001800     NO 
 RMS     Displacement     0.026645     0.001200     NO 
 Predicted change in Energy=-5.505905D-02
 Lowest energy point so far.  Saving SCF results.
 GradGradGradGradGradGradGradGradGradGradGradGradGradGradGradGradGradGrad

 Leave Link  103 at Tue Nov 19 09:53:59 2024, MaxMem=   536870912 cpu:               0.1 elap:               0.0
 (Enter /home/szhao/Apps/g16/l202.exe)
                          Input orientation:                          
 ---------------------------------------------------------------------
 Center     Atomic      Atomic             Coordinates (Angstroms)
 Number     Number       Type             X           Y           Z
 ---------------------------------------------------------------------
      1          6           0       -0.285035    0.000000    0.000000
      2          6           0        0.285035    0.000000    0.000000
      3          1           0       -0.568594   -0.958579   -0.000000
      4          1           0       -0.567214    0.961574   -0.000000
      5          1           0        0.568594    0.958579    0.000000
      6          1           0        0.567214   -0.961574    0.000000
 ---------------------------------------------------------------------
                    Distance matrix (angstroms):
                    1          2          3          4          5
     1  C    0.000000
     2  C    0.570070   0.000000
     3  H    0.999640   1.283572   0.000000
     4  H    1.002122   1.284894   1.920154   0.000000
     5  H    1.283572   0.999640   2.229057   1.135813   0.000000
     6  H    1.284894   1.002122   1.135813   2.232806   1.920154
                    6
     6  H    0.000000
 Symmetry turned off by external request.
 Stoichiometry    C2H4
 Framework group  C2H[SGH(C2H4)]
 Deg. of freedom     5
 Full point group                 C2H     NOp   4
 Rotational constants (GHZ):         155.4995531         136.0063401          72.5505919
 Leave Link  202 at Tue Nov 19 09:53:59 2024, MaxMem=   536870912 cpu:               0.0 elap:               0.0
 (Enter /home/szhao/Apps/g16/l301.exe)
 Standard basis: 6-311+G(d,p) (5D, 7F)
 Ernie: Thresh=  0.10000D-02 Tol=  0.10000D-05 Strict=F.
    68 basis functions,   104 primitive gaussians,    70 cartesian basis functions
     8 alpha electrons        8 beta electrons
       nuclear repulsion energy        57.9534664337 Hartrees.
 IExCor= 4336 DFT=T Ex+Corr=M062X ExCW=0 ScaHFX=  0.540000
 ScaDFX=  1.000000  1.000000  1.000000  1.000000 ScalE2=  1.000000  1.000000
 IRadAn=      7 IRanWt=     -1 IRanGd=            0 ICorTp=0 IEmpDi=  4
 NAtoms=    6 NActive=    6 NUniq=    6 SFac= 1.00D+00 NAtFMM=   60 NAOKFM=F Big=F
 Integral buffers will be    131072 words long.
 Raffenetti 2 integral format.
 Two-electron integral symmetry is turned off.
 Leave Link  301 at Tue Nov 19 09:53:59 2024, MaxMem=   536870912 cpu:               0.3 elap:               0.0
 (Enter /home/szhao/Apps/g16/l302.exe)
 NPDir=0 NMtPBC=     1 NCelOv=     1 NCel=       1 NClECP=     1 NCelD=      1
         NCelK=      1 NCelE2=     1 NClLst=     1 CellRange=     0.0.
 One-electron integrals computed using PRISM.
 NBasis=    68 RedAO= T EigKep=  2.89D-05  NBF=    68
 NBsUse=    67 1.00D-06 EigRej=  8.89D-07 NBFU=    67
 Precomputing XC quadrature grid using
 IXCGrd= 4 IRadAn=           7 IRanWt=          -1 IRanGd=           0 AccXCQ= 0.00D+00.
 Generated NRdTot=       0 NPtTot=           0 NUsed=           0 NTot=          32
 NSgBfM=    70    70    70    70    70 MxSgAt=     6 MxSgA2=     6.
 Leave Link  302 at Tue Nov 19 09:53:59 2024, MaxMem=   536870912 cpu:               1.1 elap:               0.1
 (Enter /home/szhao/Apps/g16/l303.exe)
 DipDrv:  MaxL=1.
 Leave Link  303 at Tue Nov 19 09:53:59 2024, MaxMem=   536870912 cpu:               0.3 elap:               0.0
 (Enter /home/szhao/Apps/g16/l401.exe)
 Initial guess from the checkpoint file:  "opt.chk"
 B after Tr=     0.000000    0.000000    0.000000
         Rot=    1.000000   -0.000000    0.000000   -0.000056 Ang=  -0.01 deg.
 Guess basis will be translated and rotated to current coordinates.
 JPrj=2 DoOrth=T DoCkMO=T.
 Initial guess <Sx>= 0.0000 <Sy>= 0.0000 <Sz>= 0.0000 <S**2>=-0.0000 S=-0.0000
 Generating alternative initial guess.
 ExpMin= 4.38D-02 ExpMax= 4.56D+03 ExpMxC= 6.82D+02 IAcc=3 IRadAn=         5 AccDes= 0.00D+00
 Harris functional with IExCor= 1009 and IRadAn=       5 diagonalized for initial guess.
 HarFok:  IExCor= 1009 AccDes= 0.00D+00 IRadAn=         5 IDoV= 1 UseB2=F ITyADJ=14
 ICtDFT=  3500011 ScaDFX=  1.000000  1.000000  1.000000  1.000000
 FoFCou: FMM=F IPFlag=           0 FMFlag=      100000 FMFlg1=           0
         NFxFlg=           0 DoJE=T BraDBF=F KetDBF=T FulRan=T
         wScrn=  0.000000 ICntrl=       500 IOpCl=  0 I1Cent=   200000004 NGrid=           0
         NMat0=    1 NMatS0=      1 NMatT0=    0 NMatD0=    1 NMtDS0=    0 NMtDT0=    0
 Symmetry not used in FoFCou.
 Harris En= -75.3861400004364    
 Leave Link  401 at Tue Nov 19 09:53:59 2024, MaxMem=   536870912 cpu:               1.9 elap:               0.2
 (Enter /home/szhao/Apps/g16/l502.exe)
 Keep R1 and R2 ints in memory in canonical form, NReq=12681638.
 FoFCou: FMM=F IPFlag=           0 FMFlag=           0 FMFlg1=           0
         NFxFlg=           0 DoJE=F BraDBF=F KetDBF=F FulRan=T
         wScrn=  0.000000 ICntrl=       600 IOpCl=  0 I1Cent=           0 NGrid=           0
         NMat0=    1 NMatS0=   2346 NMatT0=    0 NMatD0=    1 NMtDS0=    0 NMtDT0=    0
 Symmetry not used in FoFCou.
 Two-electron integral symmetry not used.
 UHF open shell SCF:
 Using DIIS extrapolation, IDIIS=  1040.
 NGot=   536870912 LenX=   531353770 LenY=   531348429
 Requested convergence on RMS density matrix=1.00D-08 within 128 cycles.
 Requested convergence on MAX density matrix=1.00D-06.
 Requested convergence on             energy=1.00D-06.
 No special actions if energy rises.

 Cycle   1  Pass 1  IDiag  1:
 E= -74.4290870271403    
 DIIS: error= 9.58D-03 at cycle   1 NSaved=   1.
 NSaved= 1 IEnMin= 1 EnMin= -74.4290870271403     IErMin= 1 ErrMin= 9.58D-03
 ErrMax= 9.58D-03  0.00D+00 EMaxC= 1.00D-01 BMatC= 8.35D-03 BMatP= 8.35D-03
 IDIUse=3 WtCom= 9.04D-01 WtEn= 9.58D-02
 Coeff-Com:  0.100D+01
 Coeff-En:   0.100D+01
 Coeff:      0.100D+01
 Gap=     0.589 Goal=   None    Shift=    0.000
 Gap=     0.589 Goal=   None    Shift=    0.000
 GapD=    0.589 DampG=2.000 DampE=1.000 DampFc=2.0000 IDamp=-1.
 RMSDP=2.87D-03 MaxDP=6.63D-02              OVMax= 1.87D-02

 Cycle   2  Pass 1  IDiag  1:
 E= -74.4305447259721     Delta-E=       -0.001457698832 Rises=F Damp=F
 DIIS: error= 2.34D-03 at cycle   2 NSaved=   2.
 NSaved= 2 IEnMin= 2 EnMin= -74.4305447259721     IErMin= 2 ErrMin= 2.34D-03
 ErrMax= 2.34D-03  0.00D+00 EMaxC= 1.00D-01 BMatC= 9.21D-04 BMatP= 8.35D-03
 IDIUse=3 WtCom= 9.77D-01 WtEn= 2.34D-02
 Coeff-Com:  0.118D+00 0.882D+00
 Coeff-En:   0.000D+00 0.100D+01
 Coeff:      0.116D+00 0.884D+00
 Gap=     0.234 Goal=   None    Shift=    0.000
 Gap=     0.234 Goal=   None    Shift=    0.000
 RMSDP=6.39D-04 MaxDP=8.38D-03 DE=-1.46D-03 OVMax= 1.04D-02

 Cycle   3  Pass 1  IDiag  1:
 E= -74.4306324120543     Delta-E=       -0.000087686082 Rises=F Damp=F
 DIIS: error= 1.85D-03 at cycle   3 NSaved=   3.
 NSaved= 3 IEnMin= 3 EnMin= -74.4306324120543     IErMin= 3 ErrMin= 1.85D-03
 ErrMax= 1.85D-03  0.00D+00 EMaxC= 1.00D-01 BMatC= 7.56D-04 BMatP= 9.21D-04
 IDIUse=3 WtCom= 9.82D-01 WtEn= 1.85D-02
 Coeff-Com: -0.305D-01 0.479D+00 0.552D+00
 Coeff-En:   0.000D+00 0.354D+00 0.646D+00
 Coeff:     -0.300D-01 0.477D+00 0.553D+00
 Gap=     0.232 Goal=   None    Shift=    0.000
 Gap=     0.232 Goal=   None    Shift=    0.000
 RMSDP=3.99D-04 MaxDP=1.03D-02 DE=-8.77D-05 OVMax= 6.01D-03

 Cycle   4  Pass 1  IDiag  1:
 E= -74.4307818598849     Delta-E=       -0.000149447831 Rises=F Damp=F
 DIIS: error= 2.44D-04 at cycle   4 NSaved=   4.
 NSaved= 4 IEnMin= 4 EnMin= -74.4307818598849     IErMin= 4 ErrMin= 2.44D-04
 ErrMax= 2.44D-04  0.00D+00 EMaxC= 1.00D-01 BMatC= 7.05D-06 BMatP= 7.56D-04
 IDIUse=3 WtCom= 9.98D-01 WtEn= 2.44D-03
 Coeff-Com: -0.493D-02-0.975D-01-0.522D-01 0.115D+01
 Coeff-En:   0.000D+00 0.000D+00 0.000D+00 0.100D+01
 Coeff:     -0.492D-02-0.973D-01-0.521D-01 0.115D+01
 Gap=     0.232 Goal=   None    Shift=    0.000
 Gap=     0.232 Goal=   None    Shift=    0.000
 RMSDP=4.12D-04 MaxDP=1.23D-02 DE=-1.49D-04 OVMax= 2.59D-03

 Cycle   5  Pass 1  IDiag  1:
 E= -74.4307887258331     Delta-E=       -0.000006865948 Rises=F Damp=F
 DIIS: error= 7.16D-05 at cycle   5 NSaved=   5.
 NSaved= 5 IEnMin= 5 EnMin= -74.4307887258331     IErMin= 5 ErrMin= 7.16D-05
 ErrMax= 7.16D-05  0.00D+00 EMaxC= 1.00D-01 BMatC= 8.86D-07 BMatP= 7.05D-06
 IDIUse=1 WtCom= 1.00D+00 WtEn= 0.00D+00
 Coeff-Com:  0.283D-02-0.215D-01-0.523D-02-0.284D+00 0.131D+01
 Coeff:      0.283D-02-0.215D-01-0.523D-02-0.284D+00 0.131D+01
 Gap=     0.232 Goal=   None    Shift=    0.000
 Gap=     0.232 Goal=   None    Shift=    0.000
 RMSDP=1.43D-04 MaxDP=4.19D-03 DE=-6.87D-06 OVMax= 1.14D-03

 Cycle   6  Pass 1  IDiag  1:
 E= -74.4307895782362     Delta-E=       -0.000000852403 Rises=F Damp=F
 DIIS: error= 1.69D-05 at cycle   6 NSaved=   6.
 NSaved= 6 IEnMin= 6 EnMin= -74.4307895782362     IErMin= 6 ErrMin= 1.69D-05
 ErrMax= 1.69D-05  0.00D+00 EMaxC= 1.00D-01 BMatC= 3.61D-08 BMatP= 8.86D-07
 IDIUse=1 WtCom= 1.00D+00 WtEn= 0.00D+00
 Coeff-Com: -0.110D-03 0.345D-02 0.618D-02-0.386D-01-0.952D-01 0.112D+01
 Coeff:     -0.110D-03 0.345D-02 0.618D-02-0.386D-01-0.952D-01 0.112D+01
 Gap=     0.232 Goal=   None    Shift=    0.000
 Gap=     0.232 Goal=   None    Shift=    0.000
 RMSDP=2.26D-05 MaxDP=6.62D-04 DE=-8.52D-07 OVMax= 1.57D-04

 Cycle   7  Pass 1  IDiag  1:
 E= -74.4307895954996     Delta-E=       -0.000000017263 Rises=F Damp=F
 DIIS: error= 1.68D-06 at cycle   7 NSaved=   7.
 NSaved= 7 IEnMin= 7 EnMin= -74.4307895954996     IErMin= 7 ErrMin= 1.68D-06
 ErrMax= 1.68D-06  0.00D+00 EMaxC= 1.00D-01 BMatC= 4.28D-10 BMatP= 3.61D-08
 IDIUse=1 WtCom= 1.00D+00 WtEn= 0.00D+00
 Coeff-Com: -0.767D-04 0.368D-03 0.338D-03 0.125D-01-0.211D-01-0.127D+00
 Coeff-Com:  0.113D+01
 Coeff:     -0.767D-04 0.368D-03 0.338D-03 0.125D-01-0.211D-01-0.127D+00
 Coeff:      0.113D+01
 Gap=     0.232 Goal=   None    Shift=    0.000
 Gap=     0.232 Goal=   None    Shift=    0.000
 RMSDP=1.90D-06 MaxDP=5.58D-05 DE=-1.73D-08 OVMax= 1.34D-05

 Cycle   8  Pass 1  IDiag  1:
 E= -74.4307895956997     Delta-E=       -0.000000000200 Rises=F Damp=F
 DIIS: error= 5.16D-07 at cycle   8 NSaved=   8.
 NSaved= 8 IEnMin= 8 EnMin= -74.4307895956997     IErMin= 8 ErrMin= 5.16D-07
 ErrMax= 5.16D-07  0.00D+00 EMaxC= 1.00D-01 BMatC= 3.78D-11 BMatP= 4.28D-10
 IDIUse=1 WtCom= 1.00D+00 WtEn= 0.00D+00
 Coeff-Com:  0.172D-04-0.271D-03-0.158D-03-0.507D-03 0.704D-02-0.292D-01
 Coeff-Com: -0.150D+00 0.117D+01
 Coeff:      0.172D-04-0.271D-03-0.158D-03-0.507D-03 0.704D-02-0.292D-01
 Coeff:     -0.150D+00 0.117D+01
 Gap=     0.232 Goal=   None    Shift=    0.000
 Gap=     0.232 Goal=   None    Shift=    0.000
 RMSDP=1.90D-07 MaxDP=2.06D-06 DE=-2.00D-10 OVMax= 2.34D-06

 Cycle   9  Pass 1  IDiag  1:
 E= -74.4307895957127     Delta-E=       -0.000000000013 Rises=F Damp=F
 DIIS: error= 3.96D-08 at cycle   9 NSaved=   9.
 NSaved= 9 IEnMin= 9 EnMin= -74.4307895957127     IErMin= 9 ErrMin= 3.96D-08
 ErrMax= 3.96D-08  0.00D+00 EMaxC= 1.00D-01 BMatC= 1.46D-13 BMatP= 3.78D-11
 IDIUse=1 WtCom= 1.00D+00 WtEn= 0.00D+00
 Coeff-Com: -0.164D-06 0.230D-04 0.246D-05-0.160D-03-0.304D-03 0.546D-02
 Coeff-Com: -0.544D-02-0.162D+00 0.116D+01
 Coeff:     -0.164D-06 0.230D-04 0.246D-05-0.160D-03-0.304D-03 0.546D-02
 Coeff:     -0.544D-02-0.162D+00 0.116D+01
 Gap=     0.232 Goal=   None    Shift=    0.000
 Gap=     0.232 Goal=   None    Shift=    0.000
 RMSDP=5.44D-08 MaxDP=1.52D-06 DE=-1.30D-11 OVMax= 4.41D-07

 Cycle  10  Pass 1  IDiag  1:
 E= -74.4307895957128     Delta-E=       -0.000000000000 Rises=F Damp=F
 DIIS: error= 3.30D-09 at cycle  10 NSaved=  10.
 NSaved=10 IEnMin=10 EnMin= -74.4307895957128     IErMin=10 ErrMin= 3.30D-09
 ErrMax= 3.30D-09  0.00D+00 EMaxC= 1.00D-01 BMatC= 1.50D-15 BMatP= 1.46D-13
 IDIUse=1 WtCom= 1.00D+00 WtEn= 0.00D+00
 Coeff-Com: -0.166D-06 0.197D-05 0.314D-05 0.994D-05-0.452D-04 0.323D-04
 Coeff-Com:  0.268D-02-0.481D-02-0.743D-01 0.108D+01
 Coeff:     -0.166D-06 0.197D-05 0.314D-05 0.994D-05-0.452D-04 0.323D-04
 Coeff:      0.268D-02-0.481D-02-0.743D-01 0.108D+01
 Gap=     0.232 Goal=   None    Shift=    0.000
 Gap=     0.232 Goal=   None    Shift=    0.000
 RMSDP=1.24D-08 MaxDP=3.88D-07 DE=-1.14D-13 OVMax= 3.15D-08

 Cycle  11  Pass 1  IDiag  1:
 E= -74.4307895957128     Delta-E=        0.000000000000 Rises=F Damp=F
 DIIS: error= 4.14D-10 at cycle  11 NSaved=  11.
 NSaved=11 IEnMin=10 EnMin= -74.4307895957128     IErMin=11 ErrMin= 4.14D-10
 ErrMax= 4.14D-10  0.00D+00 EMaxC= 1.00D-01 BMatC= 2.39D-17 BMatP= 1.50D-15
 IDIUse=1 WtCom= 1.00D+00 WtEn= 0.00D+00
 Coeff-Com:  0.217D-07-0.420D-06-0.560D-06 0.735D-06 0.872D-05-0.723D-04
 Coeff-Com: -0.147D-03 0.117D-02 0.156D-02-0.172D+00 0.117D+01
 Coeff:      0.217D-07-0.420D-06-0.560D-06 0.735D-06 0.872D-05-0.723D-04
 Coeff:     -0.147D-03 0.117D-02 0.156D-02-0.172D+00 0.117D+01
 Gap=     0.232 Goal=   None    Shift=    0.000
 Gap=     0.232 Goal=   None    Shift=    0.000
 RMSDP=2.18D-09 MaxDP=6.86D-08 DE= 8.53D-14 OVMax= 5.28D-09

 SCF Done:  E(UM062X) =  -74.4307895957     A.U. after   11 cycles
            NFock= 11  Conv=0.22D-08     -V/T= 1.8562
 <Sx>= 0.0000 <Sy>= 0.0000 <Sz>= 0.0000 <S**2>=-0.0000 S=-0.0000
 <L.S>=  0.00000000000    
 KE= 8.692981149820D+01 PE=-2.952690365261D+02 EE= 7.595496899845D+01
 Annihilation of the first spin contaminant:
 S**2 before annihilation    -0.0000,   after     0.0000
 Leave Link  502 at Tue Nov 19 09:54:06 2024, MaxMem=   536870912 cpu:              54.4 elap:               6.9
 (Enter /home/szhao/Apps/g16/l701.exe)
 ... and contract with generalized density number  0.
 Compute integral first derivatives.
 Leave Link  701 at Tue Nov 19 09:54:06 2024, MaxMem=   536870912 cpu:               0.7 elap:               0.1
 (Enter /home/szhao/Apps/g16/l702.exe)
 L702 exits ... SP integral derivatives will be done elsewhere.
 Leave Link  702 at Tue Nov 19 09:54:07 2024, MaxMem=   536870912 cpu:               0.3 elap:               0.0
 (Enter /home/szhao/Apps/g16/l703.exe)
 Integral derivatives from FoFJK, PRISM(SPDF).
 Compute integral first derivatives, UseDBF=F ICtDFT=           0.
 Calling FoFJK, ICntrl=      2127 FMM=F ISym2X=0 I1Cent= 0 IOpClX= 1 NMat=1 NMatS=1 NMatT=0.
 FoFJK:  IHMeth= 1 ICntrl=    2127 DoSepK=F KAlg= 0 I1Cent=           0 FoldK=F
 IRaf=         0 NMat=       1 IRICut=       1 DoRegI=T DoRafI=F ISym2E= 0 IDoP0=0 IntGTp=1.
 FoFCou: FMM=F IPFlag=           0 FMFlag=      100000 FMFlg1=         800
         NFxFlg=           0 DoJE=F BraDBF=F KetDBF=F FulRan=T
         wScrn=  0.000000 ICntrl=      2127 IOpCl=  1 I1Cent=           0 NGrid=           0
         NMat0=    1 NMatS0=      1 NMatT0=    0 NMatD0=    1 NMtDS0=    0 NMtDT0=    0
 Symmetry not used in FoFCou.
 Leave Link  703 at Tue Nov 19 09:54:07 2024, MaxMem=   536870912 cpu:               7.4 elap:               0.9
 (Enter /home/szhao/Apps/g16/l716.exe)
 Dipole        =-2.25385155D-09-5.18429744D-11 8.51978568D-11
 -------------------------------------------------------------------
 Center     Atomic                   Forces (Hartrees/Bohr)
 Number     Number              X              Y              Z
 -------------------------------------------------------------------
      1        6          -0.000000000   -0.000000000   -0.000000000
      2        6          -0.000000000   -0.000000000   -0.000000000
      3        1          -0.227753757   -0.041666689   -0.000000000
      4        1          -0.226894726    0.040887015   -0.000000000
      5        1           0.227753758    0.041666689    0.000000000
      6        1           0.226894726   -0.040887015    0.000000000
 -------------------------------------------------------------------
 Cartesian Forces:  Max     0.227753758 RMS     0.108914264
 Leave Link  716 at Tue Nov 19 09:54:08 2024, MaxMem=   536870912 cpu:               0.3 elap:               0.0
 (Enter /home/szhao/Apps/g16/l103.exe)

 GradGradGradGradGradGradGradGradGradGradGradGradGradGradGradGradGradGrad
 Berny optimization.
 Using GEDIIS/GDIIS optimizer.
 FormGI is forming the generalized inverse of G from B-inverse, IUseBI=4.
 Internal  Forces:  Max     0.103571621 RMS     0.056943750
 Search for a local minimum.
 Step number   3 out of a maximum of   44
 All quantities printed in internal units (Hartrees-Bohrs-Radians)
 RMS Force = .62284D-01 SwitMx=.10000D-02 MixMth= 1
 Mixed Optimization -- RFO/linear search
 Update second derivatives using D2CorX and points    1    2    3
 DE= -5.57D-02 DEPred=-5.51D-02 R= 1.01D+00
 TightC=F SS=  1.41D+00  RLast= 2.20D-01 DXNew= 5.0454D-01 6.6015D-01
 Trust test= 1.01D+00 RLast= 2.20D-01 DXMaxT set to 5.05D-01
 ITU=  1  1  0
 Use linear search instead of GDIIS.
[...]
     Eigenvalues ---    0.14592   0.16011   0.16467   0.33204   0.39275
     Eigenvalues ---    0.403101000.000001000.000001000.000001000.00000
     Eigenvalues --- 1000.000001000.000001000.000001000.000001000.00000
     Eigenvalues --- 1000.000001000.000001000.000001000.000001000.00000
     Eigenvalues --- 1000.000001000.000001000.000001000.000001000.00000
     Eigenvalues --- 1000.000001000.000001000.000001000.00000
 En-DIIS/RFO-DIIS/Sim-DIIS IScMMF=       -3 using points:    27   26   25   24   23
 RFO step:  Lambda=-1.13627772D-09.
 NNeg= 0 NGDIIS= 5 SimSw=  2.50D-01 Rises=F DC= -6.19D-08 SmlDif=  1.00D-05
 NRisDI= 0 DoIntr=F SqrtH=F CThrHd= 10.0 CDAdj=  3.0
 RMS Error=  0.1431190263D-03 NUsed= 5 OKEnD=F EnDIS=F
 InvSVX:  RCond= 4.57D-08 Info=           0 Equed=N FErr=  1.62D-12 BErr=  8.56D-17
 DIIS inversion failure, remove point   5.
 InvSVX:  RCond= 1.45D-06 Info=           0 Equed=N FErr=  3.96D-14 BErr=  1.55D-17
 RFO-DIIS uses    4 points instead of    5
 DidBck=F Rises=F RFO-DIIS coefs:    0.86816    0.12817    0.00298    0.00069    0.00000
 Iteration  1 RMS(Cart)=  0.00011810 RMS(Int)=  0.00000002
 Iteration  2 RMS(Cart)=  0.00000001 RMS(Int)=  0.00000001
 ITry= 1 IFail=0 DXMaxC= 3.88D-04 DCOld= 1.00D+10 DXMaxT= 2.40D+00 DXLimC= 3.00D+00 Rises=F
 Variable       Old X    -DE/DX   Delta X   Delta X   Delta X     New X
                                 (Linear)    (Quad)   (Total)
    X1       -0.55097  -0.00000   0.00000   0.00000   0.00000  -0.55097
    Y1       -0.00000  -0.00001  -0.00000   0.00000   0.00000  -0.00000
    Z1        0.00000   0.00001   0.00000   0.00000   0.00000   0.00000
    X2        0.55097   0.00000   0.00000   0.00000   0.00000   0.55097
    Y2       -0.00000   0.00001   0.00000   0.00000   0.00000  -0.00000
    Z2       -0.00000   0.00001  -0.00000   0.00000   0.00000  -0.00000
    R1        3.20057   0.00001   0.00040   0.00001   0.00042   3.20099
    R2        2.04657  -0.00001  -0.00001  -0.00002  -0.00003   2.04654
    R3        3.91424  -0.00000   0.00040  -0.00001   0.00039   3.91463
    R4        3.14082  -0.00000  -0.00000  -0.00002  -0.00002   3.14080
    R5        3.91424  -0.00000   0.00040  -0.00001   0.00039   3.91463
    R6        3.14082  -0.00000  -0.00000  -0.00002  -0.00002   3.14080
    R7        3.20058   0.00001   0.00040   0.00001   0.00042   3.20099
    R8        2.04657  -0.00001  -0.00001  -0.00002  -0.00003   2.04654
    A1        1.13770  -0.00000  -0.00009  -0.00000  -0.00009   1.13761
    A2        2.90382  -0.00000   0.00003  -0.00001   0.00002   2.90384
    A3        2.05514  -0.00000   0.00006  -0.00001   0.00005   2.05519
    A4        2.24167   0.00000   0.00007   0.00001   0.00007   2.24174
    A5        3.09035   0.00000   0.00003   0.00001   0.00004   3.09039
    A6        0.84868   0.00000  -0.00004   0.00000  -0.00003   0.84865
    A7        0.84868   0.00000  -0.00004   0.00000  -0.00003   0.84865
    A8        2.90382  -0.00000   0.00003  -0.00001   0.00002   2.90384
    A9        2.24167   0.00000   0.00007   0.00001   0.00007   2.24174
   A10        2.05514  -0.00000   0.00006  -0.00001   0.00005   2.05519
   A11        3.09035   0.00000   0.00003   0.00001   0.00004   3.09039
   A12        1.13770  -0.00000  -0.00009  -0.00000  -0.00009   1.13761
    D1       -3.14143  -0.00000   0.00000  -0.00003  -0.00002  -3.14146
    D2        3.13931   0.00000  -0.00002   0.00009   0.00007   3.13938
    D3       -3.14151  -0.00000   0.00000  -0.00001  -0.00001  -3.14152
    D4        0.00237  -0.00000   0.00002  -0.00010  -0.00008   0.00229
    D5       -0.00026   0.00000  -0.00001   0.00004   0.00003  -0.00023
    D6        0.00233  -0.00000   0.00000  -0.00003  -0.00002   0.00231
    D7       -3.14155  -0.00000   0.00000  -0.00001  -0.00001  -3.14156
    D8        3.13930   0.00000  -0.00000   0.00001   0.00001   3.13931
         Item               Value     Threshold  Converged?
 Maximum Force            0.000005     0.000450     YES
 RMS     Force            0.000003     0.000300     YES
 Maximum Displacement     0.000388     0.001800     YES
 RMS     Displacement     0.000118     0.001200     YES
 Predicted change in Energy=-2.211821D-09
 Optimization completed.
    -- Stationary point found.
                           ----------------------------
                           !   Optimized Parameters   !
                           ! (Angstroms and Degrees)  !
 --------------------------                            --------------------------
 ! Name  Definition              Value          Derivative Info.                !
 --------------------------------------------------------------------------------
 ! X1    R(1,-1)                -0.2916         -DE/DX =    0.0                 !
 ! Y1    R(1,-2)                 0.0            -DE/DX =    0.0                 !
 ! Z1    R(1,-3)                 0.0            -DE/DX =    0.0                 !
 ! X2    R(2,-1)                 0.2916         -DE/DX =    0.0                 !
 ! Y2    R(2,-2)                 0.0            -DE/DX =    0.0                 !
 ! Z2    R(2,-3)                 0.0            -DE/DX =    0.0                 !
 ! R1    R(1,3)                  1.6937         -DE/DX =    0.0                 !
 ! R2    R(1,4)                  1.083          -DE/DX =    0.0                 !
 ! R3    R(1,5)                  2.0713         -DE/DX =    0.0                 !
 ! R4    R(1,6)                  1.6621         -DE/DX =    0.0                 !
 ! R5    R(2,3)                  2.0713         -DE/DX =    0.0                 !
 ! R6    R(2,4)                  1.6621         -DE/DX =    0.0                 !
 ! R7    R(2,5)                  1.6937         -DE/DX =    0.0                 !
 ! R8    R(2,6)                  1.083          -DE/DX =    0.0                 !
 ! A1    A(3,1,4)               65.1853         -DE/DX =    0.0                 !
 ! A2    A(3,1,5)              166.3765         -DE/DX =    0.0                 !
 ! A3    A(3,1,6)              117.7507         -DE/DX =    0.0                 !
 ! A4    A(4,1,5)              128.4381         -DE/DX =    0.0                 !
 ! A5    A(4,1,6)              177.0639         -DE/DX =    0.0                 !
 ! A6    A(5,1,6)               48.6258         -DE/DX =    0.0                 !
 ! A7    A(3,2,4)               48.6258         -DE/DX =    0.0                 !
 ! A8    A(3,2,5)              166.3765         -DE/DX =    0.0                 !
 ! A9    A(3,2,6)              128.4381         -DE/DX =    0.0                 !
 ! A10   A(4,2,5)              117.7507         -DE/DX =    0.0                 !
 ! A11   A(4,2,6)              177.0639         -DE/DX =    0.0                 !
 ! A12   A(5,2,6)               65.1854         -DE/DX =    0.0                 !
 ! D1    D(3,1,5,4)           -179.9909         -DE/DX =    0.0                 !
 ! D2    D(3,1,6,4)            179.8691         -DE/DX =    0.0                 !
 ! D3    D(3,1,6,5)           -179.9952         -DE/DX =    0.0                 !
 ! D4    D(4,1,6,5)              0.1357         -DE/DX =    0.0                 !
 ! D5    D(3,2,5,4)             -0.0148         -DE/DX =    0.0                 !
 ! D6    D(3,2,6,4)              0.1335         -DE/DX =    0.0                 !
 ! D7    D(3,2,6,5)           -179.9978         -DE/DX =    0.0                 !
 ! D8    D(4,2,6,5)            179.8686         -DE/DX =    0.0                 !
 --------------------------------------------------------------------------------
 Lowest energy point so far.  Saving SCF results.
 Largest change from initial coordinates is atom    4       1.134 Angstoms.
 GradGradGradGradGradGradGradGradGradGradGradGradGradGradGradGradGradGrad

 Leave Link  103 at Tue Nov 19 09:57:52 2024, MaxMem=   536870912 cpu:               0.1 elap:               0.0
 (Enter /home/szhao/Apps/g16/l202.exe)
                          Input orientation:                          
 ---------------------------------------------------------------------
 Center     Atomic      Atomic             Coordinates (Angstroms)
 Number     Number       Type             X           Y           Z
 ---------------------------------------------------------------------
      1          6           0       -0.291560   -0.000000    0.000000
      2          6           0        0.291560   -0.000000   -0.000000
      3          1           0       -1.219189   -1.417049    0.000506
      4          1           0       -1.362953    0.158112   -0.000123
      5          1           0        1.219189    1.417049   -0.000406
      6          1           0        1.362953   -0.158112   -0.000033
 ---------------------------------------------------------------------
                    Distance matrix (angstroms):
                    1          2          3          4          5
     1  C    0.000000
     2  C    0.583120   0.000000
     3  H    1.693671   2.071326   0.000000
     4  H    1.082997   1.662051   1.581708   0.000000
     5  H    2.071326   1.693671   3.738689   2.872695   0.000000
     6  H    1.662051   1.082997   2.872695   2.744187   1.581709
                    6
     6  H    0.000000
 Symmetry turned off by external request.
 Stoichiometry    C2H4
 Framework group  C1[X(C2H4)]
 Deg. of freedom    12
 Full point group                 C1      NOp   1
 Rotational constants (GHZ):         194.6913647          49.1484230          39.2420518
 Leave Link  202 at Tue Nov 19 09:57:52 2024, MaxMem=   536870912 cpu:               0.0 elap:               0.0
 (Enter /home/szhao/Apps/g16/l601.exe)
 Copying SCF densities to generalized density rwf, IOpCl= 1 IROHF=0.

 **********************************************************************

            Population analysis using the SCF density.

 **********************************************************************

 Alpha  occ. eigenvalues --  -11.10243 -10.59148  -0.84923  -0.71190  -0.69951
 Alpha  occ. eigenvalues --   -0.59851  -0.43372  -0.23221
 Alpha virt. eigenvalues --   -0.11438   0.02702   0.03117   0.04282   0.07715
 Alpha virt. eigenvalues --    0.08966   0.09515   0.10906   0.16340   0.22440
 Alpha virt. eigenvalues --    0.22746   0.26239   0.28655   0.39398   0.42139
 Alpha virt. eigenvalues --    0.46780   0.47683   0.51545   0.52321   0.66821
 Alpha virt. eigenvalues --    0.69123   0.79965   0.80867   0.83403   0.87478
 Alpha virt. eigenvalues --    1.10359   1.16724   1.28769   1.30669   1.32813
 Alpha virt. eigenvalues --    1.40428   1.43649   1.54069   1.69448   1.70943
 Alpha virt. eigenvalues --    1.73306   1.79960   1.90147   1.91115   1.97769
 Alpha virt. eigenvalues --    2.13249   2.17687   2.20079   2.42720   2.44414
 Alpha virt. eigenvalues --    2.49867   2.52591   2.63680   2.72129   2.74147
 Alpha virt. eigenvalues --    2.77479   2.78735   3.05083   3.25470   3.78801
 Alpha virt. eigenvalues --    3.96071   4.08168   6.58805  24.96121  25.51338
  Beta  occ. eigenvalues --  -11.10243 -10.59148  -0.84923  -0.71190  -0.69951
  Beta  occ. eigenvalues --   -0.59851  -0.43372  -0.23221
  Beta virt. eigenvalues --   -0.11438   0.02702   0.03117   0.04282   0.07715
  Beta virt. eigenvalues --    0.08966   0.09515   0.10906   0.16340   0.22440
  Beta virt. eigenvalues --    0.22746   0.26239   0.28655   0.39398   0.42139
  Beta virt. eigenvalues --    0.46780   0.47683   0.51545   0.52321   0.66821
  Beta virt. eigenvalues --    0.69123   0.79965   0.80867   0.83403   0.87478
  Beta virt. eigenvalues --    1.10359   1.16724   1.28769   1.30669   1.32813
  Beta virt. eigenvalues --    1.40428   1.43649   1.54069   1.69448   1.70943
  Beta virt. eigenvalues --    1.73306   1.79960   1.90147   1.91115   1.97769
  Beta virt. eigenvalues --    2.13249   2.17687   2.20079   2.42720   2.44414
  Beta virt. eigenvalues --    2.49867   2.52591   2.63680   2.72129   2.74147
  Beta virt. eigenvalues --    2.77479   2.78735   3.05083   3.25470   3.78801
  Beta virt. eigenvalues --    3.96071   4.08168   6.58805  24.96121  25.51338
          Condensed to atoms (all electrons):
               1          2          3          4          5          6
     1  C   21.296064 -15.550657  -0.026010  -0.134975   0.075130   0.511987
     2  C  -15.550657  21.296063   0.075129   0.511988  -0.026011  -0.134974
     3  H   -0.026010   0.075129   1.072414  -0.094495   0.028254  -0.030468
     4  H   -0.134975   0.511988  -0.094495   0.537663  -0.030468   0.013923
     5  H    0.075130  -0.026011   0.028254  -0.030468   1.072414  -0.094495
     6  H    0.511987  -0.134974  -0.030468   0.013923  -0.094495   0.537663
          Atomic-Atomic Spin Densities.
               1          2          3          4          5          6
     1  C    0.000000  -0.000000  -0.000000   0.000000  -0.000000   0.000000
     2  C   -0.000000   0.000000   0.000000  -0.000000   0.000000  -0.000000
     3  H   -0.000000   0.000000   0.000000  -0.000000  -0.000000   0.000000
     4  H    0.000000  -0.000000  -0.000000   0.000000  -0.000000   0.000000
     5  H   -0.000000   0.000000  -0.000000  -0.000000  -0.000000   0.000000
     6  H    0.000000  -0.000000   0.000000   0.000000   0.000000  -0.000000
 Mulliken charges and spin densities:
               1          2
     1  C   -0.171539  -0.000000
     2  C   -0.171539   0.000000
     3  H   -0.024824   0.000000
     4  H    0.196363   0.000000
     5  H   -0.024824  -0.000000
     6  H    0.196363  -0.000000
 Sum of Mulliken charges =   0.00000  -0.00000
 Mulliken charges and spin densities with hydrogens summed into heavy atoms:
               1          2
     1  C   -0.000000  -0.000000
     2  C    0.000000   0.000000
 Electronic spatial extent (au):  <R**2>=             74.2570
 Charge=             -0.0000 electrons
 Dipole moment (field-independent basis, Debye):
    X=             -0.0000    Y=             -0.0000    Z=             -0.0001  Tot=              0.0001
 Quadrupole moment (field-independent basis, Debye-Ang):
   XX=            -13.6976   YY=            -16.2634   ZZ=            -13.3629
   XY=             -2.7161   XZ=              0.0009   YZ=              0.0009
 Traceless Quadrupole moment (field-independent basis, Debye-Ang):
   XX=              0.7437   YY=             -1.8221   ZZ=              1.0784
   XY=             -2.7161   XZ=              0.0009   YZ=              0.0009
 Octapole moment (field-independent basis, Debye-Ang**2):
  XXX=             -0.0000  YYY=             -0.0000  ZZZ=             -0.0003  XYY=             -0.0000
  XXY=             -0.0000  XXZ=             -0.0005  XZZ=             -0.0000  YZZ=             -0.0000
  YYZ=             -0.0002  XYZ=             -0.0001
 Hexadecapole moment (field-independent basis, Debye-Ang**3):
 XXXX=            -69.4253 YYYY=            -66.7132 ZZZZ=            -13.6511 XXXY=            -23.8747
 XXXZ=              0.0077 YYYX=            -25.3434 YYYZ=              0.0093 ZZZX=              0.0064
 ZZZY=              0.0077 XXYY=            -27.2450 XXZZ=            -14.3039 YYZZ=            -12.5596
 XXYZ=              0.0042 YYXZ=              0.0039 ZZXY=             -6.6443
 N-N= 5.054083808046D+01 E-N=-2.805751323585D+02  KE= 8.477996070732D+01
                          Isotropic Fermi Contact Couplings
        Atom                 a.u.       MegaHertz       Gauss      10(-4) cm-1
     1  C(13)              0.00000       0.00000       0.00000       0.00000
     2  C(13)             -0.00000      -0.00000      -0.00000      -0.00000
     3  H(1)               0.00000       0.00000       0.00000       0.00000
     4  H(1)               0.00000       0.00000       0.00000       0.00000
     5  H(1)              -0.00000      -0.00000      -0.00000      -0.00000
     6  H(1)              -0.00000      -0.00000      -0.00000      -0.00000
 --------------------------------------------------------
       Center         ----  Spin Dipole Couplings  ----
                      3XX-RR        3YY-RR        3ZZ-RR
 --------------------------------------------------------
     1   Atom        0.000000     -0.000000      0.000000
     2   Atom       -0.000000      0.000000     -0.000000
     3   Atom        0.000000     -0.000000      0.000000
     4   Atom       -0.000000      0.000000     -0.000000
     5   Atom       -0.000000      0.000000     -0.000000
     6   Atom        0.000000     -0.000000      0.000000
 --------------------------------------------------------
                        XY            XZ            YZ
 --------------------------------------------------------
     1   Atom        0.000000     -0.000000      0.000000
     2   Atom       -0.000000      0.000000     -0.000000
     3   Atom       -0.000000      0.000000      0.000000
     4   Atom       -0.000000      0.000000     -0.000000
     5   Atom        0.000000     -0.000000     -0.000000
     6   Atom        0.000000     -0.000000      0.000000
 --------------------------------------------------------


 ---------------------------------------------------------------------------------
              Anisotropic Spin Dipole Couplings in Principal Axis System
 ---------------------------------------------------------------------------------

       Atom             a.u.   MegaHertz   Gauss  10(-4) cm-1        Axes

              Baa    -0.0000    -0.000    -0.000    -0.000 -0.2832  0.9591 -0.0000
     1 C(13)  Bbb     0.0000     0.000     0.000     0.000  0.0000  0.0000  1.0000
              Bcc     0.0000     0.000     0.000     0.000  0.9591  0.2832 -0.0001
 
              Baa    -0.0000    -0.000    -0.000    -0.000  0.9593  0.2823  0.0001
     2 C(13)  Bbb    -0.0000    -0.000    -0.000    -0.000 -0.0003  0.0004  1.0000
              Bcc     0.0000     0.000     0.000     0.000 -0.2823  0.9593 -0.0004
 
              Baa    -0.0000    -0.000    -0.000    -0.000  0.4909  0.8712 -0.0003
     3 H(1)   Bbb     0.0000     0.000     0.000     0.000  0.8712 -0.4909  0.0002
              Bcc     0.0000     0.000     0.000     0.000 -0.0000  0.0004  1.0000
 
              Baa    -0.0000    -0.000    -0.000    -0.000 -0.0001  0.0004  1.0000
     4 H(1)   Bbb    -0.0000    -0.000    -0.000    -0.000  0.9952  0.0979  0.0000
              Bcc     0.0000     0.000     0.000     0.000 -0.0979  0.9952 -0.0004
 
              Baa    -0.0000    -0.000    -0.000    -0.000  0.0000  0.0003  1.0000
     5 H(1)   Bbb    -0.0000    -0.000    -0.000    -0.000  0.8708 -0.4917  0.0001
              Bcc     0.0000     0.000     0.000     0.000  0.4917  0.8708 -0.0002
 
              Baa    -0.0000    -0.000    -0.000    -0.000 -0.0982  0.9952 -0.0002
     6 H(1)   Bbb     0.0000     0.000     0.000     0.000  0.9952  0.0982 -0.0000
              Bcc     0.0000     0.000     0.000     0.000  0.0000  0.0002  1.0000
 

 ---------------------------------------------------------------------------------

 No NMR shielding tensors so no spin-rotation constants.
 Leave Link  601 at Tue Nov 19 09:57:52 2024, MaxMem=   536870912 cpu:               1.4 elap:               0.2
 (Enter /home/szhao/Apps/g16/l9999.exe)
 1\1\GINC-NODE01\FOpt\UM062X\6-311+G(d,p)\C2H4\SZHAO\19-Nov-2024\0\\#p 
 opt UM062X/6-311+G** nosymm int=superfine\\Title Card Required\\0,1\C,
 -0.2915600736,0.,0.\C,0.2915600736,0.,0.\H,-1.2191887653,-1.417048728,
 0.0005055659\H,-1.3629532,0.1581123336,-0.0001234173\H,1.2191887929,1.
 4170489775,-0.0004056212\H,1.3629531899,-0.1581124375,-0.0000329736\\V
 ersion=ES64L-G16RevA.03\HF=-75.138793\S2=0.\S2-1=0.\S2A=0.\RMSD=5.317e
 -09\RMSF=4.768e-06\Dipole=-0.0000003,-0.0000003,-0.0000558\Quadrupole=
 0.5529261,-1.354706,0.8017799,-2.0193296,0.0006382,0.0006927\PG=C01 [X
 (C2H4)]\\@


 MUD THROWN IS GROUND LOST -- FROM A TEA BAG
 Job cpu time:       0 days  0 hours 32 minutes 33.3 seconds.
 Elapsed time:       0 days  0 hours  4 minutes  8.3 seconds.
 File lengths (MBytes):  RWF=     10 Int=      0 D2E=      0 Chk=      2 Scr=      1
 Normal termination of Gaussian 16 at Tue Nov 19 09:57:52 2024.
