Title Card Required                                                     
FOpt      UM062X                                                      6-311+G(d,p)        
Number of atoms                            I                4
Info1-9                                    I   N=           9
          13          13           0           0           0         110
           2          18        -502
Full Title                                 C   N=           2
Title Card Required     
Route                                      C   N=           5
#p opt UM062X/6-311+G** nosymm int=superfine SCF=NoVarAcc   
Charge                                     I                0
Multiplicity                               I                1
Number of electrons                        I               14
Number of alpha electrons                  I                7
Number of beta electrons                   I                7
Number of basis functions                  I               56
Number of independent functions            I               56
Number of point charges in /Mol/           I                0
Number of translation vectors              I                0
Atomic numbers                             I   N=           4
           6           6           1           1
Nuclear charges                            R   N=           4
  6.00000000E+00  6.00000000E+00  1.00000000E+00  1.00000000E+00
Current cartesian coordinates              R   N=          12
 -5.54185808E+00  0.00000000E+00  0.00000000E+00  5.54185808E+00  0.00000000E+00
  0.00000000E+00 -7.65992892E+00 -2.02992357E-05  2.02992598E-05  7.65992884E+00
  1.54201809E-05 -1.54202186E-05
Number of symbols in /Mol/                 I                0
Force Field                                I                0
Atom Types                                 C   N=           4
                                                
Int Atom Types                             I   N=           4
           0           0           0           0
MM charges                                 R   N=           4
  0.00000000E+00  0.00000000E+00  0.00000000E+00  0.00000000E+00
Integer atomic weights                     I   N=           4
          12          12           1           1
Real atomic weights                        R   N=           4
  1.20000000E+01  1.20000000E+01  1.00782504E+00  1.00782504E+00
Atom fragment info                         I   N=           4
           0           0           0           0
Atom residue num                           I   N=           4
           0           0           0           0
Nuclear spins                              I   N=           4
           0           0           1           1
Nuclear ZEff                               R   N=           4
 -3.60000000E+00 -3.60000000E+00 -1.00000000E+00 -1.00000000E+00
Nuclear ZNuc                               R   N=           4
  6.00000000E+00  6.00000000E+00  1.00000000E+00  1.00000000E+00
Nuclear QMom                               R   N=           4
  0.00000000E+00  0.00000000E+00  0.00000000E+00  0.00000000E+00
Nuclear GFac                               R   N=           4
  0.00000000E+00  0.00000000E+00  2.79284600E+00  2.79284600E+00
MicOpt                                     I   N=           4
          -2          -2          -1          -1
Number of residues                         I                0
Number of secondary structures             I                0
Redundant internal dimensions              I   N=           4
          12           8           4           0
Redundant internal coordinate indices      I   N=          48
           1          -1           0           0           1          -2
           0           0           1          -3           0           0
           2          -1           0           0           2          -2
           0           0           2          -3           0           0
           1           3           0           0           2           4
           0           0           2           1           3          -4
           1           2           4          -4           2           1
           3          -8           1           2           4          -8
Redundant internal coordinates             R   N=          12
 -5.54185808E+00  0.00000000E+00  0.00000000E+00  5.54185808E+00  0.00000000E+00
  0.00000000E+00  2.11807084E+00  2.11807076E+00  3.14158307E+00  3.14158537E+00
  3.14158307E+00  3.14158537E+00
ZRed-IntVec                                I   N=          12
          -1          -1          -1          -1          -1          -1
           0           0           0           0           0           0
ZRed-FPVec                                 R   N=          12
  0.00000000E+00  0.00000000E+00  0.00000000E+00  0.00000000E+00  0.00000000E+00
  0.00000000E+00  0.00000000E+00  0.00000000E+00  0.00000000E+00  0.00000000E+00
  0.00000000E+00  0.00000000E+00
ZRed-Constraint1                           R   N=          12
 -5.54185808E+00  0.00000000E+00  0.00000000E+00  5.54185808E+00  0.00000000E+00
  0.00000000E+00  2.12190166E+00  2.12189977E+00  3.14158731E+00  3.14158909E+00
  3.14158731E+00  3.14158909E+00
ZRed-Constraint2                           R   N=          12
 -5.54185808E+00  0.00000000E+00  0.00000000E+00  5.54185808E+00  0.00000000E+00
  0.00000000E+00  0.00000000E+00  0.00000000E+00  0.00000000E+00  0.00000000E+00
  0.00000000E+00  0.00000000E+00
Number of contracted shells                I               20
Number of primitive shells                 I               38
Pure/Cartesian d shells                    I                0
Pure/Cartesian f shells                    I                0
Highest angular momentum                   I                2
Largest degree of contraction              I                6
Shell types                                I   N=          20
           0          -1          -1          -1          -1          -2
           0          -1          -1          -1          -1          -2
           0           0           0           1           0           0
           0           1
Number of primitives per shell             I   N=          20
           6           3           1           1           1           1
           6           3           1           1           1           1
           3           1           1           1           3           1
           1           1
Shell to atom map                          I   N=          20
           1           1           1           1           1           1
           2           2           2           2           2           2
           3           3           3           3           4           4
           4           4
Primitive exponents                        R   N=          38
  4.56324000E+03  6.82024000E+02  1.54973000E+02  4.44553000E+01  1.30290000E+01
  1.82773000E+00  2.09642000E+01  4.80331000E+00  1.45933000E+00  4.83456000E-01
  1.45585000E-01  4.38000000E-02  6.26000000E-01  4.56324000E+03  6.82024000E+02
  1.54973000E+02  4.44553000E+01  1.30290000E+01  1.82773000E+00  2.09642000E+01
  4.80331000E+00  1.45933000E+00  4.83456000E-01  1.45585000E-01  4.38000000E-02
  6.26000000E-01  3.38650000E+01  5.09479000E+00  1.15879000E+00  3.25840000E-01
  1.02741000E-01  7.50000000E-01  3.38650000E+01  5.09479000E+00  1.15879000E+00
  3.25840000E-01  1.02741000E-01  7.50000000E-01
Contraction coefficients                   R   N=          38
  1.96665025E-03  1.52306019E-02  7.61269097E-02  2.60801033E-01  6.16462078E-01
  2.21006028E-01  1.14660081E-01  9.19999648E-01 -3.03068213E-03  1.00000000E+00
  1.00000000E+00  1.00000000E+00  1.00000000E+00  1.96665025E-03  1.52306019E-02
  7.61269097E-02  2.60801033E-01  6.16462078E-01  2.21006028E-01  1.14660081E-01
  9.19999648E-01 -3.03068213E-03  1.00000000E+00  1.00000000E+00  1.00000000E+00
  1.00000000E+00  2.54938145E-02  1.90373109E-01  8.52161486E-01  1.00000000E+00
  1.00000000E+00  1.00000000E+00  2.54938145E-02  1.90373109E-01  8.52161486E-01
  1.00000000E+00  1.00000000E+00  1.00000000E+00
P(S=P) Contraction coefficients            R   N=          38
  0.00000000E+00  0.00000000E+00  0.00000000E+00  0.00000000E+00  0.00000000E+00
  0.00000000E+00  4.02486927E-02  2.37593957E-01  8.15853851E-01  1.00000000E+00
  1.00000000E+00  1.00000000E+00  0.00000000E+00  0.00000000E+00  0.00000000E+00
  0.00000000E+00  0.00000000E+00  0.00000000E+00  0.00000000E+00  4.02486927E-02
  2.37593957E-01  8.15853851E-01  1.00000000E+00  1.00000000E+00  1.00000000E+00
  0.00000000E+00  0.00000000E+00  0.00000000E+00  0.00000000E+00  0.00000000E+00
  0.00000000E+00  0.00000000E+00  0.00000000E+00  0.00000000E+00  0.00000000E+00
  0.00000000E+00  0.00000000E+00  0.00000000E+00
Coordinates of each shell                  R   N=          60
 -5.54185808E+00  0.00000000E+00  0.00000000E+00 -5.54185808E+00  0.00000000E+00
  0.00000000E+00 -5.54185808E+00  0.00000000E+00  0.00000000E+00 -5.54185808E+00
  0.00000000E+00  0.00000000E+00 -5.54185808E+00  0.00000000E+00  0.00000000E+00
 -5.54185808E+00  0.00000000E+00  0.00000000E+00  5.54185808E+00  0.00000000E+00
  0.00000000E+00  5.54185808E+00  0.00000000E+00  0.00000000E+00  5.54185808E+00
  0.00000000E+00  0.00000000E+00  5.54185808E+00  0.00000000E+00  0.00000000E+00
  5.54185808E+00  0.00000000E+00  0.00000000E+00  5.54185808E+00  0.00000000E+00
  0.00000000E+00 -7.65992892E+00 -2.02992357E-05  2.02992598E-05 -7.65992892E+00
 -2.02992357E-05  2.02992598E-05 -7.65992892E+00 -2.02992357E-05  2.02992598E-05
 -7.65992892E+00 -2.02992357E-05  2.02992598E-05  7.65992884E+00  1.54201809E-05
 -1.54202186E-05  7.65992884E+00  1.54201809E-05 -1.54202186E-05  7.65992884E+00
  1.54201809E-05 -1.54202186E-05  7.65992884E+00  1.54201809E-05 -1.54202186E-05
Num ILSW                                   I              100
ILSW                                       I   N=         100
           1           0           0           1           2           0
           0           0           0           0        4336          -1
           7           0           0           0           2           0
           0           0           0           0           1           0
           1           1           0           0           0           0
           0           0      100000           0          -1           0
           0           0           0           0           0           0
           0           0           0           1           0           0
           0 -2000000000           1           0           0           0
           0           0           4          52           0           0
           0           0          55           0           0           0
           0           0           0           4           0           1
           0           0           0           0           0           0
           0           0           0           0           0           0
           0           0           0           0           0           0
           0           0           0           0           0           0
           0           0           0           0
Num RLSW                                   I               52
RLSW                                       R   N=          52
  1.00000000E+00  1.00000000E+00  1.00000000E+00  1.00000000E+00  5.40000000E-01
  0.00000000E+00  0.00000000E+00  1.00000000E+00  0.00000000E+00  0.00000000E+00
  0.00000000E+00  0.00000000E+00  1.00000000E+00  0.00000000E+00  0.00000000E+00
  0.00000000E+00  0.00000000E+00  1.00000000E+00  0.00000000E+00  0.00000000E+00
  0.00000000E+00  0.00000000E+00  1.00000000E+00  0.00000000E+00  0.00000000E+00
  0.00000000E+00  0.00000000E+00  1.00000000E+00  0.00000000E+00  0.00000000E+00
  0.00000000E+00  0.00000000E+00  1.00000000E+00  0.00000000E+00  0.00000000E+00
  0.00000000E+00  0.00000000E+00  0.00000000E+00  1.00000000E+00  1.00000000E+00
  0.00000000E+00  1.00000000E+00  0.00000000E+00  0.00000000E+00  0.00000000E+00
  0.00000000E+00  0.00000000E+00  0.00000000E+00  0.00000000E+00  0.00000000E+00
  0.00000000E+00  0.00000000E+00
MxBond                                     I                2
NBond                                      I   N=           4
           2           2           1           1
IBond                                      I   N=           8
           2           3           1           4           1           0
           2           0
RBond                                      R   N=           8
  1.00000000E-01  1.00000000E+00  1.00000000E-01  1.00000000E+00  1.00000000E+00
  0.00000000E+00  1.00000000E+00  0.00000000E+00
Virial Ratio                               R      2.003290054312182E+00
SCF Energy                                 R     -7.682733148172105E+01
Total Energy                               R     -7.682733148172105E+01
S**2                                       R     -1.421085471520200E-14
S**2 after annihilation                    R     -4.263256414560571E-14
RMS Force                                  R      2.484429733446893E-05
RMS Density                                R      1.035980274075125E-09
Job Status                                 I                1
Nuclear derivative order                   I                1
External E-field                           R   N=          35
  0.00000000E+00  0.00000000E+00  0.00000000E+00  0.00000000E+00  0.00000000E+00
  0.00000000E+00  0.00000000E+00  0.00000000E+00  0.00000000E+00  0.00000000E+00
  0.00000000E+00  0.00000000E+00  0.00000000E+00  0.00000000E+00  0.00000000E+00
  0.00000000E+00  0.00000000E+00  0.00000000E+00  0.00000000E+00  0.00000000E+00
  0.00000000E+00  0.00000000E+00  0.00000000E+00  0.00000000E+00  0.00000000E+00
  0.00000000E+00  0.00000000E+00  0.00000000E+00  0.00000000E+00  0.00000000E+00
  0.00000000E+00  0.00000000E+00  0.00000000E+00  0.00000000E+00  0.00000000E+00
IOpCl                                      I                1
IROHF                                      I                0
Alpha Orbital Energies                     R   N=          56
 -1.06639162E+01 -1.06639157E+01 -7.21839946E-01 -7.21625325E-01 -3.83254705E-01
 -3.82492401E-01 -2.01816528E-01 -1.54008221E-01 -9.39104775E-02 -9.33557892E-02
  3.16834925E-02  3.50818530E-02  6.95570408E-02  7.59412381E-02  8.51255829E-02
  9.23248248E-02  1.01106027E-01  1.39312548E-01  1.74457720E-01  1.91391901E-01
  4.53220602E-01  4.68764836E-01  5.70652672E-01  5.76184990E-01  5.81411597E-01
  5.87178001E-01  6.12332364E-01  6.21430869E-01  6.75329406E-01  7.63490871E-01
  1.12911988E+00  1.12943374E+00  1.13949745E+00  1.13953784E+00  1.33699074E+00
  1.33714312E+00  1.34930911E+00  1.34946450E+00  1.58576434E+00  1.58613660E+00
  1.85083507E+00  1.85136180E+00  1.86169893E+00  1.86227360E+00  2.38536260E+00
  2.39258406E+00  2.48697719E+00  2.49766479E+00  2.70401080E+00  2.70795291E+00
  2.71211997E+00  2.71605182E+00  3.17534107E+00  3.18807339E+00  2.35079967E+01
  2.35320347E+01
Beta Orbital Energies                      R   N=          56
 -1.06639162E+01 -1.06639157E+01 -7.21839946E-01 -7.21625325E-01 -3.83254705E-01
 -3.82492401E-01 -2.01816528E-01 -1.54008221E-01 -9.39104775E-02 -9.33557892E-02
  3.16834925E-02  3.50818530E-02  6.95570408E-02  7.59412381E-02  8.51255829E-02
  9.23248248E-02  1.01106027E-01  1.39312548E-01  1.74457720E-01  1.91391901E-01
  4.53220602E-01  4.68764836E-01  5.70652672E-01  5.76184990E-01  5.81411597E-01
  5.87178001E-01  6.12332364E-01  6.21430869E-01  6.75329406E-01  7.63490871E-01
  1.12911988E+00  1.12943374E+00  1.13949745E+00  1.13953784E+00  1.33699074E+00
  1.33714312E+00  1.34930911E+00  1.34946450E+00  1.58576434E+00  1.58613660E+00
  1.85083507E+00  1.85136180E+00  1.86169893E+00  1.86227360E+00  2.38536260E+00
  2.39258406E+00  2.48697719E+00  2.49766479E+00  2.70401080E+00  2.70795291E+00
  2.71211997E+00  2.71605182E+00  3.17534107E+00  3.18807339E+00  2.35079967E+01
  2.35320347E+01
Alpha MO coefficients                      R   N=        3136
  4.00656429E-01  3.30058707E-01 -1.31173069E-03 -1.23409359E-08  1.23409435E-08
  6.86889850E-03 -8.96599647E-04 -9.60932021E-09  9.60932274E-09 -3.35286149E-03
 -1.48558920E-04  1.21678435E-09 -1.21678976E-09  4.29457869E-04  1.02870502E-03
  5.42513700E-09 -5.42514522E-09 -3.75094726E-04 -1.19376841E-08 -4.32623991E-05
  6.49697516E-04  1.19378053E-08 -3.96972423E-01 -3.27023614E-01 -1.29984415E-03
 -9.29044492E-09  9.29049104E-09 -6.80754207E-03 -8.87637560E-04 -7.30460015E-09
  7.30459289E-09  3.32828011E-03 -1.48131226E-04  1.11732715E-09 -1.11732746E-09
 -4.27210487E-04  1.02554939E-03  3.83428551E-09 -3.83430156E-09  3.71561094E-04
  8.97717299E-09  4.28742944E-05 -6.43576957E-04 -8.97725251E-09  2.74474947E-04
 -2.08167657E-03  2.15851431E-03 -1.33430172E-03 -1.28032387E-08  1.28032540E-08
 -2.72332587E-04  2.06366288E-03 -2.14487787E-03 -1.32160517E-03 -9.63871375E-09
  9.63873859E-09  3.96970938E-01  3.27047352E-01 -1.28074877E-03 -1.23868864E-08
  1.23869018E-08  6.61060786E-03 -9.66117141E-04 -9.00035304E-09  9.00036486E-09
 -2.64562814E-03 -4.56131666E-05 -1.09892961E-09  1.09893710E-09  2.41297177E-04
  3.36875787E-04  4.52588461E-09 -4.52588824E-09 -3.80820907E-04 -1.22875538E-08
 -4.18151601E-05  6.59615072E-04  1.22876736E-08  4.00654958E-01  3.30082227E-01
  1.29281088E-03  9.53746978E-09 -9.53752444E-09  6.67377577E-03  9.74358446E-04
  6.83461697E-09 -6.83462556E-09 -2.67648635E-03  4.69834811E-05  9.60394560E-10
 -9.60408475E-10  2.45253734E-04 -3.46363861E-04 -3.65200724E-09  3.65201369E-09
 -3.84269602E-04 -9.42044891E-09 -4.22129982E-05  6.65588518E-04  9.42052888E-09
  2.30651407E-04 -1.94056341E-03  1.46631253E-03 -1.36836765E-03 -1.31147199E-08
  1.31147361E-08  2.33176886E-04 -1.95971013E-03  1.48618900E-03  1.38063485E-03
  1.00494718E-08 -1.00494974E-08 -7.65941048E-02 -1.23976148E-01 -5.45577437E-02
 -5.20047411E-07  5.20048596E-07  3.52972397E-01 -8.21011040E-02 -7.84476790E-07
  7.84478507E-07  2.44711254E-01 -3.36890387E-02 -3.08154120E-07  3.08155346E-07
 -3.17336531E-04  2.69434851E-04 -7.82278324E-09  7.82315692E-09 -5.17296609E-03
 -1.41646199E-07 -3.17350337E-03  8.96089638E-03  1.41656096E-07 -7.65981306E-02
 -1.23982661E-01  5.45606166E-02  3.94665794E-07 -3.94667620E-07  3.52990905E-01
  8.21054529E-02  5.95639531E-07 -5.95642338E-07  2.44724289E-01  3.36907428E-02
  2.31932249E-07 -2.31933994E-07 -3.17414588E-04 -2.69188470E-04  6.81273542E-09
 -6.81328151E-09 -5.17323919E-03 -1.07628608E-07 -3.17367336E-03  8.96136946E-03
  1.07635915E-07  1.02517096E-01  1.30215806E-01  1.67055367E-02  1.58323186E-02
  1.51632052E-07 -1.51632156E-07  1.02522487E-01  1.30222721E-01  1.67062014E-02
 -1.58331459E-02 -1.15207087E-07  1.15207283E-07 -7.65782984E-02 -1.23900036E-01
 -5.45553919E-02 -5.21180136E-07  5.21179983E-07  3.52101445E-01 -8.26295529E-02
 -7.82473662E-07  7.82473225E-07  2.48099368E-01 -3.24026985E-02 -3.18720487E-07
  3.18719693E-07 -1.48138515E-03 -4.68796527E-03 -1.41428614E-08  1.41424306E-08
 -5.18566979E-03 -1.41684791E-07 -3.23723950E-03  8.98292105E-03  1.41694775E-07
  7.65742702E-02  1.23893516E-01 -5.45525275E-02 -3.95590543E-07  3.95590569E-07
 -3.52082878E-01 -8.26252401E-02 -5.93525257E-07  5.93525195E-07 -2.48086491E-01
 -3.24009274E-02 -2.41623882E-07  2.41622842E-07  1.48136872E-03 -4.68797941E-03
 -9.14376213E-09  9.14324138E-09  5.18539822E-03  1.07659372E-07  3.23707241E-03
 -8.98245062E-03 -1.07666734E-07  1.02415689E-01  1.31455431E-01  1.26510976E-02
  1.57255651E-02  1.51070146E-07 -1.51070308E-07 -1.02410304E-01 -1.31448588E-01
 -1.26502186E-02  1.57247330E-02  1.14812411E-07 -1.14812695E-07 -4.29408677E-02
 -7.09300473E-02  1.53258082E-01  1.46961668E-06 -1.46961633E-06  2.08817071E-01
  2.20987968E-01  2.11857161E-06 -2.11857097E-06  2.99209949E-01  1.43643136E-01
  1.38639958E-06 -1.38639814E-06  4.27830913E-02  8.58343072E-03  9.14691503E-08
 -9.14687304E-08  1.24173787E-02  4.36791691E-07 -2.83739797E-03 -2.15065864E-02
 -4.36782417E-07 -4.29409408E-02 -7.09301682E-02 -1.53258340E-01 -1.11706471E-06
  1.11706513E-06  2.08817426E-01 -2.20988337E-01 -1.61053463E-06  1.61053506E-06
  2.99210463E-01 -1.43643373E-01 -1.05491110E-06  1.05491004E-06  4.27831652E-02
 -8.58344781E-03 -7.25235980E-08  7.25234994E-08  1.24173996E-02  3.31516578E-07
 -2.83740287E-03 -2.15066226E-02 -3.31509079E-07 -9.48473710E-02 -1.76451180E-01
 -1.18721626E-01 -7.22763480E-03 -6.98803226E-08  6.98805310E-08 -9.48475279E-02
 -1.76451472E-01 -1.18721820E-01  7.22764662E-03  5.31886906E-08 -5.31889668E-08
 -4.31746192E-02 -7.13298185E-02  1.53535732E-01  1.47513184E-06 -1.47513411E-06
  2.10238510E-01  2.21393234E-01  2.12478353E-06 -2.12478702E-06  2.99483280E-01
  1.43903807E-01  1.39975719E-06 -1.39976000E-06  4.27978890E-02  1.05901106E-02
  9.53576852E-08 -9.53588102E-08  1.24383219E-02  4.37960523E-07 -2.91916750E-03
 -2.15428338E-02 -4.37951019E-07  4.31745484E-02  7.13297017E-02  1.53535477E-01
  1.12139005E-06 -1.12139431E-06 -2.10238166E-01  2.21392865E-01  1.61484339E-06
 -1.61484967E-06 -2.99482794E-01  1.43903564E-01  1.06686129E-06 -1.06686687E-06
 -4.27978200E-02  1.05900957E-02  7.25591150E-08 -7.25604590E-08 -1.24383012E-02
 -3.32405734E-07  2.91916278E-03  2.15427981E-02  3.32397996E-07 -9.49062544E-02
 -1.77093649E-01 -1.17259833E-01 -7.19418448E-03 -6.96065174E-08  6.96065548E-08
  9.49060944E-02  1.77093350E-01  1.17259633E-01 -7.19417222E-03 -5.30218533E-08
  5.30218740E-08  1.21331703E-13  2.65350152E-13 -2.09611266E-10  1.32161080E-01
  1.32139088E-01 -1.39085478E-12 -3.21582297E-10  2.02384862E-01  2.02351184E-01
  2.44047894E-12 -3.50735936E-10  2.24053222E-01  2.24015940E-01 -5.30651370E-12
 -1.16671751E-10  6.69184520E-02  6.69073153E-02  1.92617505E-07 -1.12923247E-02
  1.86280145E-11  1.11243963E-07 -1.12942041E-02 -4.12440255E-13 -7.63736470E-13
 -1.58499657E-10  1.32161084E-01  1.32139092E-01  3.18617340E-12 -2.43266917E-10
  2.02384867E-01  2.02351190E-01 -1.41960369E-12 -2.63967762E-10  2.24053229E-01
  2.24015946E-01  2.78839837E-12 -9.22087335E-11  6.69184535E-02  6.69073167E-02
 -1.45903477E-07  1.12923255E-02 -1.43403627E-11 -8.42647329E-08  1.12942049E-02
  4.90383944E-13  4.79057713E-12 -4.53044407E-12 -1.93450249E-11  1.22452737E-02
  1.22432361E-02 -5.47331145E-13 -5.26707677E-12  6.43140674E-12 -1.46106608E-11
  1.22452746E-02  1.22432369E-02  1.04762849E-12  1.74301136E-12 -2.10550188E-10
  1.32230190E-01  1.32208186E-01 -5.65322666E-12 -3.22742138E-10  2.02775996E-01
  2.02742254E-01 -8.78884795E-12 -3.56541900E-10  2.23209493E-01  2.23172351E-01
  1.18946367E-11 -1.02162625E-10  6.98065947E-02  6.97949788E-02  1.91734053E-07
 -1.21616823E-02  1.85325860E-11  1.10736071E-07 -1.21637064E-02  6.27162834E-13
  1.00893774E-12  1.58371584E-10 -1.32230186E-01 -1.32208183E-01 -2.76980062E-12
  2.42490049E-10 -2.02775991E-01 -2.02742248E-01 -9.21963101E-12  2.69449310E-10
 -2.23209487E-01 -2.23172345E-01  1.03820041E-11  6.95858188E-11 -6.98065923E-02
 -6.97949764E-02  1.45262942E-07 -1.21616825E-02  1.42063053E-11  8.38963578E-08
 -1.21637065E-02  3.42304992E-13 -1.43718176E-12  4.17191564E-12 -2.02163172E-11
  1.26999846E-02  1.26978713E-02  9.71847835E-14 -2.93941167E-12  8.20242397E-12
  1.51574465E-11 -1.26999848E-02 -1.26978715E-02 -1.53883645E-08 -2.68460999E-08
  2.35739074E-06 -1.22091130E-01  1.22111450E-01  1.01680368E-07  3.73286254E-06
 -1.93098478E-01  1.93130616E-01  3.13826298E-08  4.06994891E-06 -2.13884522E-01
  2.13920120E-01 -1.36492855E-07  2.27716676E-06 -1.06806098E-01  1.06823872E-01
  1.76737120E-07 -1.05839271E-02 -2.00777807E-07 -3.06084175E-07  1.05821659E-02
  1.75967377E-08  3.06301835E-08  1.79833449E-06 -1.22091072E-01  1.22111392E-01
 -1.14531019E-07  2.84717456E-06 -1.93098387E-01  1.93130525E-01 -4.16246552E-08
  3.08707927E-06 -2.13884422E-01  2.13920020E-01  1.58254432E-07  1.81849311E-06
 -1.06806048E-01  1.06823822E-01 -1.34844602E-07  1.05839225E-02  1.52410557E-07
  2.33531864E-07 -1.05821613E-02 -5.89855940E-09 -8.45275528E-08  1.79622258E-07
  2.33070689E-07 -1.20536425E-02  1.20556486E-02  7.52894748E-09  9.77531733E-08
 -2.07879325E-07  1.77597172E-07 -1.20536373E-02  1.20556434E-02  5.33801497E-10
  1.15788096E-09  2.34840979E-06 -1.22817807E-01  1.22838248E-01 -4.22500615E-09
  3.71378242E-06 -1.94243434E-01  1.94275762E-01  1.04496462E-08  4.14934993E-06
 -2.15198437E-01  2.15234252E-01 -9.16432166E-08  1.96078250E-06 -1.06865179E-01
  1.06882965E-01  1.75539743E-07 -1.07236376E-02 -2.00432716E-07 -3.04010612E-07
  1.07218531E-02  3.27962074E-09  6.09071988E-09 -1.77980689E-06  1.22817864E-01
 -1.22838304E-01 -2.47834360E-08 -2.81260928E-06  1.94243524E-01 -1.94275852E-01
  1.90892736E-08 -3.16800021E-06  2.15198537E-01 -2.15234352E-01 -7.40359216E-08
 -1.39473480E-06  1.06865229E-01 -1.06883015E-01  1.32710146E-07 -1.07236428E-02
 -1.51303469E-07 -2.29835461E-07  1.07218584E-02  7.29253542E-09  4.15621818E-08
 -8.70640397E-09  2.33357657E-07 -1.21467793E-02  1.21488009E-02  7.74301555E-09
  6.14908326E-08 -6.33234419E-08 -1.76824187E-07  1.21467853E-02 -1.21488069E-02
  1.95128734E-02  3.24130327E-02  3.85044817E-02  2.83155884E-07 -2.83152309E-07
 -8.70493472E-02  7.48855656E-02  7.04746917E-07 -7.04740784E-07 -3.36030564E-01
  1.18655999E-01  5.32561156E-07 -5.32554837E-07  1.01314643E+00 -7.02511561E-01
 -5.31805567E-06  5.31806451E-06  8.85615979E-03  2.86673146E-07  1.34539455E-03
 -1.53397665E-02 -2.86677564E-07 -1.95128774E-02 -3.24130395E-02  3.85044831E-02
  2.38188138E-07 -2.38185859E-07  8.70493668E-02  7.48855799E-02  5.60858853E-07
 -5.60854706E-07  3.36030633E-01  1.18655991E-01  4.85248026E-07 -4.85246135E-07
 -1.01314667E+00 -7.02511655E-01 -4.16245691E-06  4.16247319E-06 -8.85616229E-03
 -2.20811081E-07 -1.34539482E-03  1.53397709E-02  2.20814178E-07 -2.11576286E-02
  1.35106662E-01 -4.97763176E-01 -1.61467812E-03 -2.88617676E-09  2.88668535E-09
  2.11576342E-02 -1.35106686E-01  4.97763285E-01 -1.61467542E-03 -1.09489603E-09
  1.09536374E-09  2.39403601E-02  3.87662130E-02  2.55493580E-02  3.30684144E-07
 -3.30688319E-07 -8.87072084E-02  7.53317003E-02  7.93137947E-07 -7.93144319E-07
 -5.15117782E-01  3.41531406E-02  7.14759102E-07 -7.14769740E-07  1.15011429E+00
 -3.68604670E-01 -4.28469538E-06  4.28470034E-06  7.55055885E-03  2.40470086E-07
  1.78259935E-03 -1.30785449E-02 -2.40474926E-07  2.39403558E-02  3.87662062E-02
 -2.55493456E-02 -2.04158689E-07  2.04158158E-07 -8.87071941E-02 -7.53316844E-02
 -5.50522337E-07  5.50524643E-07 -5.15117691E-01 -3.41530985E-02 -3.72250961E-07
  3.72240609E-07  1.15011410E+00  3.68604547E-01  2.96714494E-06 -2.96711762E-06
  7.55055816E-03  1.77588803E-07  1.78259902E-03 -1.30785437E-02 -1.77592516E-07
 -1.28298933E-02  1.11297643E-01 -3.38392189E-01  1.63686434E-03  1.48896464E-08
 -1.48900390E-08 -1.28298919E-02  1.11297620E-01 -3.38392138E-01 -1.63686749E-03
 -9.69319425E-09  9.69355678E-09  1.25992849E-02  2.02968035E-02 -5.16660271E-02
  1.45686446E-07 -1.45726000E-07 -4.84945623E-02 -4.55709261E-02  3.29382729E-07
 -3.29426835E-07 -2.68630556E-01 -1.92376167E-01  3.19834500E-07 -3.19988300E-07
  8.87981507E-02  7.62032554E-01  3.46544238E-06 -3.46520041E-06 -7.04717451E-03
 -1.60612290E-07  1.07950150E-03  1.22057050E-02  1.60612248E-07  1.25992853E-02
  2.02968041E-02  5.16660263E-02 -1.72852161E-07  1.72867029E-07 -4.84945630E-02
  4.55709241E-02 -3.13593680E-07  3.13615363E-07 -2.68630569E-01  1.92376163E-01
 -4.90222895E-07  4.90270363E-07  8.87981848E-02 -7.62032524E-01 -2.15547187E-06
  2.15545009E-06 -7.04717418E-03 -1.15715857E-07  1.07950152E-03  1.22057044E-02
  1.15714331E-07  2.75763036E-02 -6.48945871E-03  2.93062359E-01  6.35366128E-03
  8.94114448E-08 -8.94123447E-08  2.75763030E-02 -6.48945422E-03  2.93062331E-01
 -6.35366152E-03 -6.86626246E-08  6.86637410E-08 -1.82892588E-07 -2.91890257E-07
 -1.02205892E-06  7.03998859E-02 -7.04115895E-02  6.33620966E-07 -1.23771375E-06
  7.01890027E-02 -7.02006722E-02  4.53636661E-06 -4.06958663E-06  2.89314768E-01
 -2.89362864E-01 -3.82354910E-06  4.37275447E-06 -5.81583925E-01  5.81680598E-01
 -5.39223995E-08  6.26758827E-03  9.83034441E-08  9.33823736E-08 -6.26654649E-03
  1.44014716E-07  2.30786807E-07 -7.08782974E-07  7.03998854E-02 -7.04115889E-02
 -5.18725528E-07 -8.49349784E-07  7.01890022E-02 -7.02006716E-02 -3.44074909E-06
 -2.91462199E-06  2.89314767E-01 -2.89362862E-01  2.55881036E-06  2.60233237E-06
 -5.81583921E-01  5.81680594E-01  3.09330312E-08 -6.26758859E-03 -7.40079015E-08
 -5.35670325E-08  6.26654681E-03 -2.40309568E-07 -1.50541124E-08 -3.26583579E-06
 -4.82799183E-08  1.19908048E-04 -1.19928089E-04  2.13743005E-07  2.01960272E-08
  2.71326107E-06 -4.29991528E-08  1.19908451E-04 -1.19928492E-04  1.59499815E-11
  2.54546825E-11  6.97650614E-11 -6.32217558E-02 -6.32112496E-02 -5.53712940E-11
  8.73343951E-11 -6.01073582E-02 -6.00973704E-02 -3.95738063E-10  2.61131939E-10
 -2.63147137E-01 -2.63103406E-01  3.92356948E-10 -3.10247416E-10  5.84434221E-01
  5.84337088E-01 -8.65635275E-08  5.60557313E-03 -7.10741333E-12 -4.99858594E-08
  5.60650482E-03 -1.58577408E-11 -2.55042403E-11  3.73690267E-11 -6.32217549E-02
 -6.32112487E-02  5.90970679E-11  5.14319222E-11 -6.01073573E-02 -6.00973696E-02
  3.67234345E-10  1.41863446E-10 -2.63147134E-01 -2.63103403E-01 -3.36601219E-10
 -3.08430765E-11  5.84434214E-01  5.84337082E-01  6.56782413E-08 -5.60557342E-03
  5.14848465E-12  3.79211582E-08 -5.60650511E-03  1.94537824E-11 -2.69793036E-12
  2.43232826E-10  3.60212230E-12  5.18569490E-04  5.18483208E-04 -2.19561436E-11
 -8.74194883E-13 -2.40685533E-10  4.45074093E-12  5.18569127E-04  5.18482845E-04
 -1.12957992E-07 -1.81377305E-07 -7.16213293E-07  7.14734746E-02 -7.14853726E-02
  4.28793379E-07 -9.55784272E-07  7.18833910E-02 -7.18953570E-02  2.13325400E-06
 -2.03675813E-06  2.97411965E-01 -2.97461475E-01 -4.47023871E-06  4.10503376E-06
 -6.35060266E-01  6.35165986E-01 -4.52037096E-08  5.59522577E-03  1.03481089E-07