 Entering Gaussian System, Link 0=g16
 Initial command:
 /home/szhao/Apps/g16/l1.exe "/home/szhao/tmp/Gau-46049.inp" -scrdir="/home/szhao/tmp/"
 Default is to use a total of  16 processors:
                               16 via shared-memory
                                1 via Linda
 Entering Link 1 = /home/szhao/Apps/g16/l1.exe PID=     46051.
  
 Copyright (c) 1988,1990,1992,1993,1995,1998,2003,2009,2016,
            Gaussian, Inc.  All Rights Reserved.
  
 This is part of the Gaussian(R) 16 program.  It is based on
 the Gaussian(R) 09 system (copyright 2009, Gaussian, Inc.),
 the Gaussian(R) 03 system (copyright 2003, Gaussian, Inc.),
 the Gaussian(R) 98 system (copyright 1998, Gaussian, Inc.),
 the Gaussian(R) 94 system (copyright 1995, Gaussian, Inc.),
 the Gaussian 92(TM) system (copyright 1992, Gaussian, Inc.),
 the Gaussian 90(TM) system (copyright 1990, Gaussian, Inc.),
 the Gaussian 88(TM) system (copyright 1988, Gaussian, Inc.),
 the Gaussian 86(TM) system (copyright 1986, Carnegie Mellon
 University), and the Gaussian 82(TM) system (copyright 1983,
 Carnegie Mellon University). Gaussian is a federally registered
 trademark of Gaussian, Inc.
  
 This software contains proprietary and confidential information,
 including trade secrets, belonging to Gaussian, Inc.
  
 This software is provided under written license and may be
 used, copied, transmitted, or stored only in accord with that
 written license.
  
 The following legend is applicable only to US Government
 contracts under FAR:
  
                    RESTRICTED RIGHTS LEGEND
  
 Use, reproduction and disclosure by the US Government is
 subject to restrictions as set forth in subparagraphs (a)
 and (c) of the Commercial Computer Software - Restricted
 Rights clause in FAR 52.227-19.
  
 Gaussian, Inc.
 340 Quinnipiac St., Bldg. 40, Wallingford CT 06492
  
  
 ---------------------------------------------------------------
 Warning -- This program may not be used in any manner that
 competes with the business of Gaussian, Inc. or will provide
 assistance to any competitor of Gaussian, Inc.  The licensee
 of this program is prohibited from giving any competitor of
 Gaussian, Inc. access to this program.  By using this program,
 the user acknowledges that Gaussian, Inc. is engaged in the
 business of creating and licensing software in the field of
 computational chemistry and represents and warrants to the
 licensee that it is not a competitor of Gaussian, Inc. and that
 it will not use this program in any manner prohibited above.
 ---------------------------------------------------------------
  

 Cite this work as:
 Gaussian 16, Revision A.03,
 M. J. Frisch, G. W. Trucks, H. B. Schlegel, G. E. Scuseria, 
 M. A. Robb, J. R. Cheeseman, G. Scalmani, V. Barone, 
 G. A. Petersson, H. Nakatsuji, X. Li, M. Caricato, A. V. Marenich, 
 J. Bloino, B. G. Janesko, R. Gomperts, B. Mennucci, H. P. Hratchian, 
 J. V. Ortiz, A. F. Izmaylov, J. L. Sonnenberg, D. Williams-Young, 
 F. Ding, F. Lipparini, F. Egidi, J. Goings, B. Peng, A. Petrone, 
 T. Henderson, D. Ranasinghe, V. G. Zakrzewski, J. Gao, N. Rega, 
 G. Zheng, W. Liang, M. Hada, M. Ehara, K. Toyota, R. Fukuda, 
 J. Hasegawa, M. Ishida, T. Nakajima, Y. Honda, O. Kitao, H. Nakai, 
 T. Vreven, K. Throssell, J. A. Montgomery, Jr., J. E. Peralta, 
 F. Ogliaro, M. J. Bearpark, J. J. Heyd, E. N. Brothers, K. N. Kudin, 
 V. N. Staroverov, T. A. Keith, R. Kobayashi, J. Normand, 
 K. Raghavachari, A. P. Rendell, J. C. Burant, S. S. Iyengar, 
 J. Tomasi, M. Cossi, J. M. Millam, M. Klene, C. Adamo, R. Cammi, 
 J. W. Ochterski, R. L. Martin, K. Morokuma, O. Farkas, 
 J. B. Foresman, and D. J. Fox, Gaussian, Inc., Wallingford CT, 2016.
 
 ******************************************
 Gaussian 16:  ES64L-G16RevA.03 25-Dec-2016
                 3-Dec-2024 
 ******************************************
 %chk=opt.chk
 %mem=4GB
 %nprocshared=8
 Will use up to    8 processors via shared memory.
 --------------------------------------------
 #p opt UM062X/6-311+G** nosymm int=superfine
 --------------------------------------------
 1/18=20,19=15,26=5,38=1/1,3;
 2/9=110,12=2,15=1,17=6,18=5,40=1/2;
 3/5=4,6=6,7=111,11=2,25=1,30=1,71=1,74=-55,75=-7,116=2/1,2,3;
 4//1;
 5/5=2,38=5/2;
 6/7=2,8=2,9=2,10=2,28=1/1;
 7/30=1/1,2,3,16;
 1/18=20,19=15,26=5/3(2);
 2/9=110,15=1/2;
 99//99;
 2/9=110,15=1/2;
 3/5=4,6=6,7=111,11=2,25=1,30=1,71=1,74=-55,75=-7,116=2/1,2,3;
 4/5=5,16=3,69=1/1;
 5/5=2,38=5/2;
 7/30=1/1,2,3,16;
 1/18=20,19=15,26=5/3(-5);
 2/9=110,15=1/2;
 6/7=2,8=2,9=2,10=2,19=2,28=1/1;
 99/9=1/99;
 Leave Link    1 at Tue Dec  3 19:51:32 2024, MaxMem=   536870912 cpu:               0.3 elap:               0.0
 (Enter /home/szhao/Apps/g16/l101.exe)
 -------------------
 Title Card Required
 -------------------
 Symbolic Z-matrix:
 Charge =  0 Multiplicity = 1
 C                    -1   -0.37108   0.        0. 
 C                    -1    0.37108   0.        0. 
 H                    0    -1.03101   0.        0. 
 H                    0     1.031     0.        0. 
 
 ITRead=  2  2  0  0
 MicOpt= -2 -2 -1 -1
 NAtoms=      4 NQM=        2 NQMF=       2 NMMI=      0 NMMIF=      0
                NMic=       0 NMicF=      0.
                    Isotopes and Nuclear Properties:
 (Nuclear quadrupole moments (NQMom) in fm**2, nuclear magnetic moments (NMagM)
  in nuclear magnetons)

  Atom         1           2           3           4
 IAtWgt=          12          12           1           1
 AtmWgt=  12.0000000  12.0000000   1.0078250   1.0078250
 NucSpn=           0           0           1           1
 AtZEff=  -0.0000000  -0.0000000  -0.0000000  -0.0000000
 NQMom=    0.0000000   0.0000000   0.0000000   0.0000000
 NMagM=    0.0000000   0.0000000   2.7928460   2.7928460
 AtZNuc=   6.0000000   6.0000000   1.0000000   1.0000000
 Leave Link  101 at Tue Dec  3 19:51:32 2024, MaxMem=   536870912 cpu:               2.1 elap:               0.3
 (Enter /home/szhao/Apps/g16/l103.exe)

 GradGradGradGradGradGradGradGradGradGradGradGradGradGradGradGradGradGrad
 Berny optimization.
 Initialization pass.
                           ----------------------------
                           !    Initial Parameters    !
                           ! (Angstroms and Degrees)  !
 --------------------------                            --------------------------
 ! Name  Definition              Value          Derivative Info.                !
 --------------------------------------------------------------------------------
 ! X1    R(1,-1)                -0.3711         Frozen                          !
 ! Y1    R(1,-2)                 0.0            Frozen                          !
 ! Z1    R(1,-3)                 0.0            Frozen                          !
 ! X2    R(2,-1)                 0.3711         Frozen                          !
 ! Y2    R(2,-2)                 0.0            Frozen                          !
 ! Z2    R(2,-3)                 0.0            Frozen                          !
 ! R1    R(1,3)                  0.6599         estimate D2E/DX2                !
 ! R2    R(2,4)                  0.6599         estimate D2E/DX2                !
 ! A1    L(2,1,3,-2,-1)        180.0            estimate D2E/DX2                !
 ! A2    L(1,2,4,-2,-1)        180.0            estimate D2E/DX2                !
 ! A3    L(2,1,3,-3,-2)        180.0            estimate D2E/DX2                !
 ! A4    L(1,2,4,-3,-2)        180.0            estimate D2E/DX2                !
 --------------------------------------------------------------------------------
 Trust Radius=3.00D-01 FncErr=1.00D-07 GrdErr=1.00D-07 EigMax=2.50D+02 EigMin=1.00D-04
 Number of steps in this run=     22 maximum allowed number of steps=    100.
 GradGradGradGradGradGradGradGradGradGradGradGradGradGradGradGradGradGrad

 Leave Link  103 at Tue Dec  3 19:51:32 2024, MaxMem=   536870912 cpu:               0.1 elap:               0.0
 (Enter /home/szhao/Apps/g16/l202.exe)
                          Input orientation:                          
 ---------------------------------------------------------------------
 Center     Atomic      Atomic             Coordinates (Angstroms)
 Number     Number       Type             X           Y           Z
 ---------------------------------------------------------------------
      1          6           0       -0.371080    0.000000    0.000000
      2          6           0        0.371080    0.000000    0.000000
      3          1           0       -1.031013    0.000000    0.000000
      4          1           0        1.031003    0.000000    0.000000
 ---------------------------------------------------------------------
                    Distance matrix (angstroms):
                    1          2          3          4
     1  C    0.000000
     2  C    0.742159   0.000000
     3  H    0.659934   1.402093   0.000000
     4  H    1.402083   0.659924   2.062016   0.000000
 Symmetry turned off by external request.
 Stoichiometry    C2H2
 Framework group  C*V[C*(HCCH)]
 Deg. of freedom     3
 Full point group                 C*V     NOp   4
 Rotational constants (GHZ):           0.0000000          92.7744639          92.7744639
 Leave Link  202 at Tue Dec  3 19:51:32 2024, MaxMem=   536870912 cpu:               0.0 elap:               0.0
 (Enter /home/szhao/Apps/g16/l301.exe)
 Standard basis: 6-311+G(d,p) (5D, 7F)
 Ernie: Thresh=  0.10000D-02 Tol=  0.10000D-05 Strict=F.
    56 basis functions,    88 primitive gaussians,    58 cartesian basis functions
     7 alpha electrons        7 beta electrons
       nuclear repulsion energy        40.0769838275 Hartrees.
 IExCor= 4336 DFT=T Ex+Corr=M062X ExCW=0 ScaHFX=  0.540000
 ScaDFX=  1.000000  1.000000  1.000000  1.000000 ScalE2=  1.000000  1.000000
 IRadAn=      7 IRanWt=     -1 IRanGd=            0 ICorTp=0 IEmpDi=  4
 NAtoms=    4 NActive=    4 NUniq=    4 SFac= 1.00D+00 NAtFMM=   60 NAOKFM=F Big=F
 Integral buffers will be    131072 words long.
 Raffenetti 2 integral format.
 Two-electron integral symmetry is turned off.
 Leave Link  301 at Tue Dec  3 19:51:32 2024, MaxMem=   536870912 cpu:               0.3 elap:               0.0
 (Enter /home/szhao/Apps/g16/l302.exe)
 NPDir=0 NMtPBC=     1 NCelOv=     1 NCel=       1 NClECP=     1 NCelD=      1
         NCelK=      1 NCelE2=     1 NClLst=     1 CellRange=     0.0.
 One-electron integrals computed using PRISM.
 NBasis=    56 RedAO= T EigKep=  6.14D-06  NBF=    56
 NBsUse=    56 1.00D-06 EigRej= -1.00D+00 NBFU=    56
 Precomputing XC quadrature grid using
 IXCGrd= 4 IRadAn=           7 IRanWt=          -1 IRanGd=           0 AccXCQ= 0.00D+00.
 Generated NRdTot=       0 NPtTot=           0 NUsed=           0 NTot=          32
 NSgBfM=    58    58    58    58    58 MxSgAt=     4 MxSgA2=     4.
 Leave Link  302 at Tue Dec  3 19:51:32 2024, MaxMem=   536870912 cpu:               1.0 elap:               0.1
 (Enter /home/szhao/Apps/g16/l303.exe)
 DipDrv:  MaxL=1.
 Leave Link  303 at Tue Dec  3 19:51:32 2024, MaxMem=   536870912 cpu:               0.3 elap:               0.0
 (Enter /home/szhao/Apps/g16/l401.exe)
 ExpMin= 4.38D-02 ExpMax= 4.56D+03 ExpMxC= 6.82D+02 IAcc=3 IRadAn=         7 AccDes= 0.00D+00
 Harris functional with IExCor= 1009 and IRadAn=       7 diagonalized for initial guess.
 HarFok:  IExCor= 1009 AccDes= 0.00D+00 IRadAn=         7 IDoV= 1 UseB2=F ITyADJ=14
 ICtDFT=  3500011 ScaDFX=  1.000000  1.000000  1.000000  1.000000
 FoFCou: FMM=F IPFlag=           0 FMFlag=      100000 FMFlg1=           0
         NFxFlg=           0 DoJE=T BraDBF=F KetDBF=T FulRan=T
         wScrn=  0.000000 ICntrl=       500 IOpCl=  0 I1Cent=   200000004 NGrid=           0
         NMat0=    1 NMatS0=      1 NMatT0=    0 NMatD0=    1 NMtDS0=    0 NMtDT0=    0
 Symmetry not used in FoFCou.
 Harris En= -76.2617522973179    
 JPrj=0 DoOrth=F DoCkMO=F.
 Initial guess <Sx>= 0.0000 <Sy>= 0.0000 <Sz>= 0.0000 <S**2>=-0.0000 S=-0.0000
 Leave Link  401 at Tue Dec  3 19:51:33 2024, MaxMem=   536870912 cpu:               1.8 elap:               0.2
 (Enter /home/szhao/Apps/g16/l502.exe)
 Keep R1 and R2 ints in memory in canonical form, NReq=9624198.
 FoFCou: FMM=F IPFlag=           0 FMFlag=           0 FMFlg1=           0
         NFxFlg=           0 DoJE=F BraDBF=F KetDBF=F FulRan=T
         wScrn=  0.000000 ICntrl=       600 IOpCl=  0 I1Cent=           0 NGrid=           0
         NMat0=    1 NMatS0=   1596 NMatT0=    0 NMatD0=    1 NMtDS0=    0 NMtDT0=    0
 Symmetry not used in FoFCou.
 Two-electron integral symmetry not used.
 UHF open shell SCF:
 Using DIIS extrapolation, IDIIS=  1040.
 NGot=   536870912 LenX=   534314338 LenY=   534310533
 Requested convergence on RMS density matrix=1.00D-08 within 128 cycles.
 Requested convergence on MAX density matrix=1.00D-06.
 Requested convergence on             energy=1.00D-06.
 No special actions if energy rises.

 Cycle   1  Pass 1  IDiag  1:
 E= -75.0961116923138    
 DIIS: error= 1.50D-01 at cycle   1 NSaved=   1.
 NSaved= 1 IEnMin= 1 EnMin= -75.0961116923138     IErMin= 1 ErrMin= 1.50D-01
 ErrMax= 1.50D-01  0.00D+00 EMaxC= 1.00D-01 BMatC= 3.05D+00 BMatP= 3.05D+00
 IDIUse=3 WtCom= 0.00D+00 WtEn= 1.00D+00
 Coeff-Com:  0.100D+01
 Coeff-En:   0.100D+01
 Coeff:      0.100D+01
 Gap=     0.629 Goal=   None    Shift=    0.000
 Gap=     0.629 Goal=   None    Shift=    0.000
 GapD=    0.629 DampG=2.000 DampE=0.250 DampFc=0.5000 IDamp=-1.
 Damping current iteration by 5.00D-01
 RMSDP=1.54D-01 MaxDP=2.84D+00              OVMax= 3.59D-01

 Cycle   2  Pass 1  IDiag  1:
 E= -75.3765617384407     Delta-E=       -0.280450046127 Rises=F Damp=T
 DIIS: error= 2.55D-02 at cycle   2 NSaved=   2.
 NSaved= 2 IEnMin= 2 EnMin= -75.3765617384407     IErMin= 2 ErrMin= 2.55D-02
 ErrMax= 2.55D-02  0.00D+00 EMaxC= 1.00D-01 BMatC= 1.21D-01 BMatP= 3.05D+00
 IDIUse=3 WtCom= 7.45D-01 WtEn= 2.55D-01
 Coeff-Com: -0.190D+00 0.119D+01
 Coeff-En:   0.000D+00 0.100D+01
 Coeff:     -0.142D+00 0.114D+01
 Gap=     0.515 Goal=   None    Shift=    0.000
 Gap=     0.515 Goal=   None    Shift=    0.000
 RMSDP=4.11D-02 MaxDP=6.27D-01 DE=-2.80D-01 OVMax= 1.79D-01

 Cycle   3  Pass 1  IDiag  1:
 E= -75.6465145002773     Delta-E=       -0.269952761837 Rises=F Damp=F
 DIIS: error= 6.13D-03 at cycle   3 NSaved=   3.
 NSaved= 3 IEnMin= 3 EnMin= -75.6465145002773     IErMin= 3 ErrMin= 6.13D-03
 ErrMax= 6.13D-03  0.00D+00 EMaxC= 1.00D-01 BMatC= 4.48D-03 BMatP= 1.21D-01
 IDIUse=3 WtCom= 9.39D-01 WtEn= 6.13D-02
 Coeff-Com: -0.489D-01 0.109D+00 0.939D+00
 Coeff-En:   0.000D+00 0.000D+00 0.100D+01
 Coeff:     -0.459D-01 0.103D+00 0.943D+00
 Gap=     0.522 Goal=   None    Shift=    0.000
 Gap=     0.522 Goal=   None    Shift=    0.000
 RMSDP=4.22D-03 MaxDP=8.06D-02 DE=-2.70D-01 OVMax= 7.38D-03

 Cycle   4  Pass 1  IDiag  1:
 E= -75.6473857504517     Delta-E=       -0.000871250174 Rises=F Damp=F
 DIIS: error= 3.29D-04 at cycle   4 NSaved=   4.
 NSaved= 4 IEnMin= 4 EnMin= -75.6473857504517     IErMin= 4 ErrMin= 3.29D-04
 ErrMax= 3.29D-04  0.00D+00 EMaxC= 1.00D-01 BMatC= 3.30D-05 BMatP= 4.48D-03
 IDIUse=3 WtCom= 9.97D-01 WtEn= 3.29D-03
 Coeff-Com:  0.736D-04-0.127D-02-0.660D-01 0.107D+01
 Coeff-En:   0.000D+00 0.000D+00 0.000D+00 0.100D+01
 Coeff:      0.734D-04-0.126D-02-0.657D-01 0.107D+01
 Gap=     0.521 Goal=   None    Shift=    0.000
 Gap=     0.521 Goal=   None    Shift=    0.000
 RMSDP=1.05D-03 MaxDP=1.47D-02 DE=-8.71D-04 OVMax= 1.11D-03

 Cycle   5  Pass 1  IDiag  1:
 E= -75.6473947201990     Delta-E=       -0.000008969747 Rises=F Damp=F
 DIIS: error= 7.93D-05 at cycle   5 NSaved=   5.
 NSaved= 5 IEnMin= 5 EnMin= -75.6473947201990     IErMin= 5 ErrMin= 7.93D-05
 ErrMax= 7.93D-05  0.00D+00 EMaxC= 1.00D-01 BMatC= 1.33D-06 BMatP= 3.30D-05
 IDIUse=1 WtCom= 1.00D+00 WtEn= 0.00D+00
 Coeff-Com:  0.188D-04 0.182D-03-0.139D-01-0.517D-01 0.107D+01
 Coeff:      0.188D-04 0.182D-03-0.139D-01-0.517D-01 0.107D+01
 Gap=     0.521 Goal=   None    Shift=    0.000
 Gap=     0.521 Goal=   None    Shift=    0.000
 RMSDP=1.53D-04 MaxDP=2.40D-03 DE=-8.97D-06 OVMax= 1.51D-04

 Cycle   6  Pass 1  IDiag  1:
 E= -75.6473949508672     Delta-E=       -0.000000230668 Rises=F Damp=F
 DIIS: error= 1.22D-05 at cycle   6 NSaved=   6.
 NSaved= 6 IEnMin= 6 EnMin= -75.6473949508672     IErMin= 6 ErrMin= 1.22D-05
 ErrMax= 1.22D-05  0.00D+00 EMaxC= 1.00D-01 BMatC= 1.96D-08 BMatP= 1.33D-06
 IDIUse=1 WtCom= 1.00D+00 WtEn= 0.00D+00
 Coeff-Com: -0.814D-04 0.962D-04-0.241D-03-0.437D-02 0.128D-01 0.992D+00
 Coeff:     -0.814D-04 0.962D-04-0.241D-03-0.437D-02 0.128D-01 0.992D+00
 Gap=     0.521 Goal=   None    Shift=    0.000
 Gap=     0.521 Goal=   None    Shift=    0.000
 RMSDP=1.03D-05 MaxDP=1.57D-04 DE=-2.31D-07 OVMax= 1.54D-05

 Cycle   7  Pass 1  IDiag  1:
 E= -75.6473949546997     Delta-E=       -0.000000003833 Rises=F Damp=F
 DIIS: error= 5.83D-07 at cycle   7 NSaved=   7.
 NSaved= 7 IEnMin= 7 EnMin= -75.6473949546997     IErMin= 7 ErrMin= 5.83D-07
 ErrMax= 5.83D-07  0.00D+00 EMaxC= 1.00D-01 BMatC= 5.96D-11 BMatP= 1.96D-08
 IDIUse=1 WtCom= 1.00D+00 WtEn= 0.00D+00
 Coeff-Com: -0.128D-05 0.124D-04 0.410D-04-0.150D-03-0.666D-02-0.155D-01
 Coeff-Com:  0.102D+01
 Coeff:     -0.128D-05 0.124D-04 0.410D-04-0.150D-03-0.666D-02-0.155D-01
 Coeff:      0.102D+01
 Gap=     0.521 Goal=   None    Shift=    0.000
 Gap=     0.521 Goal=   None    Shift=    0.000
 RMSDP=1.96D-06 MaxDP=3.29D-05 DE=-3.83D-09 OVMax= 1.83D-06

 Cycle   8  Pass 1  IDiag  1:
 E= -75.6473949547130     Delta-E=       -0.000000000013 Rises=F Damp=F
 DIIS: error= 7.16D-08 at cycle   8 NSaved=   8.
 NSaved= 8 IEnMin= 8 EnMin= -75.6473949547130     IErMin= 8 ErrMin= 7.16D-08
 ErrMax= 7.16D-08  0.00D+00 EMaxC= 1.00D-01 BMatC= 3.91D-13 BMatP= 5.96D-11
 IDIUse=1 WtCom= 1.00D+00 WtEn= 0.00D+00
 Coeff-Com:  0.409D-06-0.139D-05-0.102D-04 0.287D-04 0.713D-03-0.422D-02
 Coeff-Com: -0.924D-01 0.110D+01
 Coeff:      0.409D-06-0.139D-05-0.102D-04 0.287D-04 0.713D-03-0.422D-02
 Coeff:     -0.924D-01 0.110D+01
 Gap=     0.521 Goal=   None    Shift=    0.000
 Gap=     0.521 Goal=   None    Shift=    0.000
 RMSDP=1.85D-07 MaxDP=2.98D-06 DE=-1.33D-11 OVMax= 1.91D-07

 Cycle   9  Pass 1  IDiag  1:
 E= -75.6473949547131     Delta-E=       -0.000000000000 Rises=F Damp=F
 DIIS: error= 6.99D-09 at cycle   9 NSaved=   9.
 NSaved= 9 IEnMin= 9 EnMin= -75.6473949547131     IErMin= 9 ErrMin= 6.99D-09
 ErrMax= 6.99D-09  0.00D+00 EMaxC= 1.00D-01 BMatC= 1.20D-14 BMatP= 3.91D-13
 IDIUse=1 WtCom= 1.00D+00 WtEn= 0.00D+00
 Coeff-Com:  0.660D-07-0.256D-06-0.438D-06 0.562D-05 0.675D-04 0.235D-04
 Coeff-Com: -0.136D-01 0.955D-01 0.918D+00
 Coeff:      0.660D-07-0.256D-06-0.438D-06 0.562D-05 0.675D-04 0.235D-04
 Coeff:     -0.136D-01 0.955D-01 0.918D+00
 Gap=     0.521 Goal=   None    Shift=    0.000
 Gap=     0.521 Goal=   None    Shift=    0.000
 RMSDP=3.57D-09 MaxDP=5.75D-08 DE=-5.68D-14 OVMax= 1.34D-08

 SCF Done:  E(UM062X) =  -75.6473949547     A.U. after    9 cycles
            NFock=  9  Conv=0.36D-08     -V/T= 1.9049
 <Sx>= 0.0000 <Sy>= 0.0000 <Sz>= 0.0000 <S**2>=-0.0000 S=-0.0000
 <L.S>=  0.00000000000    
 KE= 8.359843128669D+01 PE=-2.618424136023D+02 EE= 6.251960353341D+01
 Annihilation of the first spin contaminant:
 S**2 before annihilation    -0.0000,   after    -0.0000
 Leave Link  502 at Tue Dec  3 19:51:36 2024, MaxMem=   536870912 cpu:              23.8 elap:               3.0
 (Enter /home/szhao/Apps/g16/l601.exe)
 Copying SCF densities to generalized density rwf, IOpCl= 1 IROHF=0.

 **********************************************************************

            Population analysis using the SCF density.

 **********************************************************************

 Alpha  occ. eigenvalues --  -10.52136 -10.39334  -0.87055  -0.70287  -0.64497
 Alpha  occ. eigenvalues --   -0.49539  -0.49539
 Alpha virt. eigenvalues --    0.02558   0.04458   0.06771   0.06771   0.09353
 Alpha virt. eigenvalues --    0.09353   0.11292   0.16767   0.26090   0.26132
 Alpha virt. eigenvalues --    0.28588   0.28588   0.50813   0.50813   0.51858
 Alpha virt. eigenvalues --    0.61154   0.71174   0.75456   0.82963   0.82963
 Alpha virt. eigenvalues --    1.20196   1.20196   1.21689   1.30454   1.45170
 Alpha virt. eigenvalues --    1.45170   1.76319   1.78905   1.87638   1.87638
 Alpha virt. eigenvalues --    2.08820   2.08820   2.38140   2.38140   2.73566
 Alpha virt. eigenvalues --    2.79071   2.89052   2.89052   3.01879   3.20697
 Alpha virt. eigenvalues --    3.20697   3.24466   3.90838   3.90838   4.99637
 Alpha virt. eigenvalues --    5.52968   6.24619  25.85704  26.31580
  Beta  occ. eigenvalues --  -10.52136 -10.39334  -0.87055  -0.70287  -0.64497
  Beta  occ. eigenvalues --   -0.49539  -0.49539
  Beta virt. eigenvalues --    0.02558   0.04458   0.06771   0.06771   0.09353
  Beta virt. eigenvalues --    0.09353   0.11292   0.16767   0.26090   0.26132
  Beta virt. eigenvalues --    0.28588   0.28588   0.50813   0.50813   0.51858
  Beta virt. eigenvalues --    0.61154   0.71174   0.75456   0.82963   0.82963
  Beta virt. eigenvalues --    1.20196   1.20196   1.21689   1.30454   1.45170
  Beta virt. eigenvalues --    1.45170   1.76319   1.78905   1.87638   1.87638
  Beta virt. eigenvalues --    2.08820   2.08820   2.38140   2.38140   2.73566
  Beta virt. eigenvalues --    2.79071   2.89052   2.89052   3.01879   3.20697
  Beta virt. eigenvalues --    3.20697   3.24466   3.90838   3.90838   4.99637
  Beta virt. eigenvalues --    5.52968   6.24619  25.85704  26.31580
          Condensed to atoms (all electrons):
               1          2          3          4
     1  C    8.175971  -2.952045   1.389772  -1.128162
     2  C   -2.952045   8.175874  -1.128111   1.389799
     3  H    1.389772  -1.128111   1.353001  -0.100199
     4  H   -1.128162   1.389799  -0.100199   1.353048
          Atomic-Atomic Spin Densities.
               1          2          3          4
     1  C   -0.000000   0.000000  -0.000000   0.000000
     2  C    0.000000  -0.000000   0.000000  -0.000000
     3  H   -0.000000   0.000000  -0.000000   0.000000
     4  H    0.000000  -0.000000   0.000000  -0.000000
 Mulliken charges and spin densities:
               1          2
     1  C    0.514465   0.000000
     2  C    0.514484  -0.000000
     3  H   -0.514463  -0.000000
     4  H   -0.514485  -0.000000
 Sum of Mulliken charges =  -0.00000   0.00000
 Mulliken charges and spin densities with hydrogens summed into heavy atoms:
               1          2
     1  C    0.000002   0.000000
     2  C   -0.000002  -0.000000
 Electronic spatial extent (au):  <R**2>=             35.0573
 Charge=             -0.0000 electrons
 Dipole moment (field-independent basis, Debye):
    X=             -0.0000    Y=             -0.0000    Z=             -0.0000  Tot=              0.0000
 Quadrupole moment (field-independent basis, Debye-Ang):
   XX=             -8.5587   YY=            -10.2232   ZZ=            -10.2232
   XY=              0.0000   XZ=              0.0000   YZ=              0.0000
 Traceless Quadrupole moment (field-independent basis, Debye-Ang):
   XX=              1.1097   YY=             -0.5548   ZZ=             -0.5548
   XY=              0.0000   XZ=              0.0000   YZ=              0.0000
 Octapole moment (field-independent basis, Debye-Ang**2):
  XXX=              0.0000  YYY=             -0.0000  ZZZ=              0.0000  XYY=              0.0000
  XXY=             -0.0000  XXZ=             -0.0000  XZZ=              0.0000  YZZ=             -0.0000
  YYZ=              0.0000  XYZ=              0.0000
 Hexadecapole moment (field-independent basis, Debye-Ang**3):
 XXXX=            -20.9655 YYYY=             -8.9872 ZZZZ=             -8.9872 XXXY=              0.0000
 XXXZ=              0.0000 YYYX=              0.0000 YYYZ=             -0.0000 ZZZX=              0.0000
 ZZZY=             -0.0000 XXYY=             -5.0129 XXZZ=             -5.0129 YYZZ=             -2.9957
 XXYZ=              0.0000 YYXZ=              0.0000 ZZXY=              0.0000
 N-N= 4.007698382750D+01 E-N=-2.618424139043D+02  KE= 8.359843128669D+01
                          Isotropic Fermi Contact Couplings
        Atom                 a.u.       MegaHertz       Gauss      10(-4) cm-1
     1  C(13)             -0.00000      -0.00000      -0.00000      -0.00000
     2  C(13)             -0.00000      -0.00000      -0.00000      -0.00000
     3  H(1)               0.00000       0.00000       0.00000       0.00000
     4  H(1)              -0.00000      -0.00000      -0.00000      -0.00000
 --------------------------------------------------------
       Center         ----  Spin Dipole Couplings  ----
                      3XX-RR        3YY-RR        3ZZ-RR
 --------------------------------------------------------
     1   Atom       -0.000000      0.000000      0.000000
     2   Atom        0.000000     -0.000000     -0.000000
     3   Atom       -0.000000      0.000000      0.000000
     4   Atom       -0.000000      0.000000      0.000000
 --------------------------------------------------------
                        XY            XZ            YZ
 --------------------------------------------------------
     1   Atom       -0.000000      0.000000      0.000000
     2   Atom       -0.000000     -0.000000      0.000000
     3   Atom        0.000000      0.000000      0.000000
     4   Atom        0.000000     -0.000000      0.000000
 --------------------------------------------------------


 ---------------------------------------------------------------------------------
              Anisotropic Spin Dipole Couplings in Principal Axis System
 ---------------------------------------------------------------------------------

       Atom             a.u.   MegaHertz   Gauss  10(-4) cm-1        Axes

              Baa    -0.0000    -0.000    -0.000    -0.000  0.9995  0.0286 -0.0137
     1 C(13)  Bbb     0.0000     0.000     0.000     0.000 -0.0283  0.9992  0.0271
              Bcc     0.0000     0.000     0.000     0.000  0.0145 -0.0267  0.9995
 
              Baa    -0.0000    -0.000    -0.000    -0.000  0.0108  0.9999  0.0077
     2 C(13)  Bbb    -0.0000    -0.000    -0.000    -0.000  0.0228 -0.0079  0.9997
              Bcc     0.0000     0.000     0.000     0.000  0.9997 -0.0106 -0.0229
 
              Baa    -0.0000    -0.000    -0.000    -0.000  0.9998 -0.0174 -0.0042
     3 H(1)   Bbb     0.0000     0.000     0.000     0.000  0.0037 -0.0305  0.9995
              Bcc     0.0000     0.000     0.000     0.000  0.0175  0.9994  0.0304
 
              Baa    -0.0000    -0.000    -0.000    -0.000  0.9998 -0.0064  0.0176
     4 H(1)   Bbb     0.0000     0.000     0.000     0.000  0.0061  0.9998  0.0166
              Bcc     0.0000     0.000     0.000     0.000 -0.0177 -0.0165  0.9997
 

 ---------------------------------------------------------------------------------

 No NMR shielding tensors so no spin-rotation constants.
 Leave Link  601 at Tue Dec  3 19:51:36 2024, MaxMem=   536870912 cpu:               1.2 elap:               0.2
 (Enter /home/szhao/Apps/g16/l701.exe)
 ... and contract with generalized density number  0.
 Compute integral first derivatives.
 Leave Link  701 at Tue Dec  3 19:51:36 2024, MaxMem=   536870912 cpu:               0.7 elap:               0.1
 (Enter /home/szhao/Apps/g16/l702.exe)
 L702 exits ... SP integral derivatives will be done elsewhere.
 Leave Link  702 at Tue Dec  3 19:51:36 2024, MaxMem=   536870912 cpu:               0.2 elap:               0.0
 (Enter /home/szhao/Apps/g16/l703.exe)
 Integral derivatives from FoFJK, PRISM(SPDF).
 Compute integral first derivatives, UseDBF=F ICtDFT=           0.
 Calling FoFJK, ICntrl=      2127 FMM=F ISym2X=0 I1Cent= 0 IOpClX= 1 NMat=1 NMatS=1 NMatT=0.
 FoFJK:  IHMeth= 1 ICntrl=    2127 DoSepK=F KAlg= 0 I1Cent=           0 FoldK=F
 IRaf=         0 NMat=       1 IRICut=       1 DoRegI=T DoRafI=F ISym2E= 0 IDoP0=0 IntGTp=1.
 FoFCou: FMM=F IPFlag=           0 FMFlag=      100000 FMFlg1=         800
         NFxFlg=           0 DoJE=F BraDBF=F KetDBF=F FulRan=T
         wScrn=  0.000000 ICntrl=      2127 IOpCl=  1 I1Cent=           0 NGrid=           0
         NMat0=    1 NMatS0=      1 NMatT0=    0 NMatD0=    1 NMtDS0=    0 NMtDT0=    0
 Symmetry not used in FoFCou.
 Leave Link  703 at Tue Dec  3 19:51:37 2024, MaxMem=   536870912 cpu:               5.6 elap:               0.7
 (Enter /home/szhao/Apps/g16/l716.exe)
 Dipole        =-2.23236657D-06-1.41272148D-15-6.68198823D-17
 -------------------------------------------------------------------
 Center     Atomic                   Forces (Hartrees/Bohr)
 Number     Number              X              Y              Z
 -------------------------------------------------------------------
      1        6          -0.000000000   -0.000000000   -0.000000000
      2        6          -0.000000000   -0.000000000   -0.000000000
      3        1          -1.104308306    0.000000000   -0.000000000
      4        1           1.104378510   -0.000000000    0.000000000
 -------------------------------------------------------------------
 Cartesian Forces:  Max     1.104378510 RMS     0.450846308
 Leave Link  716 at Tue Dec  3 19:51:37 2024, MaxMem=   536870912 cpu:               0.3 elap:               0.0
 (Enter /home/szhao/Apps/g16/l103.exe)

 GradGradGradGradGradGradGradGradGradGradGradGradGradGradGradGradGradGrad
 Berny optimization.
 FormGI is forming the generalized inverse of G from B-inverse, IUseBI=4.
 Internal  Forces:  Max     1.104378510 RMS     0.637592964
 Search for a local minimum.
 Step number   1 out of a maximum of   22
 All quantities printed in internal units (Hartrees-Bohrs-Radians)
 RMS Force = .63759D+00 SwitMx=.10000D-02 MixMth= 1
 Mixed Optimization -- RFO/linear search
 Second derivative matrix not updated -- first step.
 The second derivative matrix:
                          X1        Y1        Z1        X2        Y2
           X1           0.50000
           Y1           0.00000   0.50000
           Z1           0.00000   0.00000   0.50000
           X2           0.00000   0.00000   0.00000   0.50000
           Y2           0.00000   0.00000   0.00000   0.00000   0.50000
           Z2           0.00000   0.00000   0.00000   0.00000   0.00000
           R1           0.00000   0.00000   0.00000   0.00000   0.00000
           R2           0.00000   0.00000   0.00000   0.00000   0.00000
           A1           0.00000   0.00000   0.00000   0.00000   0.00000
           A2           0.00000   0.00000   0.00000   0.00000   0.00000
           A3           0.00000   0.00000   0.00000   0.00000   0.00000
           A4           0.00000   0.00000   0.00000   0.00000   0.00000
                          Z2        R1        R2        A1        A2
           Z2           0.50000
           R1           0.00000   2.41793
           R2           0.00000   0.00000   2.41808
           A1           0.00000   0.00000   0.00000   0.05924
           A2           0.00000   0.00000   0.00000   0.00000   0.05924
           A3           0.00000   0.00000   0.00000   0.00000   0.00000
           A4           0.00000   0.00000   0.00000   0.00000   0.00000
                          A3        A4
           A3           0.05924
           A4           0.00000   0.05924
 ITU=  0
     Eigenvalues ---    0.05924   0.05924   0.05924   2.41793   2.41808
     Eigenvalues --- 1000.000001000.000001000.000001000.000001000.00000
     Eigenvalues --- 1000.000001000.00000
 RFO step:  Lambda=-7.66050854D-01 EMin= 5.92378437D-02
 Linear search not attempted -- first point.
 Maximum step size (   0.300) exceeded in Quadratic search.
    -- Step size scaled by   0.612
 Iteration  1 RMS(Cart)=  0.08164966 RMS(Int)=  0.00495288
 Iteration  2 RMS(Cart)=  0.00495288 RMS(Int)=  0.00000000
 Iteration  3 RMS(Cart)=  0.00000000 RMS(Int)=  0.00000000
 ITry= 1 IFail=0 DXMaxC= 2.12D-01 DCOld= 1.00D+10 DXMaxT= 3.00D-01 DXLimC= 3.00D+00 Rises=F
 Variable       Old X    -DE/DX   Delta X   Delta X   Delta X     New X
                                 (Linear)    (Quad)   (Total)
    X1       -0.70124  -1.10431   0.00000   0.00000   0.00000  -0.70124
    Y1        0.00000  -0.00000   0.00000   0.00000   0.00000   0.00000
    Z1        0.00000  -0.00000   0.00000   0.00000   0.00000   0.00000
    X2        0.70124   1.10438   0.00000   0.00000   0.00000   0.70124
    Y2        0.00000  -0.00000   0.00000   0.00000   0.00000   0.00000
    Z2        0.00000   0.00000   0.00000   0.00000   0.00000   0.00000
    R1        1.24709   1.10431   0.00000   0.21213   0.21213   1.45922
    R2        1.24707   1.10438   0.00000   0.21213   0.21213   1.45921
    A1        3.14159   0.00000   0.00000   0.00000   0.00000   3.14159
    A2        3.14159   0.00000   0.00000   0.00000   0.00000   3.14159
    A3        3.14159  -0.00000   0.00000  -0.00000   0.00000   3.14159
    A4        3.14159   0.00000   0.00000   0.00000   0.00000   3.14159
         Item               Value     Threshold  Converged?
 Maximum Force            1.104379     0.000450     NO 
 RMS     Force            0.637593     0.000300     NO 
 Maximum Displacement     0.212134     0.001800     NO 
 RMS     Displacement     0.086603     0.001200     NO 
 Predicted change in Energy=-3.597230D-01
 Lowest energy point so far.  Saving SCF results.
 GradGradGradGradGradGradGradGradGradGradGradGradGradGradGradGradGradGrad

 Leave Link  103 at Tue Dec  3 19:51:37 2024, MaxMem=   536870912 cpu:               0.0 elap:               0.0
 (Enter /home/szhao/Apps/g16/l202.exe)
                          Input orientation:                          
 ---------------------------------------------------------------------
 Center     Atomic      Atomic             Coordinates (Angstroms)
 Number     Number       Type             X           Y           Z
 ---------------------------------------------------------------------
      1          6           0       -0.371080    0.000000    0.000000
      2          6           0        0.371080    0.000000    0.000000
      3          1           0       -1.143268   -0.000000   -0.000000
      4          1           0        1.143260   -0.000000    0.000000
 ---------------------------------------------------------------------
                    Distance matrix (angstroms):
                    1          2          3          4
     1  C    0.000000
     2  C    0.742159   0.000000
     3  H    0.772188   1.514347   0.000000
     4  H    1.514339   0.772180   2.286527   0.000000
 Symmetry turned off by external request.
 Stoichiometry    C2H2
 Framework group  C*V[C*(HCCH)]
 Deg. of freedom     3
 Full point group                 C*V     NOp   4
 Rotational constants (GHZ):           0.0000000          85.0897958          85.0897958
 Leave Link  202 at Tue Dec  3 19:51:37 2024, MaxMem=   536870912 cpu:               0.0 elap:               0.0
 (Enter /home/szhao/Apps/g16/l301.exe)
 Standard basis: 6-311+G(d,p) (5D, 7F)
 Ernie: Thresh=  0.10000D-02 Tol=  0.10000D-05 Strict=F.
    56 basis functions,    88 primitive gaussians,    58 cartesian basis functions
     7 alpha electrons        7 beta electrons
       nuclear repulsion energy        38.3172028887 Hartrees.
 IExCor= 4336 DFT=T Ex+Corr=M062X ExCW=0 ScaHFX=  0.540000
 ScaDFX=  1.000000  1.000000  1.000000  1.000000 ScalE2=  1.000000  1.000000
 IRadAn=      7 IRanWt=     -1 IRanGd=            0 ICorTp=0 IEmpDi=  4
 NAtoms=    4 NActive=    4 NUniq=    4 SFac= 1.00D+00 NAtFMM=   60 NAOKFM=F Big=F
 Integral buffers will be    131072 words long.
 Raffenetti 2 integral format.
 Two-electron integral symmetry is turned off.
 Leave Link  301 at Tue Dec  3 19:51:37 2024, MaxMem=   536870912 cpu:               0.3 elap:               0.0
 (Enter /home/szhao/Apps/g16/l302.exe)
 NPDir=0 NMtPBC=     1 NCelOv=     1 NCel=       1 NClECP=     1 NCelD=      1
         NCelK=      1 NCelE2=     1 NClLst=     1 CellRange=     0.0.
 One-electron integrals computed using PRISM.
 NBasis=    56 RedAO= T EigKep=  6.72D-06  NBF=    56
 NBsUse=    56 1.00D-06 EigRej= -1.00D+00 NBFU=    56
 Precomputing XC quadrature grid using
 IXCGrd= 4 IRadAn=           7 IRanWt=          -1 IRanGd=           0 AccXCQ= 0.00D+00.
 Generated NRdTot=       0 NPtTot=           0 NUsed=           0 NTot=          32
 NSgBfM=    58    58    58    58    58 MxSgAt=     4 MxSgA2=     4.
 Leave Link  302 at Tue Dec  3 19:51:37 2024, MaxMem=   536870912 cpu:               1.0 elap:               0.1
 (Enter /home/szhao/Apps/g16/l303.exe)
 DipDrv:  MaxL=1.
 Leave Link  303 at Tue Dec  3 19:51:37 2024, MaxMem=   536870912 cpu:               0.2 elap:               0.0
 (Enter /home/szhao/Apps/g16/l401.exe)
 Initial guess from the checkpoint file:  "opt.chk"
 B after Tr=     0.000000   -0.000000    0.000000
         Rot=    0.998850   -0.047944    0.000000    0.000000 Ang=  -5.50 deg.
 Guess basis will be translated and rotated to current coordinates.
 JPrj=2 DoOrth=T DoCkMO=T.
 Initial guess <Sx>= 0.0000 <Sy>= 0.0000 <Sz>= 0.0000 <S**2>=-0.0000 S=-0.0000
 Generating alternative initial guess.
 ExpMin= 4.38D-02 ExpMax= 4.56D+03 ExpMxC= 6.82D+02 IAcc=3 IRadAn=         5 AccDes= 0.00D+00
 Harris functional with IExCor= 1009 and IRadAn=       5 diagonalized for initial guess.
 HarFok:  IExCor= 1009 AccDes= 0.00D+00 IRadAn=         5 IDoV= 1 UseB2=F ITyADJ=14
 ICtDFT=  3500011 ScaDFX=  1.000000  1.000000  1.000000  1.000000
 FoFCou: FMM=F IPFlag=           0 FMFlag=      100000 FMFlg1=           0
         NFxFlg=           0 DoJE=T BraDBF=F KetDBF=T FulRan=T
         wScrn=  0.000000 ICntrl=       500 IOpCl=  0 I1Cent=   200000004 NGrid=           0
         NMat0=    1 NMatS0=      1 NMatT0=    0 NMatD0=    1 NMtDS0=    0 NMtDT0=    0
 Symmetry not used in FoFCou.
 Harris En= -76.5135471758289    
 Leave Link  401 at Tue Dec  3 19:51:37 2024, MaxMem=   536870912 cpu:               1.6 elap:               0.2
 (Enter /home/szhao/Apps/g16/l502.exe)
 Keep R1 and R2 ints in memory in canonical form, NReq=9624198.
 FoFCou: FMM=F IPFlag=           0 FMFlag=           0 FMFlg1=           0
         NFxFlg=           0 DoJE=F BraDBF=F KetDBF=F FulRan=T
         wScrn=  0.000000 ICntrl=       600 IOpCl=  0 I1Cent=           0 NGrid=           0
         NMat0=    1 NMatS0=   1596 NMatT0=    0 NMatD0=    1 NMtDS0=    0 NMtDT0=    0
 Symmetry not used in FoFCou.
 Two-electron integral symmetry not used.
 UHF open shell SCF:
 Using DIIS extrapolation, IDIIS=  1040.
 NGot=   536870912 LenX=   534314338 LenY=   534310533
 Requested convergence on RMS density matrix=1.00D-08 within 128 cycles.
 Requested convergence on MAX density matrix=1.00D-06.
 Requested convergence on             energy=1.00D-06.
 No special actions if energy rises.

 Cycle   1  Pass 1  IDiag  1:
 E= -75.9661188151382    
 DIIS: error= 3.24D-02 at cycle   1 NSaved=   1.
 NSaved= 1 IEnMin= 1 EnMin= -75.9661188151382     IErMin= 1 ErrMin= 3.24D-02
 ErrMax= 3.24D-02  0.00D+00 EMaxC= 1.00D-01 BMatC= 1.23D-01 BMatP= 1.23D-01
 IDIUse=3 WtCom= 6.76D-01 WtEn= 3.24D-01
 Coeff-Com:  0.100D+01
 Coeff-En:   0.100D+01
 Coeff:      0.100D+01
 Recover alternate guess density for next cycle.
 RMSDP=1.09D-01 MaxDP=1.88D+00              OVMax= 0.00D+00

 Cycle   2  Pass 1  IDiag  1:
 E= -75.4513708176871     Delta-E=        0.514747997451 Rises=F Damp=F
 Switch densities from cycles 1 and 2 for lowest energy.
 DIIS: error= 1.49D-01 at cycle   2 NSaved=   2.
 NSaved= 2 IEnMin= 1 EnMin= -75.9661188151382     IErMin= 1 ErrMin= 3.24D-02
 ErrMax= 1.49D-01  0.00D+00 EMaxC= 1.00D+00 BMatC= 2.86D+00 BMatP= 1.23D-01
 IDIUse=1 WtCom= 1.00D+00 WtEn= 0.00D+00
 Coeff-Com:  0.945D+00 0.549D-01
 Coeff:      0.945D+00 0.549D-01
 Gap=     0.744 Goal=   None    Shift=    0.000
 Gap=     0.744 Goal=   None    Shift=    0.000
 RMSDP=1.64D-02 MaxDP=2.58D-01 DE= 5.15D-01 OVMax= 1.95D-01

 Cycle   3  Pass 1  IDiag  1:
 E= -75.9787020294485     Delta-E=       -0.527331211761 Rises=F Damp=F
 DIIS: error= 3.50D-03 at cycle   3 NSaved=   3.
 NSaved= 3 IEnMin= 3 EnMin= -75.9787020294485     IErMin= 3 ErrMin= 3.50D-03
 ErrMax= 3.50D-03  0.00D+00 EMaxC= 1.00D+00 BMatC= 2.05D-03 BMatP= 1.23D-01
 IDIUse=1 WtCom= 1.00D+00 WtEn= 0.00D+00
 Coeff-Com:  0.754D-02 0.227D-01 0.970D+00
 Coeff:      0.754D-02 0.227D-01 0.970D+00
 Gap=     0.520 Goal=   None    Shift=    0.000
 Gap=     0.520 Goal=   None    Shift=    0.000
 RMSDP=4.96D-03 MaxDP=1.08D-01 DE=-5.27D-01 OVMax= 5.01D-03

 Cycle   4  Pass 1  IDiag  1:
 E= -75.9790531895005     Delta-E=       -0.000351160052 Rises=F Damp=F
 DIIS: error= 2.12D-04 at cycle   4 NSaved=   4.
 NSaved= 4 IEnMin= 4 EnMin= -75.9790531895005     IErMin= 4 ErrMin= 2.12D-04
 ErrMax= 2.12D-04  0.00D+00 EMaxC= 1.00D+00 BMatC= 6.24D-06 BMatP= 2.05D-03
 IDIUse=1 WtCom= 1.00D+00 WtEn= 0.00D+00
 Coeff-Com: -0.241D-02 0.149D-03 0.237D-01 0.979D+00
 Coeff:     -0.241D-02 0.149D-03 0.237D-01 0.979D+00
 Gap=     0.520 Goal=   None    Shift=    0.000
 Gap=     0.520 Goal=   None    Shift=    0.000
 RMSDP=6.72D-04 MaxDP=1.44D-02 DE=-3.51D-04 OVMax= 5.46D-04

 Cycle   5  Pass 1  IDiag  1:
 E= -75.9790547210078     Delta-E=       -0.000001531507 Rises=F Damp=F
 DIIS: error= 2.22D-05 at cycle   5 NSaved=   5.
 NSaved= 5 IEnMin= 5 EnMin= -75.9790547210078     IErMin= 5 ErrMin= 2.22D-05
 ErrMax= 2.22D-05  0.00D+00 EMaxC= 1.00D+00 BMatC= 1.18D-07 BMatP= 6.24D-06
 IDIUse=1 WtCom= 1.00D+00 WtEn= 0.00D+00
 Coeff-Com:  0.114D-04-0.285D-03-0.959D-02 0.239D-01 0.986D+00
 Coeff:      0.114D-04-0.285D-03-0.959D-02 0.239D-01 0.986D+00
 Gap=     0.520 Goal=   None    Shift=    0.000
 Gap=     0.520 Goal=   None    Shift=    0.000
 RMSDP=1.11D-04 MaxDP=1.72D-03 DE=-1.53D-06 OVMax= 6.53D-05

 Cycle   6  Pass 1  IDiag  1:
 E= -75.9790547485401     Delta-E=       -0.000000027532 Rises=F Damp=F
 DIIS: error= 3.18D-06 at cycle   6 NSaved=   6.
 NSaved= 6 IEnMin= 6 EnMin= -75.9790547485401     IErMin= 6 ErrMin= 3.18D-06
 ErrMax= 3.18D-06  0.00D+00 EMaxC= 1.00D+00 BMatC= 1.69D-09 BMatP= 1.18D-07
 IDIUse=1 WtCom= 1.00D+00 WtEn= 0.00D+00
 Coeff-Com: -0.521D-05 0.112D-04 0.701D-03-0.191D-02-0.143D+00 0.114D+01
 Coeff:     -0.521D-05 0.112D-04 0.701D-03-0.191D-02-0.143D+00 0.114D+01
 Gap=     0.520 Goal=   None    Shift=    0.000
 Gap=     0.520 Goal=   None    Shift=    0.000
 RMSDP=1.84D-05 MaxDP=2.69D-04 DE=-2.75D-08 OVMax= 1.42D-05

 Cycle   7  Pass 1  IDiag  1:
 E= -75.9790547490941     Delta-E=       -0.000000000554 Rises=F Damp=F
 DIIS: error= 1.74D-07 at cycle   7 NSaved=   7.
 NSaved= 7 IEnMin= 7 EnMin= -75.9790547490941     IErMin= 7 ErrMin= 1.74D-07
 ErrMax= 1.74D-07  0.00D+00 EMaxC= 1.00D+00 BMatC= 3.46D-12 BMatP= 1.69D-09
 IDIUse=1 WtCom= 1.00D+00 WtEn= 0.00D+00
 Coeff-Com:  0.463D-06 0.762D-07-0.131D-04 0.331D-04 0.211D-02-0.558D-01
 Coeff-Com:  0.105D+01
 Coeff:      0.463D-06 0.762D-07-0.131D-04 0.331D-04 0.211D-02-0.558D-01
 Coeff:      0.105D+01
 Gap=     0.520 Goal=   None    Shift=    0.000
 Gap=     0.520 Goal=   None    Shift=    0.000
 RMSDP=7.17D-07 MaxDP=1.09D-05 DE=-5.54D-10 OVMax= 9.74D-07

 Cycle   8  Pass 1  IDiag  1:
 E= -75.9790547490959     Delta-E=       -0.000000000002 Rises=F Damp=F
 DIIS: error= 1.51D-08 at cycle   8 NSaved=   8.
 NSaved= 8 IEnMin= 8 EnMin= -75.9790547490959     IErMin= 8 ErrMin= 1.51D-08
 ErrMax= 1.51D-08  0.00D+00 EMaxC= 1.00D+00 BMatC= 5.00D-14 BMatP= 3.46D-12
 IDIUse=1 WtCom= 1.00D+00 WtEn= 0.00D+00
 Coeff-Com:  0.322D-07-0.130D-07 0.150D-05 0.158D-04 0.320D-04-0.111D-02
 Coeff-Com: -0.512D-01 0.105D+01
 Coeff:      0.322D-07-0.130D-07 0.150D-05 0.158D-04 0.320D-04-0.111D-02
 Coeff:     -0.512D-01 0.105D+01
 Gap=     0.520 Goal=   None    Shift=    0.000
 Gap=     0.520 Goal=   None    Shift=    0.000
 RMSDP=4.06D-08 MaxDP=1.01D-06 DE=-1.82D-12 OVMax= 7.21D-08

 Cycle   9  Pass 1  IDiag  1:
 E= -75.9790547490960     Delta-E=       -0.000000000000 Rises=F Damp=F
 DIIS: error= 9.94D-09 at cycle   9 NSaved=   9.
 NSaved= 9 IEnMin= 9 EnMin= -75.9790547490960     IErMin= 9 ErrMin= 9.94D-09
 ErrMax= 9.94D-09  0.00D+00 EMaxC= 1.00D+00 BMatC= 1.21D-14 BMatP= 5.00D-14
 IDIUse=1 WtCom= 1.00D+00 WtEn= 0.00D+00
 Coeff-Com:  0.403D-08-0.360D-08 0.970D-06 0.564D-05-0.304D-04 0.646D-03
 Coeff-Com: -0.417D-01 0.421D+00 0.620D+00
 Coeff:      0.403D-08-0.360D-08 0.970D-06 0.564D-05-0.304D-04 0.646D-03
 Coeff:     -0.417D-01 0.421D+00 0.620D+00
 Gap=     0.520 Goal=   None    Shift=    0.000
 Gap=     0.520 Goal=   None    Shift=    0.000
 RMSDP=4.67D-09 MaxDP=7.48D-08 DE=-1.42D-13 OVMax= 1.56D-08

 SCF Done:  E(UM062X) =  -75.9790547491     A.U. after    9 cycles
            NFock=  9  Conv=0.47D-08     -V/T= 1.9180
 <Sx>= 0.0000 <Sy>= 0.0000 <Sz>= 0.0000 <S**2>=-0.0000 S=-0.0000
 <L.S>=  0.00000000000    
 KE= 8.276804050760D+01 PE=-2.583767537629D+02 EE= 6.131245561751D+01
 Annihilation of the first spin contaminant:
 S**2 before annihilation    -0.0000,   after     0.0000
 Leave Link  502 at Tue Dec  3 19:51:40 2024, MaxMem=   536870912 cpu:              23.4 elap:               3.0
 (Enter /home/szhao/Apps/g16/l701.exe)
 ... and contract with generalized density number  0.
 Compute integral first derivatives.
 Leave Link  701 at Tue Dec  3 19:51:40 2024, MaxMem=   536870912 cpu:               0.8 elap:               0.1
 (Enter /home/szhao/Apps/g16/l702.exe)
 L702 exits ... SP integral derivatives will be done elsewhere.
 Leave Link  702 at Tue Dec  3 19:51:40 2024, MaxMem=   536870912 cpu:               0.2 elap:               0.0
 (Enter /home/szhao/Apps/g16/l703.exe)
 Integral derivatives from FoFJK, PRISM(SPDF).
 Compute integral first derivatives, UseDBF=F ICtDFT=           0.
 Calling FoFJK, ICntrl=      2127 FMM=F ISym2X=0 I1Cent= 0 IOpClX= 1 NMat=1 NMatS=1 NMatT=0.
 FoFJK:  IHMeth= 1 ICntrl=    2127 DoSepK=F KAlg= 0 I1Cent=           0 FoldK=F
 IRaf=         0 NMat=       1 IRICut=       1 DoRegI=T DoRafI=F ISym2E= 0 IDoP0=0 IntGTp=1.
 FoFCou: FMM=F IPFlag=           0 FMFlag=      100000 FMFlg1=         800
         NFxFlg=           0 DoJE=F BraDBF=F KetDBF=F FulRan=T
         wScrn=  0.000000 ICntrl=      2127 IOpCl=  1 I1Cent=           0 NGrid=           0
         NMat0=    1 NMatS0=      1 NMatT0=    0 NMatD0=    1 NMtDS0=    0 NMtDT0=    0
 Symmetry not used in FoFCou.
 Leave Link  703 at Tue Dec  3 19:51:41 2024, MaxMem=   536870912 cpu:               5.4 elap:               0.7
 (Enter /home/szhao/Apps/g16/l716.exe)
 Dipole        =-1.19561052D-06-6.98179360D-15-3.30952397D-14
 -------------------------------------------------------------------
 Center     Atomic                   Forces (Hartrees/Bohr)
 Number     Number              X              Y              Z
 -------------------------------------------------------------------
      1        6          -0.000000000   -0.000000000   -0.000000000
      2        6          -0.000000000   -0.000000000   -0.000000000
      3        1          -0.522671658    0.000000000    0.000000000
      4        1           0.522701426    0.000000000   -0.000000000
 -------------------------------------------------------------------
 Cartesian Forces:  Max     0.522701426 RMS     0.213385887
 Leave Link  716 at Tue Dec  3 19:51:41 2024, MaxMem=   536870912 cpu:               0.3 elap:               0.0
 (Enter /home/szhao/Apps/g16/l103.exe)

 GradGradGradGradGradGradGradGradGradGradGradGradGradGradGradGradGradGrad
 Berny optimization.
 Using GEDIIS/GDIIS optimizer.
 FormGI is forming the generalized inverse of G from B-inverse, IUseBI=4.
 Internal  Forces:  Max     0.522701426 RMS     0.301773216
 Search for a local minimum.
 Step number   2 out of a maximum of   22
 All quantities printed in internal units (Hartrees-Bohrs-Radians)
 RMS Force = .30177D+00 SwitMx=.10000D-02 MixMth= 1
 Mixed Optimization -- RFO/linear search
 Update second derivatives using D2CorX and points    1    2
 DE= -3.32D-01 DEPred=-3.60D-01 R= 9.22D-01
 TightC=F SS=  1.41D+00  RLast= 3.00D-01 DXNew= 5.0454D-01 9.0000D-01
 Trust test= 9.22D-01 RLast= 3.00D-01 DXMaxT set to 5.05D-01
 The second derivative matrix:
                          X1        Y1        Z1        X2        Y2
           X1           1.87088
           Y1          -0.00000   0.50000
           Z1           0.00000  -0.00000   0.50000
           X2          -1.37098   0.00000  -0.00000   1.87107
           Y2           0.00000  -0.00000   0.00000  -0.00000   0.50000
           Z2          -0.00000   0.00000  -0.00000   0.00000  -0.00000
           R1          -1.37088   0.00000  -0.00000   1.37098  -0.00000
           R2          -1.37098   0.00000  -0.00000   1.37107  -0.00000
           A1          -0.00000   0.00000  -0.00000   0.00000  -0.00000
           A2          -0.00000   0.00000  -0.00000   0.00000  -0.00000
           A3          -0.00000   0.00000  -0.00000   0.00000  -0.00000
           A4          -0.00000   0.00000  -0.00000   0.00000  -0.00000
                          Z2        R1        R2        A1        A2
           Z2           0.50000
           R1           0.00000   2.57990
           R2           0.00000   0.16198   2.58006
           A1           0.00000   0.00000   0.00000   0.05924
           A2           0.00000   0.00000   0.00000   0.00000   0.05924
           A3           0.00000   0.00000   0.00000   0.00000   0.00000
           A4           0.00000   0.00000   0.00000   0.00000   0.00000
                          A3        A4
           A3           0.05924
           A4           0.00000   0.05924
 ITU=  1  0
 Use linear search instead of GDIIS.
 Linear search step of   0.600 exceeds DXMaxT=   0.505 but not scaled.
 Quartic linear search produced a step of  2.00000.
 Iteration  1 RMS(Cart)=  0.08164966 RMS(Int)=  0.09155542
 Iteration  2 RMS(Cart)=  0.08164966 RMS(Int)=  0.00990576
 Iteration  3 RMS(Cart)=  0.00990576 RMS(Int)=  0.00000000
 Iteration  4 RMS(Cart)=  0.00000000 RMS(Int)=  0.00000000
 ITry= 1 IFail=0 DXMaxC= 4.24D-01 DCOld= 1.00D+10 DXMaxT= 5.05D-01 DXLimC= 3.00D+00 Rises=F
 Variable       Old X    -DE/DX   Delta X   Delta X   Delta X     New X
                                 (Linear)    (Quad)   (Total)
    X1       -0.70124  -0.52267   0.00000   0.00000   0.00000  -0.70124
    Y1        0.00000  -0.00000   0.00000   0.00000   0.00000   0.00000
    Z1        0.00000  -0.00000   0.00000   0.00000   0.00000   0.00000
    X2        0.70124   0.52270   0.00000   0.00000   0.00000   0.70124
    Y2        0.00000   0.00000   0.00000   0.00000   0.00000   0.00000
    Z2        0.00000   0.00000   0.00000   0.00000   0.00000   0.00000
    R1        1.45922   0.52267   0.42426   0.00000   0.42426   1.88348
    R2        1.45921   0.52270   0.42427   0.00000   0.42427   1.88348
    A1        3.14159  -0.00000   0.00000   0.00000   0.00000   3.14159
    A2        3.14159  -0.00000   0.00000   0.00000   0.00000   3.14159
    A3        3.14159  -0.00000   0.00000   0.00000   0.00000   3.14159
    A4        3.14159  -0.00000   0.00000   0.00000   0.00000   3.14159
         Item               Value     Threshold  Converged?
 Maximum Force            0.522701     0.000450     NO 
 RMS     Force            0.301773     0.000300     NO 
 Maximum Displacement     0.424267     0.001800     NO 
 RMS     Displacement     0.173205     0.001200     NO 
 Predicted change in Energy=-5.003798D-02
 Lowest energy point so far.  Saving SCF results.
 GradGradGradGradGradGradGradGradGradGradGradGradGradGradGradGradGradGrad

 Leave Link  103 at Tue Dec  3 19:51:41 2024, MaxMem=   536870912 cpu:               0.0 elap:               0.0
 (Enter /home/szhao/Apps/g16/l202.exe)
                          Input orientation:                          
 ---------------------------------------------------------------------
 Center     Atomic      Atomic             Coordinates (Angstroms)
 Number     Number       Type             X           Y           Z
 ---------------------------------------------------------------------
      1          6           0       -0.371080    0.000000    0.000000
      2          6           0        0.371080    0.000000    0.000000
      3          1           0       -1.367777   -0.000000   -0.000000
      4          1           0        1.367772   -0.000000    0.000000
 ---------------------------------------------------------------------
                    Distance matrix (angstroms):
                    1          2          3          4
     1  C    0.000000
     2  C    0.742159   0.000000
     3  H    0.996697   1.738856   0.000000
     4  H    1.738852   0.996693   2.735549   0.000000
 Symmetry turned off by external request.
 Stoichiometry    C2H2
 Framework group  C*V[C*(HCCH)]
 Deg. of freedom     3
 Full point group                 C*V     NOp   4
 Rotational constants (GHZ):           0.0000000          71.4246506          71.4246506
 Leave Link  202 at Tue Dec  3 19:51:41 2024, MaxMem=   536870912 cpu:               0.0 elap:               0.0
 (Enter /home/szhao/Apps/g16/l301.exe)
 Standard basis: 6-311+G(d,p) (5D, 7F)
 Ernie: Thresh=  0.10000D-02 Tol=  0.10000D-05 Strict=F.
    56 basis functions,    88 primitive gaussians,    58 cartesian basis functions
     7 alpha electrons        7 beta electrons
       nuclear repulsion energy        35.8853891608 Hartrees.
 IExCor= 4336 DFT=T Ex+Corr=M062X ExCW=0 ScaHFX=  0.540000
 ScaDFX=  1.000000  1.000000  1.000000  1.000000 ScalE2=  1.000000  1.000000
 IRadAn=      7 IRanWt=     -1 IRanGd=            0 ICorTp=0 IEmpDi=  4
 NAtoms=    4 NActive=    4 NUniq=    4 SFac= 1.00D+00 NAtFMM=   60 NAOKFM=F Big=F
 Integral buffers will be    131072 words long.
 Raffenetti 2 integral format.
 Two-electron integral symmetry is turned off.
 Leave Link  301 at Tue Dec  3 19:51:41 2024, MaxMem=   536870912 cpu:               0.3 elap:               0.0
 (Enter /home/szhao/Apps/g16/l302.exe)
 NPDir=0 NMtPBC=     1 NCelOv=     1 NCel=       1 NClECP=     1 NCelD=      1
         NCelK=      1 NCelE2=     1 NClLst=     1 CellRange=     0.0.
 One-electron integrals computed using PRISM.
 NBasis=    56 RedAO= T EigKep=  6.12D-06  NBF=    56
 NBsUse=    56 1.00D-06 EigRej= -1.00D+00 NBFU=    56
 Precomputing XC quadrature grid using
 IXCGrd= 4 IRadAn=           7 IRanWt=          -1 IRanGd=           0 AccXCQ= 0.00D+00.
 Generated NRdTot=       0 NPtTot=           0 NUsed=           0 NTot=          32
 NSgBfM=    58    58    58    58    58 MxSgAt=     4 MxSgA2=     4.
 Leave Link  302 at Tue Dec  3 19:51:41 2024, MaxMem=   536870912 cpu:               1.0 elap:               0.1
 (Enter /home/szhao/Apps/g16/l303.exe)
 DipDrv:  MaxL=1.
 Leave Link  303 at Tue Dec  3 19:51:41 2024, MaxMem=   536870912 cpu:               0.3 elap:               0.0
 (Enter /home/szhao/Apps/g16/l401.exe)
 Initial guess from the checkpoint file:  "opt.chk"
 B after Tr=     0.000000   -0.000000    0.000000
         Rot=    0.999864   -0.016501    0.000000    0.000000 Ang=  -1.89 deg.
 Guess basis will be translated and rotated to current coordinates.
 JPrj=2 DoOrth=T DoCkMO=T.
 Initial guess <Sx>= 0.0000 <Sy>= 0.0000 <Sz>= 0.0000 <S**2>=-0.0000 S=-0.0000
 Generating alternative initial guess.
 ExpMin= 4.38D-02 ExpMax= 4.56D+03 ExpMxC= 6.82D+02 IAcc=3 IRadAn=         5 AccDes= 0.00D+00
 Harris functional with IExCor= 1009 and IRadAn=       5 diagonalized for initial guess.
 HarFok:  IExCor= 1009 AccDes= 0.00D+00 IRadAn=         5 IDoV= 1 UseB2=F ITyADJ=14
 ICtDFT=  3500011 ScaDFX=  1.000000  1.000000  1.000000  1.000000
 FoFCou: FMM=F IPFlag=           0 FMFlag=      100000 FMFlg1=           0
         NFxFlg=           0 DoJE=T BraDBF=F KetDBF=T FulRan=T
         wScrn=  0.000000 ICntrl=       500 IOpCl=  0 I1Cent=   200000004 NGrid=           0
         NMat0=    1 NMatS0=      1 NMatT0=    0 NMatD0=    1 NMtDS0=    0 NMtDT0=    0
 Symmetry not used in FoFCou.
 Harris En= -76.6382986187746    
 Leave Link  401 at Tue Dec  3 19:51:42 2024, MaxMem=   536870912 cpu:               1.6 elap:               0.2
 (Enter /home/szhao/Apps/g16/l502.exe)
 Keep R1 and R2 ints in memory in canonical form, NReq=9624198.
 FoFCou: FMM=F IPFlag=           0 FMFlag=           0 FMFlg1=           0
         NFxFlg=           0 DoJE=F BraDBF=F KetDBF=F FulRan=T
         wScrn=  0.000000 ICntrl=       600 IOpCl=  0 I1Cent=           0 NGrid=           0
         NMat0=    1 NMatS0=   1596 NMatT0=    0 NMatD0=    1 NMtDS0=    0 NMtDT0=    0
 Symmetry not used in FoFCou.
 Two-electron integral symmetry not used.
 UHF open shell SCF:
 Using DIIS extrapolation, IDIIS=  1040.
 NGot=   536870912 LenX=   534314338 LenY=   534310533
 Requested convergence on RMS density matrix=1.00D-08 within 128 cycles.
 Requested convergence on MAX density matrix=1.00D-06.
 Requested convergence on             energy=1.00D-06.
 No special actions if energy rises.

 Cycle   1  Pass 1  IDiag  1:
 E= -76.1492927754078    
 DIIS: error= 4.30D-02 at cycle   1 NSaved=   1.
 NSaved= 1 IEnMin= 1 EnMin= -76.1492927754078     IErMin= 1 ErrMin= 4.30D-02
 ErrMax= 4.30D-02  0.00D+00 EMaxC= 1.00D-01 BMatC= 2.49D-01 BMatP= 2.49D-01
 IDIUse=3 WtCom= 5.70D-01 WtEn= 4.30D-01
 Coeff-Com:  0.100D+01
 Coeff-En:   0.100D+01
 Coeff:      0.100D+01
 Recover alternate guess density for next cycle.
 RMSDP=3.56D-02 MaxDP=3.39D-01              OVMax= 0.00D+00

 Cycle   2  Pass 1  IDiag  1:
 E= -75.6447536325565     Delta-E=        0.504539142851 Rises=F Damp=F
 Switch densities from cycles 1 and 2 for lowest energy.
 DIIS: error= 1.45D-01 at cycle   2 NSaved=   2.
 NSaved= 2 IEnMin= 1 EnMin= -76.1492927754078     IErMin= 1 ErrMin= 4.30D-02
 ErrMax= 1.45D-01  0.00D+00 EMaxC= 1.00D+00 BMatC= 2.78D+00 BMatP= 2.49D-01
 IDIUse=1 WtCom= 1.00D+00 WtEn= 0.00D+00
 Coeff-Com:  0.899D+00 0.101D+00
 Coeff:      0.899D+00 0.101D+00
 Gap=     0.805 Goal=   None    Shift=    0.000
 Gap=     0.805 Goal=   None    Shift=    0.000
 RMSDP=7.53D-02 MaxDP=1.65D+00 DE= 5.05D-01 OVMax= 2.28D-01

 Cycle   3  Pass 1  IDiag  1:
 E= -76.1820362756304     Delta-E=       -0.537282643074 Rises=F Damp=F
 DIIS: error= 6.77D-03 at cycle   3 NSaved=   3.
 NSaved= 3 IEnMin= 3 EnMin= -76.1820362756304     IErMin= 3 ErrMin= 6.77D-03
 ErrMax= 6.77D-03  0.00D+00 EMaxC= 1.00D+00 BMatC= 6.81D-03 BMatP= 2.49D-01
 IDIUse=1 WtCom= 1.00D+00 WtEn= 0.00D+00
 Coeff-Com:  0.586D-02 0.425D-01 0.952D+00
 Coeff:      0.586D-02 0.425D-01 0.952D+00
 Gap=     0.524 Goal=   None    Shift=    0.000
 Gap=     0.524 Goal=   None    Shift=    0.000
 RMSDP=2.24D-03 MaxDP=3.25D-02 DE=-5.37D-01 OVMax= 9.50D-03

 Cycle   4  Pass 1  IDiag  1:
 E= -76.1832822368406     Delta-E=       -0.001245961210 Rises=F Damp=F
 DIIS: error= 3.96D-04 at cycle   4 NSaved=   4.
 NSaved= 4 IEnMin= 4 EnMin= -76.1832822368406     IErMin= 4 ErrMin= 3.96D-04
 ErrMax= 3.96D-04  0.00D+00 EMaxC= 1.00D+00 BMatC= 2.15D-05 BMatP= 6.81D-03
 IDIUse=1 WtCom= 1.00D+00 WtEn= 0.00D+00
 Coeff-Com: -0.215D-02-0.238D-02-0.828D-02 0.101D+01
 Coeff:     -0.215D-02-0.238D-02-0.828D-02 0.101D+01
 Gap=     0.524 Goal=   None    Shift=    0.000
 Gap=     0.524 Goal=   None    Shift=    0.000
 RMSDP=5.95D-04 MaxDP=7.78D-03 DE=-1.25D-03 OVMax= 1.39D-03

 Cycle   5  Pass 1  IDiag  1:
 E= -76.1832889645879     Delta-E=       -0.000006727747 Rises=F Damp=F
 DIIS: error= 7.06D-05 at cycle   5 NSaved=   5.
 NSaved= 5 IEnMin= 5 EnMin= -76.1832889645879     IErMin= 5 ErrMin= 7.06D-05
 ErrMax= 7.06D-05  0.00D+00 EMaxC= 1.00D+00 BMatC= 5.52D-07 BMatP= 2.15D-05
 IDIUse=1 WtCom= 1.00D+00 WtEn= 0.00D+00
 Coeff-Com: -0.799D-05-0.703D-03-0.111D-01 0.302D-01 0.982D+00
 Coeff:     -0.799D-05-0.703D-03-0.111D-01 0.302D-01 0.982D+00
 Gap=     0.524 Goal=   None    Shift=    0.000
 Gap=     0.524 Goal=   None    Shift=    0.000
 RMSDP=1.97D-04 MaxDP=4.68D-03 DE=-6.73D-06 OVMax= 1.76D-04

 Cycle   6  Pass 1  IDiag  1:
 E= -76.1832891021044     Delta-E=       -0.000000137517 Rises=F Damp=F
 DIIS: error= 1.53D-05 at cycle   6 NSaved=   6.
 NSaved= 6 IEnMin= 6 EnMin= -76.1832891021044     IErMin= 6 ErrMin= 1.53D-05
 ErrMax= 1.53D-05  0.00D+00 EMaxC= 1.00D+00 BMatC= 1.18D-08 BMatP= 5.52D-07
 IDIUse=1 WtCom= 1.00D+00 WtEn= 0.00D+00
 Coeff-Com:  0.816D-05 0.803D-05 0.502D-03-0.724D-02-0.119D+00 0.113D+01
 Coeff:      0.816D-05 0.803D-05 0.502D-03-0.724D-02-0.119D+00 0.113D+01
 Gap=     0.524 Goal=   None    Shift=    0.000
 Gap=     0.524 Goal=   None    Shift=    0.000
 RMSDP=4.69D-05 MaxDP=1.14D-03 DE=-1.38D-07 OVMax= 4.57D-05

 Cycle   7  Pass 1  IDiag  1:
 E= -76.1832891067190     Delta-E=       -0.000000004615 Rises=F Damp=F
 DIIS: error= 1.22D-06 at cycle   7 NSaved=   7.
 NSaved= 7 IEnMin= 7 EnMin= -76.1832891067190     IErMin= 7 ErrMin= 1.22D-06
 ErrMax= 1.22D-06  0.00D+00 EMaxC= 1.00D+00 BMatC= 1.30D-10 BMatP= 1.18D-08
 IDIUse=1 WtCom= 1.00D+00 WtEn= 0.00D+00
 Coeff-Com: -0.251D-05 0.490D-05-0.699D-04 0.123D-03 0.576D-02-0.887D-01
 Coeff-Com:  0.108D+01
 Coeff:     -0.251D-05 0.490D-05-0.699D-04 0.123D-03 0.576D-02-0.887D-01
 Coeff:      0.108D+01
 Gap=     0.524 Goal=   None    Shift=    0.000
 Gap=     0.524 Goal=   None    Shift=    0.000
 RMSDP=2.15D-06 MaxDP=4.21D-05 DE=-4.61D-09 OVMax= 2.95D-06

 Cycle   8  Pass 1  IDiag  1:
 E= -76.1832891067672     Delta-E=       -0.000000000048 Rises=F Damp=F
 DIIS: error= 1.70D-07 at cycle   8 NSaved=   8.
 NSaved= 8 IEnMin= 8 EnMin= -76.1832891067672     IErMin= 8 ErrMin= 1.70D-07
 ErrMax= 1.70D-07  0.00D+00 EMaxC= 1.00D+00 BMatC= 1.47D-12 BMatP= 1.30D-10
 IDIUse=1 WtCom= 1.00D+00 WtEn= 0.00D+00
 Coeff-Com:  0.269D-06-0.955D-06-0.349D-05 0.702D-04 0.155D-02-0.970D-02
 Coeff-Com: -0.884D-01 0.110D+01
 Coeff:      0.269D-06-0.955D-06-0.349D-05 0.702D-04 0.155D-02-0.970D-02
 Coeff:     -0.884D-01 0.110D+01
 Gap=     0.524 Goal=   None    Shift=    0.000
 Gap=     0.524 Goal=   None    Shift=    0.000
 RMSDP=3.45D-07 MaxDP=7.57D-06 DE=-4.83D-11 OVMax= 4.73D-07

 Cycle   9  Pass 1  IDiag  1:
 E= -76.1832891067680     Delta-E=       -0.000000000001 Rises=F Damp=F
 DIIS: error= 2.32D-08 at cycle   9 NSaved=   9.
 NSaved= 9 IEnMin= 9 EnMin= -76.1832891067680     IErMin= 9 ErrMin= 2.32D-08
 ErrMax= 2.32D-08  0.00D+00 EMaxC= 1.00D+00 BMatC= 9.66D-14 BMatP= 1.47D-12
 IDIUse=1 WtCom= 1.00D+00 WtEn= 0.00D+00
 Coeff-Com:  0.486D-07-0.193D-06 0.148D-06 0.129D-04 0.277D-03-0.107D-02
 Coeff-Com: -0.324D-01 0.236D+00 0.797D+00
 Coeff:      0.486D-07-0.193D-06 0.148D-06 0.129D-04 0.277D-03-0.107D-02
 Coeff:     -0.324D-01 0.236D+00 0.797D+00
 Gap=     0.524 Goal=   None    Shift=    0.000
 Gap=     0.524 Goal=   None    Shift=    0.000
 RMSDP=4.08D-08 MaxDP=1.03D-06 DE=-7.67D-13 OVMax= 5.51D-08

 Cycle  10  Pass 1  IDiag  1:
 E= -76.1832891067681     Delta-E=       -0.000000000000 Rises=F Damp=F
 DIIS: error= 9.43D-09 at cycle  10 NSaved=  10.
 NSaved=10 IEnMin=10 EnMin= -76.1832891067681     IErMin=10 ErrMin= 9.43D-09
 ErrMax= 9.43D-09  0.00D+00 EMaxC= 1.00D+00 BMatC= 1.30D-14 BMatP= 9.66D-14
 IDIUse=1 WtCom= 1.00D+00 WtEn= 0.00D+00
 Coeff-Com: -0.168D-07 0.304D-07 0.321D-06-0.162D-05-0.294D-04 0.425D-03
 Coeff-Com: -0.363D-02-0.120D-01 0.280D+00 0.736D+00
 Coeff:     -0.168D-07 0.304D-07 0.321D-06-0.162D-05-0.294D-04 0.425D-03
 Coeff:     -0.363D-02-0.120D-01 0.280D+00 0.736D+00
 Gap=     0.524 Goal=   None    Shift=    0.000
 Gap=     0.524 Goal=   None    Shift=    0.000
 RMSDP=1.32D-08 MaxDP=3.35D-07 DE=-5.68D-14 OVMax= 1.62D-08

 Cycle  11  Pass 1  IDiag  1:
 E= -76.1832891067680     Delta-E=        0.000000000000 Rises=F Damp=F
 DIIS: error= 4.19D-10 at cycle  11 NSaved=  11.
 NSaved=11 IEnMin=10 EnMin= -76.1832891067681     IErMin=11 ErrMin= 4.19D-10
 ErrMax= 4.19D-10  0.00D+00 EMaxC= 1.00D+00 BMatC= 2.72D-17 BMatP= 1.30D-14
 IDIUse=1 WtCom= 1.00D+00 WtEn= 0.00D+00
 Coeff-Com: -0.287D-09-0.146D-08-0.444D-07-0.168D-06 0.494D-06-0.559D-05
 Coeff-Com:  0.680D-03-0.361D-02-0.345D-01-0.512D-01 0.109D+01
 Coeff:     -0.287D-09-0.146D-08-0.444D-07-0.168D-06 0.494D-06-0.559D-05
 Coeff:      0.680D-03-0.361D-02-0.345D-01-0.512D-01 0.109D+01
 Gap=     0.524 Goal=   None    Shift=    0.000
 Gap=     0.524 Goal=   None    Shift=    0.000
 RMSDP=2.75D-09 MaxDP=6.94D-08 DE= 2.84D-14 OVMax= 2.93D-09

 SCF Done:  E(UM062X) =  -76.1832891068     A.U. after   11 cycles
            NFock= 11  Conv=0.27D-08     -V/T= 1.9325
 <Sx>= 0.0000 <Sy>= 0.0000 <Sz>= 0.0000 <S**2>=-0.0000 S=-0.0000
 <L.S>=  0.00000000000    
 KE= 8.169655199502D+01 PE=-2.531246180876D+02 EE= 5.935938782496D+01
 Annihilation of the first spin contaminant:
 S**2 before annihilation    -0.0000,   after     0.0000
 Leave Link  502 at Tue Dec  3 19:51:45 2024, MaxMem=   536870912 cpu:              27.9 elap:               3.5
 (Enter /home/szhao/Apps/g16/l701.exe)
 ... and contract with generalized density number  0.
 Compute integral first derivatives.
 Leave Link  701 at Tue Dec  3 19:51:45 2024, MaxMem=   536870912 cpu:               0.7 elap:               0.1
 (Enter /home/szhao/Apps/g16/l702.exe)
 L702 exits ... SP integral derivatives will be done elsewhere.
 Leave Link  702 at Tue Dec  3 19:51:45 2024, MaxMem=   536870912 cpu:               0.2 elap:               0.0
 (Enter /home/szhao/Apps/g16/l703.exe)
 Integral derivatives from FoFJK, PRISM(SPDF).
 Compute integral first derivatives, UseDBF=F ICtDFT=           0.
 Calling FoFJK, ICntrl=      2127 FMM=F ISym2X=0 I1Cent= 0 IOpClX= 1 NMat=1 NMatS=1 NMatT=0.
 FoFJK:  IHMeth= 1 ICntrl=    2127 DoSepK=F KAlg= 0 I1Cent=           0 FoldK=F
 IRaf=         0 NMat=       1 IRICut=       1 DoRegI=T DoRafI=F ISym2E= 0 IDoP0=0 IntGTp=1.
 FoFCou: FMM=F IPFlag=           0 FMFlag=      100000 FMFlg1=         800
         NFxFlg=           0 DoJE=F BraDBF=F KetDBF=F FulRan=T
         wScrn=  0.000000 ICntrl=      2127 IOpCl=  1 I1Cent=           0 NGrid=           0
         NMat0=    1 NMatS0=      1 NMatT0=    0 NMatD0=    1 NMtDS0=    0 NMtDT0=    0
 Symmetry not used in FoFCou.
 Leave Link  703 at Tue Dec  3 19:51:46 2024, MaxMem=   536870912 cpu:               5.5 elap:               0.7
 (Enter /home/szhao/Apps/g16/l716.exe)
 Dipole        =-2.94504630D-07-5.58251097D-15 1.41407717D-14
 -------------------------------------------------------------------
 Center     Atomic                   Forces (Hartrees/Bohr)
 Number     Number              X              Y              Z
 -------------------------------------------------------------------
      1        6          -0.000000000   -0.000000000   -0.000000000
      2        6          -0.000000000   -0.000000000   -0.000000000
      3        1          -0.053251973   -0.000000000    0.000000000
      4        1           0.053256812    0.000000000   -0.000000000
 -------------------------------------------------------------------
 Cartesian Forces:  Max     0.053256812 RMS     0.021741015
 Leave Link  716 at Tue Dec  3 19:51:46 2024, MaxMem=   536870912 cpu:               0.3 elap:               0.0
 (Enter /home/szhao/Apps/g16/l103.exe)

 GradGradGradGradGradGradGradGradGradGradGradGradGradGradGradGradGradGrad
 Berny optimization.
 Using GEDIIS/GDIIS optimizer.
 FormGI is forming the generalized inverse of G from B-inverse, IUseBI=4.
 Internal  Forces:  Max     0.053256812 RMS     0.030746438
 Search for a local minimum.
 Step number   3 out of a maximum of   22
 All quantities printed in internal units (Hartrees-Bohrs-Radians)
 RMS Force = .30746D-01 SwitMx=.10000D-02 MixMth= 1
 Mixed Optimization -- RFO/linear search
 Update second derivatives using D2CorX and points    2    3
 The second derivative matrix:
                          X1        Y1        Z1        X2        Y2
           X1           1.05320
           Y1          -0.00000   0.50000
           Z1           0.00000  -0.00000   0.50000
           X2          -0.55323   0.00000  -0.00000   1.05326
           Y2           0.00000  -0.00000   0.00000  -0.00000   0.50000
           Z2          -0.00000   0.00000  -0.00000   0.00000  -0.00000
           R1          -0.55320   0.00000  -0.00000   0.55323  -0.00000
           R2          -0.55323   0.00000  -0.00000   0.55326  -0.00000
           A1           0.00000  -0.00000   0.00000  -0.00000   0.00000
           A2           0.00000  -0.00000   0.00000  -0.00000   0.00000
           A3          -0.00000   0.00000  -0.00000   0.00000  -0.00000
           A4          -0.00000   0.00000  -0.00000   0.00000  -0.00000
                          Z2        R1        R2        A1        A2
           Z2           0.50000
           R1           0.00000   1.76222
           R2           0.00000  -0.65577   1.76224
           A1          -0.00000  -0.00000  -0.00000   0.05924
           A2          -0.00000  -0.00000  -0.00000   0.00000   0.05924
           A3           0.00000   0.00000   0.00000  -0.00000  -0.00000
           A4           0.00000   0.00000   0.00000  -0.00000  -0.00000
                          A3        A4
           A3           0.05924
           A4           0.00000   0.05924
 ITU=  0  1  0
 Use linear search instead of GDIIS.
     Eigenvalues ---    0.05924   0.05924   0.05924   1.10646   2.41801
     Eigenvalues --- 1000.000001000.000001000.000001000.000001000.00000
     Eigenvalues --- 1000.000001000.00000
 RFO step:  Lambda=-5.18591711D-05 EMin= 5.92378437D-02
 Quartic linear search produced a step of  0.34302.
 Iteration  1 RMS(Cart)=  0.05941356 RMS(Int)=  0.00000000
 Iteration  2 RMS(Cart)=  0.00000000 RMS(Int)=  0.00000000
 ITry= 1 IFail=0 DXMaxC= 1.46D-01 DCOld= 1.00D+10 DXMaxT= 5.05D-01 DXLimC= 3.00D+00 Rises=F
 Variable       Old X    -DE/DX   Delta X   Delta X   Delta X     New X
                                 (Linear)    (Quad)   (Total)
    X1       -0.70124  -0.05325   0.00000   0.00000   0.00000  -0.70124
    Y1        0.00000  -0.00000   0.00000   0.00000   0.00000   0.00000
    Z1        0.00000  -0.00000   0.00000   0.00000   0.00000   0.00000
    X2        0.70124   0.05326   0.00000   0.00000   0.00000   0.70124
    Y2        0.00000   0.00000   0.00000   0.00000   0.00000   0.00000
    Z2        0.00000   0.00000   0.00000   0.00000   0.00000   0.00000
    R1        1.88348   0.05325   0.14553   0.00000   0.14553   2.02902
    R2        1.88348   0.05326   0.14553  -0.00000   0.14553   2.02901
    A1        3.14159  -0.00000   0.00000  -0.00000   0.00000   3.14159
    A2        3.14159  -0.00000   0.00000   0.00000   0.00000   3.14159
    A3        3.14159  -0.00000   0.00000  -0.00000   0.00000   3.14159
    A4        3.14159  -0.00000   0.00000  -0.00000   0.00000   3.14159
         Item               Value     Threshold  Converged?
 Maximum Force            0.053257     0.000450     NO 
 RMS     Force            0.030746     0.000300     NO 
 Maximum Displacement     0.145534     0.001800     NO 
 RMS     Displacement     0.059414     0.001200     NO 
 Predicted change in Energy=-7.934145D-03
 Lowest energy point so far.  Saving SCF results.
 GradGradGradGradGradGradGradGradGradGradGradGradGradGradGradGradGradGrad

 Leave Link  103 at Tue Dec  3 19:51:46 2024, MaxMem=   536870912 cpu:               0.0 elap:               0.0
 (Enter /home/szhao/Apps/g16/l202.exe)
                          Input orientation:                          
 ---------------------------------------------------------------------
 Center     Atomic      Atomic             Coordinates (Angstroms)
 Number     Number       Type             X           Y           Z
 ---------------------------------------------------------------------
      1          6           0       -0.371080    0.000000    0.000000
      2          6           0        0.371080    0.000000    0.000000
      3          1           0       -1.444789   -0.000000   -0.000000
      4          1           0        1.444785    0.000000    0.000000
 ---------------------------------------------------------------------
                    Distance matrix (angstroms):
                    1          2          3          4
     1  C    0.000000
     2  C    0.742159   0.000000
     3  H    1.073710   1.815869   0.000000
     4  H    1.815865   1.073706   2.889574   0.000000
 Symmetry turned off by external request.
 Stoichiometry    C2H2
 Framework group  C*V[C*(HCCH)]
 Deg. of freedom     3
 Full point group                 C*V     NOp   4
 Rotational constants (GHZ):           0.0000000          67.2736259          67.2736259
 Leave Link  202 at Tue Dec  3 19:51:46 2024, MaxMem=   536870912 cpu:               0.0 elap:               0.0
 (Enter /home/szhao/Apps/g16/l301.exe)
 Standard basis: 6-311+G(d,p) (5D, 7F)
 Ernie: Thresh=  0.10000D-02 Tol=  0.10000D-05 Strict=F.
    56 basis functions,    88 primitive gaussians,    58 cartesian basis functions
     7 alpha electrons        7 beta electrons
       nuclear repulsion energy        35.2632178355 Hartrees.
 IExCor= 4336 DFT=T Ex+Corr=M062X ExCW=0 ScaHFX=  0.540000
 ScaDFX=  1.000000  1.000000  1.000000  1.000000 ScalE2=  1.000000  1.000000
 IRadAn=      7 IRanWt=     -1 IRanGd=            0 ICorTp=0 IEmpDi=  4
 NAtoms=    4 NActive=    4 NUniq=    4 SFac= 1.00D+00 NAtFMM=   60 NAOKFM=F Big=F
 Integral buffers will be    131072 words long.
 Raffenetti 2 integral format.
 Two-electron integral symmetry is turned off.
 Leave Link  301 at Tue Dec  3 19:51:46 2024, MaxMem=   536870912 cpu:               0.3 elap:               0.0
 (Enter /home/szhao/Apps/g16/l302.exe)
 NPDir=0 NMtPBC=     1 NCelOv=     1 NCel=       1 NClECP=     1 NCelD=      1
         NCelK=      1 NCelE2=     1 NClLst=     1 CellRange=     0.0.
 One-electron integrals computed using PRISM.
 NBasis=    56 RedAO= T EigKep=  5.94D-06  NBF=    56
 NBsUse=    56 1.00D-06 EigRej= -1.00D+00 NBFU=    56
 Precomputing XC quadrature grid using
 IXCGrd= 4 IRadAn=           7 IRanWt=          -1 IRanGd=           0 AccXCQ= 0.00D+00.
 Generated NRdTot=       0 NPtTot=           0 NUsed=           0 NTot=          32
 NSgBfM=    58    58    58    58    58 MxSgAt=     4 MxSgA2=     4.
 Leave Link  302 at Tue Dec  3 19:51:46 2024, MaxMem=   536870912 cpu:               0.9 elap:               0.1
 (Enter /home/szhao/Apps/g16/l303.exe)
 DipDrv:  MaxL=1.
 Leave Link  303 at Tue Dec  3 19:51:46 2024, MaxMem=   536870912 cpu:               0.2 elap:               0.0
 (Enter /home/szhao/Apps/g16/l401.exe)
 Initial guess from the checkpoint file:  "opt.chk"
 B after Tr=     0.000000    0.000000    0.000000
         Rot=    0.999533   -0.030562   -0.000000   -0.000000 Ang=  -3.50 deg.
 Guess basis will be translated and rotated to current coordinates.
 JPrj=2 DoOrth=T DoCkMO=T.
 Initial guess <Sx>= 0.0000 <Sy>= 0.0000 <Sz>= 0.0000 <S**2>=-0.0000 S=-0.0000
 Generating alternative initial guess.
 ExpMin= 4.38D-02 ExpMax= 4.56D+03 ExpMxC= 6.82D+02 IAcc=3 IRadAn=         5 AccDes= 0.00D+00
 Harris functional with IExCor= 1009 and IRadAn=       5 diagonalized for initial guess.
 HarFok:  IExCor= 1009 AccDes= 0.00D+00 IRadAn=         5 IDoV= 1 UseB2=F ITyADJ=14
 ICtDFT=  3500011 ScaDFX=  1.000000  1.000000  1.000000  1.000000
 FoFCou: FMM=F IPFlag=           0 FMFlag=      100000 FMFlg1=           0
         NFxFlg=           0 DoJE=T BraDBF=F KetDBF=T FulRan=T
         wScrn=  0.000000 ICntrl=       500 IOpCl=  0 I1Cent=   200000004 NGrid=           0
         NMat0=    1 NMatS0=      1 NMatT0=    0 NMatD0=    1 NMtDS0=    0 NMtDT0=    0
 Symmetry not used in FoFCou.
 Harris En= -76.6323205852952    
 Leave Link  401 at Tue Dec  3 19:51:46 2024, MaxMem=   536870912 cpu:               1.5 elap:               0.2
 (Enter /home/szhao/Apps/g16/l502.exe)
 Keep R1 and R2 ints in memory in canonical form, NReq=9624198.
 FoFCou: FMM=F IPFlag=           0 FMFlag=           0 FMFlg1=           0
         NFxFlg=           0 DoJE=F BraDBF=F KetDBF=F FulRan=T
         wScrn=  0.000000 ICntrl=       600 IOpCl=  0 I1Cent=           0 NGrid=           0
         NMat0=    1 NMatS0=   1596 NMatT0=    0 NMatD0=    1 NMtDS0=    0 NMtDT0=    0
 Symmetry not used in FoFCou.
 Two-electron integral symmetry not used.
 UHF open shell SCF:
 Using DIIS extrapolation, IDIIS=  1040.
 NGot=   536870912 LenX=   534314338 LenY=   534310533
 Requested convergence on RMS density matrix=1.00D-08 within 128 cycles.
 Requested convergence on MAX density matrix=1.00D-06.
 Requested convergence on             energy=1.00D-06.
 No special actions if energy rises.

 Cycle   1  Pass 1  IDiag  1:
 E= -76.1862762036482    
 DIIS: error= 8.53D-03 at cycle   1 NSaved=   1.
 NSaved= 1 IEnMin= 1 EnMin= -76.1862762036482     IErMin= 1 ErrMin= 8.53D-03
 ErrMax= 8.53D-03  0.00D+00 EMaxC= 1.00D-01 BMatC= 1.30D-02 BMatP= 1.30D-02
 IDIUse=3 WtCom= 9.15D-01 WtEn= 8.53D-02
 Coeff-Com:  0.100D+01
 Coeff-En:   0.100D+01
 Coeff:      0.100D+01
 Gap=     0.816 Goal=   None    Shift=    0.000
 Gap=     0.816 Goal=   None    Shift=    0.000
 GapD=    0.816 DampG=2.000 DampE=1.000 DampFc=2.0000 IDamp=-1.
 RMSDP=4.79D-03 MaxDP=4.81D-02              OVMax= 1.88D-02

 Cycle   2  Pass 1  IDiag  1:
 E= -76.1883742175415     Delta-E=       -0.002098013893 Rises=F Damp=F
 DIIS: error= 6.73D-04 at cycle   2 NSaved=   2.
 NSaved= 2 IEnMin= 2 EnMin= -76.1883742175415     IErMin= 2 ErrMin= 6.73D-04
 ErrMax= 6.73D-04  0.00D+00 EMaxC= 1.00D-01 BMatC= 1.18D-04 BMatP= 1.30D-02
 IDIUse=3 WtCom= 9.93D-01 WtEn= 6.73D-03
 Coeff-Com:  0.164D-01 0.984D+00
 Coeff-En:   0.000D+00 0.100D+01
 Coeff:      0.163D-01 0.984D+00
 Gap=     0.526 Goal=   None    Shift=    0.000
 Gap=     0.526 Goal=   None    Shift=    0.000
 RMSDP=4.56D-04 MaxDP=9.42D-03 DE=-2.10D-03 OVMax= 1.46D-03

 Cycle   3  Pass 1  IDiag  1:
 E= -76.1883972814760     Delta-E=       -0.000023063935 Rises=F Damp=F
 DIIS: error= 1.48D-04 at cycle   3 NSaved=   3.
 NSaved= 3 IEnMin= 3 EnMin= -76.1883972814760     IErMin= 3 ErrMin= 1.48D-04
 ErrMax= 1.48D-04  0.00D+00 EMaxC= 1.00D-01 BMatC= 2.87D-06 BMatP= 1.18D-04
 IDIUse=3 WtCom= 9.99D-01 WtEn= 1.48D-03
 Coeff-Com: -0.450D-02 0.126D-01 0.992D+00
 Coeff-En:   0.000D+00 0.000D+00 0.100D+01
 Coeff:     -0.450D-02 0.126D-01 0.992D+00
 Gap=     0.526 Goal=   None    Shift=    0.000
 Gap=     0.526 Goal=   None    Shift=    0.000
 RMSDP=1.81D-04 MaxDP=2.56D-03 DE=-2.31D-05 OVMax= 5.82D-04

 Cycle   4  Pass 1  IDiag  1:
 E= -76.1883980349684     Delta-E=       -0.000000753492 Rises=F Damp=F
 DIIS: error= 8.25D-05 at cycle   4 NSaved=   4.
 NSaved= 4 IEnMin= 4 EnMin= -76.1883980349684     IErMin= 4 ErrMin= 8.25D-05
 ErrMax= 8.25D-05  0.00D+00 EMaxC= 1.00D-01 BMatC= 8.37D-07 BMatP= 2.87D-06
 IDIUse=1 WtCom= 1.00D+00 WtEn= 0.00D+00
 Coeff-Com: -0.191D-02-0.170D-01 0.341D+00 0.678D+00
 Coeff:     -0.191D-02-0.170D-01 0.341D+00 0.678D+00
 Gap=     0.526 Goal=   None    Shift=    0.000
 Gap=     0.526 Goal=   None    Shift=    0.000
 RMSDP=2.88D-05 MaxDP=4.58D-04 DE=-7.53D-07 OVMax= 1.56D-04

 Cycle   5  Pass 1  IDiag  1:
 E= -76.1883982175879     Delta-E=       -0.000000182619 Rises=F Damp=F
 DIIS: error= 2.62D-05 at cycle   5 NSaved=   5.
 NSaved= 5 IEnMin= 5 EnMin= -76.1883982175879     IErMin= 5 ErrMin= 2.62D-05
 ErrMax= 2.62D-05  0.00D+00 EMaxC= 1.00D-01 BMatC= 4.52D-08 BMatP= 8.37D-07
 IDIUse=1 WtCom= 1.00D+00 WtEn= 0.00D+00
 Coeff-Com:  0.203D-03-0.803D-02-0.531D-01 0.128D+00 0.933D+00
 Coeff:      0.203D-03-0.803D-02-0.531D-01 0.128D+00 0.933D+00
 Gap=     0.526 Goal=   None    Shift=    0.000
 Gap=     0.526 Goal=   None    Shift=    0.000
 RMSDP=2.86D-05 MaxDP=5.60D-04 DE=-1.83D-07 OVMax= 5.36D-05

 Cycle   6  Pass 1  IDiag  1:
 E= -76.1883982281128     Delta-E=       -0.000000010525 Rises=F Damp=F
 DIIS: error= 7.49D-07 at cycle   6 NSaved=   6.
 NSaved= 6 IEnMin= 6 EnMin= -76.1883982281128     IErMin= 6 ErrMin= 7.49D-07
 ErrMax= 7.49D-07  0.00D+00 EMaxC= 1.00D-01 BMatC= 6.99D-11 BMatP= 4.52D-08
 IDIUse=1 WtCom= 1.00D+00 WtEn= 0.00D+00
 Coeff-Com:  0.367D-05 0.569D-03 0.115D-02-0.137D-01-0.469D-01 0.106D+01
 Coeff:      0.367D-05 0.569D-03 0.115D-02-0.137D-01-0.469D-01 0.106D+01
 Gap=     0.526 Goal=   None    Shift=    0.000
 Gap=     0.526 Goal=   None    Shift=    0.000
 RMSDP=2.36D-06 MaxDP=5.05D-05 DE=-1.05D-08 OVMax= 2.87D-06

 Cycle   7  Pass 1  IDiag  1:
 E= -76.1883982281455     Delta-E=       -0.000000000033 Rises=F Damp=F
 DIIS: error= 2.11D-07 at cycle   7 NSaved=   7.
 NSaved= 7 IEnMin= 7 EnMin= -76.1883982281455     IErMin= 7 ErrMin= 2.11D-07
 ErrMax= 2.11D-07  0.00D+00 EMaxC= 1.00D-01 BMatC= 4.39D-12 BMatP= 6.99D-11
 IDIUse=1 WtCom= 1.00D+00 WtEn= 0.00D+00
[...]
 DIIS: error= 2.23D-09 at cycle   8 NSaved=   8.
 NSaved= 8 IEnMin= 7 EnMin= -76.1888731124882     IErMin= 8 ErrMin= 2.23D-09
 ErrMax= 2.23D-09  0.00D+00 EMaxC= 1.00D-01 BMatC= 3.63D-16 BMatP= 2.03D-13
 IDIUse=1 WtCom= 1.00D+00 WtEn= 0.00D+00
 Coeff-Com:  0.123D-07-0.159D-05-0.118D-04 0.681D-04 0.309D-03 0.134D-02
 Coeff-Com: -0.648D-01 0.106D+01
 Coeff:      0.123D-07-0.159D-05-0.118D-04 0.681D-04 0.309D-03 0.134D-02
 Coeff:     -0.648D-01 0.106D+01
 Gap=     0.526 Goal=   None    Shift=    0.000
 Gap=     0.526 Goal=   None    Shift=    0.000
 RMSDP=1.32D-08 MaxDP=3.27D-07 DE= 2.84D-14 OVMax= 8.46D-09

 Cycle   9  Pass 1  IDiag  1:
 E= -76.1888731124882     Delta-E=       -0.000000000000 Rises=F Damp=F
 DIIS: error= 2.11D-10 at cycle   9 NSaved=   9.
 NSaved= 9 IEnMin= 7 EnMin= -76.1888731124882     IErMin= 9 ErrMin= 2.11D-10
 ErrMax= 2.11D-10  0.00D+00 EMaxC= 1.00D-01 BMatC= 7.88D-18 BMatP= 3.63D-16
 IDIUse=1 WtCom= 1.00D+00 WtEn= 0.00D+00
 Coeff-Com:  0.222D-07-0.251D-06-0.821D-06-0.484D-06 0.145D-04 0.158D-02
 Coeff-Com: -0.108D-01-0.163D-01 0.103D+01
 Coeff:      0.222D-07-0.251D-06-0.821D-06-0.484D-06 0.145D-04 0.158D-02
 Coeff:     -0.108D-01-0.163D-01 0.103D+01
 Gap=     0.526 Goal=   None    Shift=    0.000
 Gap=     0.526 Goal=   None    Shift=    0.000
 RMSDP=1.45D-09 MaxDP=3.69D-08 DE=-2.84D-14 OVMax= 7.41D-10

 SCF Done:  E(UM062X) =  -76.1888731125     A.U. after    9 cycles
            NFock=  9  Conv=0.15D-08     -V/T= 1.9348
 <Sx>= 0.0000 <Sy>= 0.0000 <Sz>= 0.0000 <S**2>=-0.0000 S=-0.0000
 <L.S>=  0.00000000000    
 KE= 8.150556455879D+01 PE=-2.520326078153D+02 EE= 5.893340496977D+01
 Annihilation of the first spin contaminant:
 S**2 before annihilation    -0.0000,   after     0.0000
 Leave Link  502 at Tue Dec  3 19:51:54 2024, MaxMem=   536870912 cpu:              24.4 elap:               3.1
 (Enter /home/szhao/Apps/g16/l701.exe)
 ... and contract with generalized density number  0.
 Compute integral first derivatives.
 Leave Link  701 at Tue Dec  3 19:51:54 2024, MaxMem=   536870912 cpu:               0.7 elap:               0.1
 (Enter /home/szhao/Apps/g16/l702.exe)
 L702 exits ... SP integral derivatives will be done elsewhere.
 Leave Link  702 at Tue Dec  3 19:51:54 2024, MaxMem=   536870912 cpu:               0.2 elap:               0.0
 (Enter /home/szhao/Apps/g16/l703.exe)
 Integral derivatives from FoFJK, PRISM(SPDF).
 Compute integral first derivatives, UseDBF=F ICtDFT=           0.
 Calling FoFJK, ICntrl=      2127 FMM=F ISym2X=0 I1Cent= 0 IOpClX= 1 NMat=1 NMatS=1 NMatT=0.
 FoFJK:  IHMeth= 1 ICntrl=    2127 DoSepK=F KAlg= 0 I1Cent=           0 FoldK=F
 IRaf=         0 NMat=       1 IRICut=       1 DoRegI=T DoRafI=F ISym2E= 0 IDoP0=0 IntGTp=1.
 FoFCou: FMM=F IPFlag=           0 FMFlag=      100000 FMFlg1=         800
         NFxFlg=           0 DoJE=F BraDBF=F KetDBF=F FulRan=T
         wScrn=  0.000000 ICntrl=      2127 IOpCl=  1 I1Cent=           0 NGrid=           0
         NMat0=    1 NMatS0=      1 NMatT0=    0 NMatD0=    1 NMtDS0=    0 NMtDT0=    0
 Symmetry not used in FoFCou.
 Leave Link  703 at Tue Dec  3 19:51:55 2024, MaxMem=   536870912 cpu:               4.8 elap:               0.6
 (Enter /home/szhao/Apps/g16/l716.exe)
 Dipole        =-1.68480331D-07-4.54857067D-09-4.54010214D-09
 -------------------------------------------------------------------
 Center     Atomic                   Forces (Hartrees/Bohr)
 Number     Number              X              Y              Z
 -------------------------------------------------------------------
      1        6          -0.000000000   -0.000000000   -0.000000000
      2        6          -0.000000000   -0.000000000   -0.000000000
      3        1          -0.000039666    0.000000000    0.000000000
      4        1           0.000042188    0.000000001    0.000000001
 -------------------------------------------------------------------
 Cartesian Forces:  Max     0.000042188 RMS     0.000016716
 Leave Link  716 at Tue Dec  3 19:51:55 2024, MaxMem=   536870912 cpu:               0.3 elap:               0.0
 (Enter /home/szhao/Apps/g16/l103.exe)

 GradGradGradGradGradGradGradGradGradGradGradGradGradGradGradGradGradGrad
 Berny optimization.
 Using GEDIIS/GDIIS optimizer.
 FormGI is forming the generalized inverse of G from B-inverse, IUseBI=4.
 Internal  Forces:  Max     0.000042188 RMS     0.000023640
 Search for a local minimum.
 Step number   5 out of a maximum of   22
 All quantities printed in internal units (Hartrees-Bohrs-Radians)
 RMS Force = .23640D-04 SwitMx=.10000D-02 MixMth= 2
 Mixed Optimization -- En-DIIS/RFO-DIIS
 Update second derivatives using D2CorX and points    3    4    5
 DE= -4.75D-04 DEPred=-3.80D-04 R= 1.25D+00
 TightC=F SS=  1.41D+00  RLast= 4.93D-02 DXNew= 1.0384D+00 1.4780D-01
 Trust test= 1.25D+00 RLast= 4.93D-02 DXMaxT set to 6.17D-01
 The second derivative matrix:
                          X1        Y1        Z1        X2        Y2
           X1           0.69352
           Y1          -0.00000   0.50000
           Z1           0.00000  -0.00000   0.50000
           X2          -0.19352   0.00000  -0.00000   0.69352
           Y2          -0.00000   0.00000  -0.00000   0.00000   0.50000
           Z2          -0.00000   0.00000  -0.00000   0.00000   0.00000
           R1          -0.19349   0.00000  -0.00000   0.19349   0.00000
           R2          -0.19355   0.00000  -0.00000   0.19354   0.00000
           A1          -0.00000   0.00000  -0.00000   0.00000   0.00000
           A2          -0.00000   0.00000  -0.00000   0.00000   0.00000
           A3          -0.00000   0.00000  -0.00000   0.00000   0.00000
           A4           0.00000  -0.00000   0.00000  -0.00000  -0.00000
                          Z2        R1        R2        A1        A2
           Z2           0.50000
           R1           0.00000   1.40249
           R2           0.00000  -1.01548   1.40255
           A1           0.00000   0.00000   0.00000   0.05924
           A2           0.00000   0.00000   0.00000   0.00000   0.05924
           A3           0.00000   0.00000   0.00000   0.00000   0.00000
           A4          -0.00000  -0.00000  -0.00000  -0.00000  -0.00000
                          A3        A4
           A3           0.05924
           A4          -0.00000   0.05924
 ITU=  1  1  0  1  0
 Use linear search instead of GDIIS.
     Eigenvalues ---    0.05924   0.05924   0.05924   0.38704   2.41801
     Eigenvalues --- 1000.000001000.000001000.000001000.000001000.00000
     Eigenvalues --- 1000.000001000.00000
 RFO step:  Lambda= 0.00000000D+00 EMin= 5.92378437D-02
 Quartic linear search produced a step of -0.00289.
 Iteration  1 RMS(Cart)=  0.00004105 RMS(Int)=  0.00000000
 Iteration  2 RMS(Cart)=  0.00000001 RMS(Int)=  0.00000000
 ITry= 1 IFail=0 DXMaxC= 1.01D-04 DCOld= 1.00D+10 DXMaxT= 6.17D-01 DXLimC= 3.00D+00 Rises=F
 Variable       Old X    -DE/DX   Delta X   Delta X   Delta X     New X
                                 (Linear)    (Quad)   (Total)
    X1       -0.70124  -0.00004   0.00000   0.00000   0.00000  -0.70124
    Y1        0.00000   0.00000   0.00000   0.00000   0.00000   0.00000
    Z1        0.00000  -0.00000   0.00000   0.00000   0.00000   0.00000
    X2        0.70124   0.00004   0.00000   0.00000   0.00000   0.70124
    Y2        0.00000   0.00000   0.00000   0.00000   0.00000   0.00000
    Z2        0.00000   0.00000   0.00000   0.00000   0.00000   0.00000
    R1        1.99418   0.00004   0.00010  -0.00000   0.00010   1.99428
    R2        1.99417   0.00004   0.00010   0.00000   0.00010   1.99428
    A1        3.14159   0.00000   0.00000   0.00000   0.00000   3.14159
    A2        3.14159   0.00000   0.00000   0.00000   0.00000   3.14159
    A3        3.14159   0.00000   0.00000   0.00000   0.00000   3.14159
    A4        3.14159  -0.00000  -0.00000  -0.00000  -0.00000   3.14159
         Item               Value     Threshold  Converged?
 Maximum Force            0.000042     0.000450     YES
 RMS     Force            0.000024     0.000300     YES
 Maximum Displacement     0.000101     0.001800     YES
 RMS     Displacement     0.000041     0.001200     YES
 Predicted change in Energy=-4.317989D-09
 Optimization completed.
    -- Stationary point found.
                           ----------------------------
                           !   Optimized Parameters   !
                           ! (Angstroms and Degrees)  !
 --------------------------                            --------------------------
 ! Name  Definition              Value          Derivative Info.                !
 --------------------------------------------------------------------------------
 ! X1    R(1,-1)                -0.3711         -DE/DX =    0.0                 !
 ! Y1    R(1,-2)                 0.0            -DE/DX =    0.0                 !
 ! Z1    R(1,-3)                 0.0            -DE/DX =    0.0                 !
 ! X2    R(2,-1)                 0.3711         -DE/DX =    0.0                 !
 ! Y2    R(2,-2)                 0.0            -DE/DX =    0.0                 !
 ! Z2    R(2,-3)                 0.0            -DE/DX =    0.0                 !
 ! R1    R(1,3)                  1.0553         -DE/DX =    0.0                 !
 ! R2    R(2,4)                  1.0553         -DE/DX =    0.0                 !
 ! A1    L(2,1,3,-2,-1)        180.0            -DE/DX =    0.0                 !
 ! A2    L(1,2,4,-2,-1)        180.0            -DE/DX =    0.0                 !
 ! A3    L(2,1,3,-3,-2)        180.0            -DE/DX =    0.0                 !
 ! A4    L(1,2,4,-3,-2)        180.0            -DE/DX =    0.0                 !
 --------------------------------------------------------------------------------
 Lowest energy point so far.  Saving SCF results.
 Largest change from initial coordinates is atom    4       0.395 Angstoms.
 GradGradGradGradGradGradGradGradGradGradGradGradGradGradGradGradGradGrad

 Leave Link  103 at Tue Dec  3 19:51:55 2024, MaxMem=   536870912 cpu:               0.0 elap:               0.0
 (Enter /home/szhao/Apps/g16/l202.exe)
                          Input orientation:                          
 ---------------------------------------------------------------------
 Center     Atomic      Atomic             Coordinates (Angstroms)
 Number     Number       Type             X           Y           Z
 ---------------------------------------------------------------------
      1          6           0       -0.371080    0.000000    0.000000
      2          6           0        0.371080    0.000000    0.000000
      3          1           0       -1.426354   -0.000000   -0.000000
      4          1           0        1.426351   -0.000000   -0.000000
 ---------------------------------------------------------------------
                    Distance matrix (angstroms):
                    1          2          3          4
     1  C    0.000000
     2  C    0.742159   0.000000
     3  H    1.055275   1.797434   0.000000
     4  H    1.797431   1.055271   2.852705   0.000000
 Symmetry turned off by external request.
 Stoichiometry    C2H2
 Framework group  C*V[C*(HCCH)]
 Deg. of freedom     3
 Full point group                 C*V     NOp   4
 Rotational constants (GHZ):           0.0000000          68.2427634          68.2427634
 Leave Link  202 at Tue Dec  3 19:51:55 2024, MaxMem=   536870912 cpu:               0.0 elap:               0.0
 (Enter /home/szhao/Apps/g16/l601.exe)
 Copying SCF densities to generalized density rwf, IOpCl= 1 IROHF=0.

 **********************************************************************

            Population analysis using the SCF density.

 **********************************************************************

 Alpha  occ. eigenvalues --  -10.55565 -10.42772  -0.85355  -0.57020  -0.52811
 Alpha  occ. eigenvalues --   -0.49572  -0.49572
 Alpha virt. eigenvalues --    0.02986   0.03898   0.06575   0.06575   0.08689
 Alpha virt. eigenvalues --    0.08689   0.10245   0.17195   0.24051   0.25293
 Alpha virt. eigenvalues --    0.28189   0.28189   0.45442   0.49996   0.49996
 Alpha virt. eigenvalues --    0.51393   0.71396   0.75407   0.84162   0.84162
 Alpha virt. eigenvalues --    0.89288   1.12384   1.19892   1.19892   1.28995
 Alpha virt. eigenvalues --    1.28995   1.69500   1.69500   1.73598   1.79120
 Alpha virt. eigenvalues --    1.87982   1.87982   2.19968   2.19968   2.46128
 Alpha virt. eigenvalues --    2.74956   2.80250   2.80250   2.92755   2.92755
 Alpha virt. eigenvalues --    2.96549   2.98067   3.32306   3.32306   3.40734
 Alpha virt. eigenvalues --    3.60087   5.68273  24.79593  25.89195
  Beta  occ. eigenvalues --  -10.55565 -10.42772  -0.85355  -0.57020  -0.52811
  Beta  occ. eigenvalues --   -0.49572  -0.49572
  Beta virt. eigenvalues --    0.02986   0.03898   0.06575   0.06575   0.08689
  Beta virt. eigenvalues --    0.08689   0.10245   0.17195   0.24051   0.25293
  Beta virt. eigenvalues --    0.28189   0.28189   0.45442   0.49996   0.49996
  Beta virt. eigenvalues --    0.51393   0.71396   0.75407   0.84162   0.84162
  Beta virt. eigenvalues --    0.89288   1.12384   1.19892   1.19892   1.28995
  Beta virt. eigenvalues --    1.28995   1.69500   1.69500   1.73598   1.79120
  Beta virt. eigenvalues --    1.87982   1.87982   2.19968   2.19968   2.46128
  Beta virt. eigenvalues --    2.74956   2.80250   2.80250   2.92755   2.92755
  Beta virt. eigenvalues --    2.96549   2.98067   3.32306   3.32306   3.40734
  Beta virt. eigenvalues --    3.60087   5.68273  24.79593  25.89195
          Condensed to atoms (all electrons):
               1          2          3          4
     1  C    5.373322   0.320830   0.265289   0.125783
     2  C    0.320830   5.373314   0.125789   0.265294
     3  H    0.265289   0.125789   0.525875  -0.002180
     4  H    0.125783   0.265294  -0.002180   0.525876
          Atomic-Atomic Spin Densities.
               1          2          3          4
     1  C   -0.000000   0.000000   0.000000  -0.000000
     2  C    0.000000  -0.000000  -0.000000   0.000000
     3  H    0.000000  -0.000000   0.000000  -0.000000
     4  H   -0.000000   0.000000  -0.000000   0.000000
 Mulliken charges and spin densities:
               1          2
     1  C   -0.085225  -0.000000
     2  C   -0.085228   0.000000
     3  H    0.085227   0.000000
     4  H    0.085225   0.000000
 Sum of Mulliken charges =  -0.00000  -0.00000
 Mulliken charges and spin densities with hydrogens summed into heavy atoms:
               1          2
     1  C    0.000002  -0.000000
     2  C   -0.000002   0.000000
 Electronic spatial extent (au):  <R**2>=             43.2073
 Charge=             -0.0000 electrons
 Dipole moment (field-independent basis, Debye):
    X=             -0.0000    Y=             -0.0000    Z=             -0.0000  Tot=              0.0000
 Quadrupole moment (field-independent basis, Debye-Ang):
   XX=             -8.2429   YY=            -11.1957   ZZ=            -11.1957
   XY=             -0.0000   XZ=             -0.0000   YZ=              0.0000
 Traceless Quadrupole moment (field-independent basis, Debye-Ang):
   XX=              1.9686   YY=             -0.9843   ZZ=             -0.9843
   XY=             -0.0000   XZ=             -0.0000   YZ=              0.0000
 Octapole moment (field-independent basis, Debye-Ang**2):
  XXX=              0.0000  YYY=              0.0000  ZZZ=              0.0000  XYY=              0.0000
  XXY=             -0.0000  XXZ=             -0.0000  XZZ=              0.0000  YZZ=              0.0000
  YYZ=              0.0000  XYZ=             -0.0000
 Hexadecapole moment (field-independent basis, Debye-Ang**3):
 XXXX=            -28.8192 YYYY=            -10.3915 ZZZZ=            -10.3915 XXXY=             -0.0000
 XXXZ=             -0.0000 YYYX=              0.0000 YYYZ=              0.0000 ZZZX=              0.0000
 ZZZY=              0.0000 XXYY=             -7.9181 XXZZ=             -7.9181 YYZZ=             -3.4638
 XXYZ=              0.0000 YYXZ=              0.0000 ZZXY=              0.0000
 N-N= 3.540476517427D+01 E-N=-2.520326078057D+02  KE= 8.150556455879D+01
                          Isotropic Fermi Contact Couplings
        Atom                 a.u.       MegaHertz       Gauss      10(-4) cm-1
     1  C(13)              0.00000       0.00000       0.00000       0.00000
     2  C(13)              0.00000       0.00000       0.00000       0.00000
     3  H(1)              -0.00000      -0.00000      -0.00000      -0.00000
     4  H(1)              -0.00000      -0.00000      -0.00000      -0.00000
 --------------------------------------------------------
       Center         ----  Spin Dipole Couplings  ----
                      3XX-RR        3YY-RR        3ZZ-RR
 --------------------------------------------------------
     1   Atom       -0.000000      0.000000      0.000000
     2   Atom        0.000000      0.000000     -0.000000
     3   Atom        0.000000     -0.000000     -0.000000
     4   Atom       -0.000000      0.000000      0.000000
 --------------------------------------------------------
                        XY            XZ            YZ
 --------------------------------------------------------
     1   Atom        0.000000     -0.000000      0.000000
     2   Atom       -0.000000     -0.000000      0.000000
     3   Atom       -0.000000      0.000000     -0.000000
     4   Atom        0.000000      0.000000      0.000000
 --------------------------------------------------------


 ---------------------------------------------------------------------------------
              Anisotropic Spin Dipole Couplings in Principal Axis System
 ---------------------------------------------------------------------------------

       Atom             a.u.   MegaHertz   Gauss  10(-4) cm-1        Axes

              Baa    -0.0000    -0.000    -0.000    -0.000  0.9999 -0.0068  0.0155
     1 C(13)  Bbb     0.0000     0.000     0.000     0.000 -0.0165 -0.5971  0.8020
              Bcc     0.0000     0.000     0.000     0.000 -0.0038  0.8021  0.5971
 
              Baa    -0.0000    -0.000    -0.000    -0.000  0.0320 -0.1293  0.9911
     2 C(13)  Bbb     0.0000     0.000     0.000     0.000  0.0363  0.9911  0.1281
              Bcc     0.0000     0.000     0.000     0.000  0.9988 -0.0319 -0.0364
 
              Baa    -0.0000    -0.000    -0.000    -0.000 -0.0539  0.1455  0.9879
     3 H(1)   Bbb    -0.0000    -0.000    -0.000    -0.000  0.0454  0.9887 -0.1431
              Bcc     0.0000     0.000     0.000     0.000  0.9975 -0.0371  0.0599
 
              Baa    -0.0000    -0.000    -0.000    -0.000  0.9999 -0.0083 -0.0122
     4 H(1)   Bbb     0.0000     0.000     0.000     0.000  0.0114 -0.0922  0.9957
              Bcc     0.0000     0.000     0.000     0.000  0.0094  0.9957  0.0921
 

 ---------------------------------------------------------------------------------

 No NMR shielding tensors so no spin-rotation constants.
 Leave Link  601 at Tue Dec  3 19:51:55 2024, MaxMem=   536870912 cpu:               1.2 elap:               0.2
 (Enter /home/szhao/Apps/g16/l9999.exe)
 1\1\GINC-NODE01\FOpt\UM062X\6-311+G(d,p)\C2H2\SZHAO\03-Dec-2024\0\\#p 
 opt UM062X/6-311+G** nosymm int=superfine\\Title Card Required\\0,1\C,
 -0.37107961,0.,0.\C,0.37107961,0.,0.\H,-1.4263543821,0.,-0.0000000001\
 H,1.4263510806,-0.0000000157,-0.0000000156\\Version=ES64L-G16RevA.03\H
 F=-76.1888731\S2=0.\S2-1=0.\S2A=0.\RMSD=1.452e-09\RMSF=1.672e-05\Dipol
 e=-0.0000002,0.,0.\Quadrupole=1.4635843,-0.7317921,-0.7317921,0.,0.,0.
 \PG=C*V [C*(H1C1C1H1)]\\@


 HERE WE GO......
 SLIDING DOWN THE RAZOR BLADE OF LIFE......
                                 TOM LEHRER
 Job cpu time:       0 days  0 hours  2 minutes 56.9 seconds.
 Elapsed time:       0 days  0 hours  0 minutes 22.4 seconds.
 File lengths (MBytes):  RWF=      6 Int=      0 D2E=      0 Chk=      1 Scr=      1
 Normal termination of Gaussian 16 at Tue Dec  3 19:51:55 2024.
