 Entering Gaussian System, Link 0=g16
 Initial command:
 /home/szhao/Apps/g16/l1.exe "/home/szhao/tmp/Gau-69982.inp" -scrdir="/home/szhao/tmp/"
 Default is to use a total of  16 processors:
                               16 via shared-memory
                                1 via Linda
 Entering Link 1 = /home/szhao/Apps/g16/l1.exe PID=     69983.
  
 Copyright (c) 1988,1990,1992,1993,1995,1998,2003,2009,2016,
            Gaussian, Inc.  All Rights Reserved.
  
 This is part of the Gaussian(R) 16 program.  It is based on
 the Gaussian(R) 09 system (copyright 2009, Gaussian, Inc.),
 the Gaussian(R) 03 system (copyright 2003, Gaussian, Inc.),
 the Gaussian(R) 98 system (copyright 1998, Gaussian, Inc.),
 the Gaussian(R) 94 system (copyright 1995, Gaussian, Inc.),
 the Gaussian 92(TM) system (copyright 1992, Gaussian, Inc.),
 the Gaussian 90(TM) system (copyright 1990, Gaussian, Inc.),
 the Gaussian 88(TM) system (copyright 1988, Gaussian, Inc.),
 the Gaussian 86(TM) system (copyright 1986, Carnegie Mellon
 University), and the Gaussian 82(TM) system (copyright 1983,
 Carnegie Mellon University). Gaussian is a federally registered
 trademark of Gaussian, Inc.
  
 This software contains proprietary and confidential information,
 including trade secrets, belonging to Gaussian, Inc.
  
 This software is provided under written license and may be
 used, copied, transmitted, or stored only in accord with that
 written license.
  
 The following legend is applicable only to US Government
 contracts under FAR:
  
                    RESTRICTED RIGHTS LEGEND
  
 Use, reproduction and disclosure by the US Government is
 subject to restrictions as set forth in subparagraphs (a)
 and (c) of the Commercial Computer Software - Restricted
 Rights clause in FAR 52.227-19.
  
 Gaussian, Inc.
 340 Quinnipiac St., Bldg. 40, Wallingford CT 06492
  
  
 ---------------------------------------------------------------
 Warning -- This program may not be used in any manner that
 competes with the business of Gaussian, Inc. or will provide
 assistance to any competitor of Gaussian, Inc.  The licensee
 of this program is prohibited from giving any competitor of
 Gaussian, Inc. access to this program.  By using this program,
 the user acknowledges that Gaussian, Inc. is engaged in the
 business of creating and licensing software in the field of
 computational chemistry and represents and warrants to the
 licensee that it is not a competitor of Gaussian, Inc. and that
 it will not use this program in any manner prohibited above.
 ---------------------------------------------------------------
  

 Cite this work as:
 Gaussian 16, Revision A.03,
 M. J. Frisch, G. W. Trucks, H. B. Schlegel, G. E. Scuseria, 
 M. A. Robb, J. R. Cheeseman, G. Scalmani, V. Barone, 
 G. A. Petersson, H. Nakatsuji, X. Li, M. Caricato, A. V. Marenich, 
 J. Bloino, B. G. Janesko, R. Gomperts, B. Mennucci, H. P. Hratchian, 
 J. V. Ortiz, A. F. Izmaylov, J. L. Sonnenberg, D. Williams-Young, 
 F. Ding, F. Lipparini, F. Egidi, J. Goings, B. Peng, A. Petrone, 
 T. Henderson, D. Ranasinghe, V. G. Zakrzewski, J. Gao, N. Rega, 
 G. Zheng, W. Liang, M. Hada, M. Ehara, K. Toyota, R. Fukuda, 
 J. Hasegawa, M. Ishida, T. Nakajima, Y. Honda, O. Kitao, H. Nakai, 
 T. Vreven, K. Throssell, J. A. Montgomery, Jr., J. E. Peralta, 
 F. Ogliaro, M. J. Bearpark, J. J. Heyd, E. N. Brothers, K. N. Kudin, 
 V. N. Staroverov, T. A. Keith, R. Kobayashi, J. Normand, 
 K. Raghavachari, A. P. Rendell, J. C. Burant, S. S. Iyengar, 
 J. Tomasi, M. Cossi, J. M. Millam, M. Klene, C. Adamo, R. Cammi, 
 J. W. Ochterski, R. L. Martin, K. Morokuma, O. Farkas, 
 J. B. Foresman, and D. J. Fox, Gaussian, Inc., Wallingford CT, 2016.
 
 ******************************************
 Gaussian 16:  ES64L-G16RevA.03 25-Dec-2016
                21-Apr-2025 
 ******************************************
 %chk=opt.chk
 %mem=4GB
 %nprocshared=8
 Will use up to    8 processors via shared memory.
 --------------------------------------------
 #p opt UM062X/6-311+G** nosymm int=superfine
 --------------------------------------------
 1/18=20,19=15,26=5,38=1/1,3;
 2/9=110,12=2,15=1,17=6,18=5,40=1/2;
 3/5=4,6=6,7=111,11=2,25=1,30=1,71=1,74=-55,75=-7,116=2/1,2,3;
 4//1;
 5/5=2,38=5/2;
 6/7=2,8=2,9=2,10=2,28=1/1;
 7/30=1/1,2,3,16;
 1/18=20,19=15,26=5/3(2);
 2/9=110,15=1/2;
 99//99;
 2/9=110,15=1/2;
 3/5=4,6=6,7=111,11=2,25=1,30=1,71=1,74=-55,75=-7,116=2/1,2,3;
 4/5=5,16=3,69=1/1;
 5/5=2,38=5/2;
 7/30=1/1,2,3,16;
 1/18=20,19=15,26=5/3(-5);
 2/9=110,15=1/2;
 6/7=2,8=2,9=2,10=2,19=2,28=1/1;
 99/9=1/99;
 Leave Link    1 at Mon Apr 21 18:11:33 2025, MaxMem=   536870912 cpu:               1.2 elap:               0.2
 (Enter /home/szhao/Apps/g16/l101.exe)
 -------------------
 Title Card Required
 -------------------
 Symbolic Z-matrix:
 Charge =  0 Multiplicity = 1
 C                    -1   -1.48054   0.        0. 
 N                    -1    1.48054   0.        0. 
 H                    0     1.84222  -0.946     0. 
 H                    0    -1.83758   1.03082  -0.01934 
 H                    0     1.84222   0.45736   0.82809 
 H                    0    -1.83758  -0.48144  -0.91169 
 H                    0    -1.94434  -0.50545   0.85659 
 
 Add virtual bond connecting atoms N2         and C1         Dist= 5.60D+00.
 ITRead=  2  2  0  0  0  0  0
 MicOpt= -2 -2 -1 -1 -1 -1 -1
 NAtoms=      7 NQM=        5 NQMF=       2 NMMI=      0 NMMIF=      0
                NMic=       0 NMicF=      0.
                    Isotopes and Nuclear Properties:
 (Nuclear quadrupole moments (NQMom) in fm**2, nuclear magnetic moments (NMagM)
  in nuclear magnetons)

  Atom         1           2           3           4           5           6           7
 IAtWgt=          12          14           1           1           1           1           1
 AtmWgt=  12.0000000  14.0030740   1.0078250   1.0078250   1.0078250   1.0078250   1.0078250
 NucSpn=           0           2           1           1           1           1           1
 AtZEff=  -0.0000000  -0.0000000  -0.0000000  -0.0000000  -0.0000000  -0.0000000  -0.0000000
 NQMom=    0.0000000   2.0440000   0.0000000   0.0000000   0.0000000   0.0000000   0.0000000
 NMagM=    0.0000000   0.4037610   2.7928460   2.7928460   2.7928460   2.7928460   2.7928460
 AtZNuc=   6.0000000   7.0000000   1.0000000   1.0000000   1.0000000   1.0000000   1.0000000
 Leave Link  101 at Mon Apr 21 18:11:34 2025, MaxMem=   536870912 cpu:               3.1 elap:               0.4
 (Enter /home/szhao/Apps/g16/l103.exe)

 GradGradGradGradGradGradGradGradGradGradGradGradGradGradGradGradGradGrad
 Berny optimization.
 Initialization pass.
                           ----------------------------
                           !    Initial Parameters    !
                           ! (Angstroms and Degrees)  !
 --------------------------                            --------------------------
 ! Name  Definition              Value          Derivative Info.                !
 --------------------------------------------------------------------------------
 ! X1    R(1,-1)                -1.4805         Frozen                          !
 ! Y1    R(1,-2)                 0.0            Frozen                          !
 ! Z1    R(1,-3)                 0.0            Frozen                          !
 ! X2    R(2,-1)                 1.4805         Frozen                          !
 ! Y2    R(2,-2)                 0.0            Frozen                          !
 ! Z2    R(2,-3)                 0.0            Frozen                          !
 ! R1    R(1,4)                  1.0911         estimate D2E/DX2                !
 ! R2    R(1,6)                  1.0911         estimate D2E/DX2                !
 ! R3    R(1,7)                  1.0974         estimate D2E/DX2                !
 ! R4    R(2,3)                  1.0128         estimate D2E/DX2                !
 ! R5    R(2,5)                  1.0128         estimate D2E/DX2                !
 ! A1    A(2,1,4)              109.1011         estimate D2E/DX2                !
 ! A2    A(2,1,6)              109.1011         estimate D2E/DX2                !
 ! A3    A(2,1,7)              115.0002         estimate D2E/DX2                !
 ! A4    A(4,1,6)              107.1573         estimate D2E/DX2                !
 ! A5    A(4,1,7)              108.1005         estimate D2E/DX2                !
 ! A6    A(6,1,7)              108.1005         estimate D2E/DX2                !
 ! A7    A(1,2,3)              110.9228         estimate D2E/DX2                !
 ! A8    A(1,2,5)              110.923          estimate D2E/DX2                !
 ! A9    A(3,2,5)              107.1144         estimate D2E/DX2                !
 ! D1    D(4,1,2,3)           -178.9252         estimate D2E/DX2                !
 ! D2    D(4,1,2,5)             62.1629         estimate D2E/DX2                !
 ! D3    D(6,1,2,3)            -62.1623         estimate D2E/DX2                !
 ! D4    D(6,1,2,5)            178.9258         estimate D2E/DX2                !
 ! D5    D(7,1,2,3)             59.4563         estimate D2E/DX2                !
 ! D6    D(7,1,2,5)            -59.4556         estimate D2E/DX2                !
 --------------------------------------------------------------------------------
 Trust Radius=3.00D-01 FncErr=1.00D-07 GrdErr=1.00D-07 EigMax=2.50D+02 EigMin=1.00D-04
 Number of steps in this run=     36 maximum allowed number of steps=    100.
 GradGradGradGradGradGradGradGradGradGradGradGradGradGradGradGradGradGrad

 Leave Link  103 at Mon Apr 21 18:11:34 2025, MaxMem=   536870912 cpu:               0.4 elap:               0.1
 (Enter /home/szhao/Apps/g16/l202.exe)
                          Input orientation:                          
 ---------------------------------------------------------------------
 Center     Atomic      Atomic             Coordinates (Angstroms)
 Number     Number       Type             X           Y           Z
 ---------------------------------------------------------------------
      1          6           0       -1.480542    0.000000    0.000000
      2          7           0        1.480542    0.000000    0.000000
      3          1           0        1.842216   -0.945999    0.000000
      4          1           0       -1.837579    1.030817   -0.019339
      5          1           0        1.842218    0.457356    0.828092
      6          1           0       -1.837580   -0.481444   -0.911685
      7          1           0       -1.944338   -0.505453    0.856593
 ---------------------------------------------------------------------
                    Distance matrix (angstroms):
                    1          2          3          4          5
     1  C    0.000000
     2  N    2.961084   0.000000
     3  H    3.454799   1.012779   0.000000
     4  H    1.091070   3.474606   4.177208   0.000000
     5  H    3.454801   1.012779   1.629460   3.819412   0.000000
     6  H    1.091070   3.474607   3.819408   1.755908   4.177210
     7  H    1.097425   3.566376   3.907150   1.771660   3.907150
                    6          7
     6  H    0.000000
     7  H    1.771661   0.000000
 Symmetry turned off by external request.
 Stoichiometry    CH5N
 Framework group  C1[X(CH5N)]
 Deg. of freedom    15
 Full point group                 C1      NOp   1
 Rotational constants (GHZ):         103.7077615           6.6106472           6.5328715
 Leave Link  202 at Mon Apr 21 18:11:34 2025, MaxMem=   536870912 cpu:               0.3 elap:               0.1
 (Enter /home/szhao/Apps/g16/l301.exe)
 Standard basis: 6-311+G(d,p) (5D, 7F)
 Ernie: Thresh=  0.10000D-02 Tol=  0.10000D-05 Strict=F.
    74 basis functions,   112 primitive gaussians,    76 cartesian basis functions
     9 alpha electrons        9 beta electrons
       nuclear repulsion energy        30.5678738212 Hartrees.
 IExCor= 4336 DFT=T Ex+Corr=M062X ExCW=0 ScaHFX=  0.540000
 ScaDFX=  1.000000  1.000000  1.000000  1.000000 ScalE2=  1.000000  1.000000
 IRadAn=      7 IRanWt=     -1 IRanGd=            0 ICorTp=0 IEmpDi=  4
 NAtoms=    7 NActive=    7 NUniq=    7 SFac= 1.00D+00 NAtFMM=   60 NAOKFM=F Big=F
 Integral buffers will be    131072 words long.
 Raffenetti 2 integral format.
 Two-electron integral symmetry is turned off.
 Leave Link  301 at Mon Apr 21 18:11:34 2025, MaxMem=   536870912 cpu:               0.6 elap:               0.2
 (Enter /home/szhao/Apps/g16/l302.exe)
 NPDir=0 NMtPBC=     1 NCelOv=     1 NCel=       1 NClECP=     1 NCelD=      1
         NCelK=      1 NCelE2=     1 NClLst=     1 CellRange=     0.0.
 One-electron integrals computed using PRISM.
 NBasis=    74 RedAO= T EigKep=  4.37D-03  NBF=    74
 NBsUse=    74 1.00D-06 EigRej= -1.00D+00 NBFU=    74
 Precomputing XC quadrature grid using
 IXCGrd= 4 IRadAn=           7 IRanWt=          -1 IRanGd=           0 AccXCQ= 0.00D+00.
 Generated NRdTot=       0 NPtTot=           0 NUsed=           0 NTot=          32
 NSgBfM=    76    76    76    76    76 MxSgAt=     7 MxSgA2=     7.
 Leave Link  302 at Mon Apr 21 18:11:35 2025, MaxMem=   536870912 cpu:               2.5 elap:               0.5
 (Enter /home/szhao/Apps/g16/l303.exe)
 DipDrv:  MaxL=1.
 Leave Link  303 at Mon Apr 21 18:11:35 2025, MaxMem=   536870912 cpu:               0.7 elap:               0.1
 (Enter /home/szhao/Apps/g16/l401.exe)
 ExpMin= 4.38D-02 ExpMax= 6.29D+03 ExpMxC= 9.49D+02 IAcc=3 IRadAn=         7 AccDes= 0.00D+00
 Harris functional with IExCor= 1009 and IRadAn=       7 diagonalized for initial guess.
 HarFok:  IExCor= 1009 AccDes= 0.00D+00 IRadAn=         7 IDoV= 1 UseB2=F ITyADJ=14
 ICtDFT=  3500011 ScaDFX=  1.000000  1.000000  1.000000  1.000000
 FoFCou: FMM=F IPFlag=           0 FMFlag=      100000 FMFlg1=           0
         NFxFlg=           0 DoJE=T BraDBF=F KetDBF=T FulRan=T
         wScrn=  0.000000 ICntrl=       500 IOpCl=  0 I1Cent=   200000004 NGrid=           0
         NMat0=    1 NMatS0=      1 NMatT0=    0 NMatD0=    1 NMtDS0=    0 NMtDT0=    0
 Symmetry not used in FoFCou.
 Harris En= -95.6360933112398    
 JPrj=0 DoOrth=F DoCkMO=F.
 Initial guess <Sx>= 0.0000 <Sy>= 0.0000 <Sz>= 0.0000 <S**2>= 0.0000 S= 0.0000
 Leave Link  401 at Mon Apr 21 18:11:36 2025, MaxMem=   536870912 cpu:               3.5 elap:               0.6
 (Enter /home/szhao/Apps/g16/l502.exe)
 Keep R1 and R2 ints in memory in canonical form, NReq=14944651.
 FoFCou: FMM=F IPFlag=           0 FMFlag=           0 FMFlg1=           0
         NFxFlg=           0 DoJE=F BraDBF=F KetDBF=F FulRan=T
         wScrn=  0.000000 ICntrl=       600 IOpCl=  0 I1Cent=           0 NGrid=           0
         NMat0=    1 NMatS0=   2775 NMatT0=    0 NMatD0=    1 NMtDS0=    0 NMtDT0=    0
 Symmetry not used in FoFCou.
 Two-electron integral symmetry not used.
 UHF open shell SCF:
 Using DIIS extrapolation, IDIIS=  1040.
 NGot=   536870912 LenX=   529154583 LenY=   529148366
 Requested convergence on RMS density matrix=1.00D-08 within 128 cycles.
 Requested convergence on MAX density matrix=1.00D-06.
 Requested convergence on             energy=1.00D-06.
 No special actions if energy rises.

 Cycle   1  Pass 1  IDiag  1:
 E= -95.5245045971017    
 DIIS: error= 4.17D-02 at cycle   1 NSaved=   1.
 NSaved= 1 IEnMin= 1 EnMin= -95.5245045971017     IErMin= 1 ErrMin= 4.17D-02
 ErrMax= 4.17D-02  0.00D+00 EMaxC= 1.00D-01 BMatC= 4.65D-01 BMatP= 4.65D-01
 IDIUse=3 WtCom= 5.83D-01 WtEn= 4.17D-01
 Coeff-Com:  0.100D+01
 Coeff-En:   0.100D+01
 Coeff:      0.100D+01
 Gap=     0.080 Goal=   None    Shift=    0.000
 Gap=     0.080 Goal=   None    Shift=    0.000
 GapD=    0.080 DampG=0.500 DampE=0.500 DampFc=0.2500 IDamp=-1.
 Damping current iteration by 2.50D-01
 RMSDP=6.49D-03 MaxDP=1.07D-01              OVMax= 4.34D-01

 Cycle   2  Pass 1  IDiag  1:
 E= -95.5592514050529     Delta-E=       -0.034746807951 Rises=F Damp=T
 DIIS: error= 2.02D-02 at cycle   2 NSaved=   2.
 NSaved= 2 IEnMin= 2 EnMin= -95.5592514050529     IErMin= 2 ErrMin= 2.02D-02
 ErrMax= 2.02D-02  0.00D+00 EMaxC= 1.00D-01 BMatC= 1.14D-01 BMatP= 4.65D-01
 IDIUse=3 WtCom= 7.98D-01 WtEn= 2.02D-01
 Coeff-Com: -0.438D+00 0.144D+01
 Coeff-En:   0.000D+00 0.100D+01
 Coeff:     -0.349D+00 0.135D+01
 Gap=     0.198 Goal=   None    Shift=    0.000
 Gap=     0.198 Goal=   None    Shift=    0.000
 RMSDP=2.47D-03 MaxDP=5.53D-02 DE=-3.47D-02 OVMax= 4.91D-01

 Cycle   3  Pass 1  IDiag  1:
 E= -95.5891367647536     Delta-E=       -0.029885359701 Rises=F Damp=F
 DIIS: error= 2.62D-02 at cycle   3 NSaved=   3.
 NSaved= 3 IEnMin= 3 EnMin= -95.5891367647536     IErMin= 2 ErrMin= 2.02D-02
 ErrMax= 2.62D-02  0.00D+00 EMaxC= 1.00D-01 BMatC= 1.08D-01 BMatP= 1.14D-01
 IDIUse=3 WtCom= 7.38D-01 WtEn= 2.62D-01
 Coeff-Com: -0.407D+00 0.912D+00 0.494D+00
 Coeff-En:   0.000D+00 0.137D+00 0.863D+00
 Coeff:     -0.300D+00 0.709D+00 0.591D+00
 Gap=     0.126 Goal=   None    Shift=    0.000
 Gap=     0.126 Goal=   None    Shift=    0.000
 RMSDP=2.81D-03 MaxDP=4.82D-02 DE=-2.99D-02 OVMax= 2.59D-01

 Cycle   4  Pass 1  IDiag  1:
 E= -95.5912705751175     Delta-E=       -0.002133810364 Rises=F Damp=F
 DIIS: error= 2.81D-02 at cycle   4 NSaved=   4.
 NSaved= 4 IEnMin= 4 EnMin= -95.5912705751175     IErMin= 2 ErrMin= 2.02D-02
 ErrMax= 2.81D-02  0.00D+00 EMaxC= 1.00D-01 BMatC= 1.16D-01 BMatP= 1.08D-01
 IDIUse=3 WtCom= 7.19D-01 WtEn= 2.81D-01
 Coeff-Com:  0.159D+00-0.164D+00 0.447D+00 0.559D+00
 Coeff-En:   0.000D+00 0.000D+00 0.490D+00 0.510D+00
 Coeff:      0.114D+00-0.118D+00 0.459D+00 0.545D+00
 Gap=     0.151 Goal=   None    Shift=    0.000
 Gap=     0.151 Goal=   None    Shift=    0.000
 RMSDP=1.46D-03 MaxDP=2.42D-02 DE=-2.13D-03 OVMax= 1.40D-01

 Cycle   5  Pass 1  IDiag  1:
 E= -95.6262552529053     Delta-E=       -0.034984677788 Rises=F Damp=F
 DIIS: error= 1.52D-03 at cycle   5 NSaved=   5.
 NSaved= 5 IEnMin= 5 EnMin= -95.6262552529053     IErMin= 5 ErrMin= 1.52D-03
 ErrMax= 1.52D-03  0.00D+00 EMaxC= 1.00D-01 BMatC= 5.40D-04 BMatP= 1.08D-01
 IDIUse=3 WtCom= 9.85D-01 WtEn= 1.52D-02
 Coeff-Com: -0.263D-01 0.221D-01 0.609D-01 0.620D-01 0.881D+00
 Coeff-En:   0.000D+00 0.000D+00 0.000D+00 0.000D+00 0.100D+01
 Coeff:     -0.259D-01 0.218D-01 0.599D-01 0.611D-01 0.883D+00
 Gap=     0.157 Goal=   None    Shift=    0.000
 Gap=     0.157 Goal=   None    Shift=    0.000
 RMSDP=1.43D-04 MaxDP=2.44D-03 DE=-3.50D-02 OVMax= 1.12D-02

 Cycle   6  Pass 1  IDiag  1:
 E= -95.6263765422507     Delta-E=       -0.000121289345 Rises=F Damp=F
 DIIS: error= 7.81D-04 at cycle   6 NSaved=   6.
 NSaved= 6 IEnMin= 6 EnMin= -95.6263765422507     IErMin= 6 ErrMin= 7.81D-04
 ErrMax= 7.81D-04  0.00D+00 EMaxC= 1.00D-01 BMatC= 1.09D-04 BMatP= 5.40D-04
 IDIUse=3 WtCom= 9.92D-01 WtEn= 7.81D-03
 Coeff-Com:  0.686D-03-0.144D-02-0.243D-02-0.296D-01 0.433D-01 0.989D+00
 Coeff-En:   0.000D+00 0.000D+00 0.000D+00 0.000D+00 0.139D+00 0.861D+00
 Coeff:      0.681D-03-0.143D-02-0.241D-02-0.293D-01 0.440D-01 0.988D+00
 Gap=     0.159 Goal=   None    Shift=    0.000
 Gap=     0.159 Goal=   None    Shift=    0.000
 RMSDP=5.38D-05 MaxDP=6.26D-04 DE=-1.21D-04 OVMax= 4.26D-03

 Cycle   7  Pass 1  IDiag  1:
 E= -95.6264115383028     Delta-E=       -0.000034996052 Rises=F Damp=F
 DIIS: error= 5.97D-05 at cycle   7 NSaved=   7.
 NSaved= 7 IEnMin= 7 EnMin= -95.6264115383028     IErMin= 7 ErrMin= 5.97D-05
 ErrMax= 5.97D-05  0.00D+00 EMaxC= 1.00D-01 BMatC= 4.68D-07 BMatP= 1.09D-04
 IDIUse=1 WtCom= 1.00D+00 WtEn= 0.00D+00
 Coeff-Com:  0.104D-03 0.214D-04-0.212D-02-0.184D-02-0.173D-01-0.374D-01
 Coeff-Com:  0.106D+01
 Coeff:      0.104D-03 0.214D-04-0.212D-02-0.184D-02-0.173D-01-0.374D-01
 Coeff:      0.106D+01
 Gap=     0.159 Goal=   None    Shift=    0.000
 Gap=     0.159 Goal=   None    Shift=    0.000
 RMSDP=1.22D-05 MaxDP=1.15D-04 DE=-3.50D-05 OVMax= 9.44D-04

 Cycle   8  Pass 1  IDiag  1:
 E= -95.6264123172297     Delta-E=       -0.000000778927 Rises=F Damp=F
 DIIS: error= 3.39D-05 at cycle   8 NSaved=   8.
 NSaved= 8 IEnMin= 8 EnMin= -95.6264123172297     IErMin= 8 ErrMin= 3.39D-05
 ErrMax= 3.39D-05  0.00D+00 EMaxC= 1.00D-01 BMatC= 1.35D-07 BMatP= 4.68D-07
 IDIUse=1 WtCom= 1.00D+00 WtEn= 0.00D+00
 Coeff-Com: -0.820D-03 0.112D-02-0.417D-03 0.171D-02 0.208D-02-0.631D-01
 Coeff-Com: -0.343D+00 0.140D+01
 Coeff:     -0.820D-03 0.112D-02-0.417D-03 0.171D-02 0.208D-02-0.631D-01
 Coeff:     -0.343D+00 0.140D+01
 Gap=     0.159 Goal=   None    Shift=    0.000
 Gap=     0.159 Goal=   None    Shift=    0.000
 RMSDP=8.75D-06 MaxDP=9.91D-05 DE=-7.79D-07 OVMax= 7.44D-04

 Cycle   9  Pass 1  IDiag  1:
 E= -95.6264125967055     Delta-E=       -0.000000279476 Rises=F Damp=F
 DIIS: error= 1.91D-05 at cycle   9 NSaved=   9.
 NSaved= 9 IEnMin= 9 EnMin= -95.6264125967055     IErMin= 9 ErrMin= 1.91D-05
 ErrMax= 1.91D-05  0.00D+00 EMaxC= 1.00D-01 BMatC= 4.40D-08 BMatP= 1.35D-07
 IDIUse=1 WtCom= 1.00D+00 WtEn= 0.00D+00
 Coeff-Com: -0.480D-05 0.245D-04 0.173D-03-0.245D-03 0.170D-02 0.349D-01
 Coeff-Com: -0.139D+00-0.343D+00 0.145D+01
 Coeff:     -0.480D-05 0.245D-04 0.173D-03-0.245D-03 0.170D-02 0.349D-01
 Coeff:     -0.139D+00-0.343D+00 0.145D+01
 Gap=     0.159 Goal=   None    Shift=    0.000
 Gap=     0.159 Goal=   None    Shift=    0.000
 RMSDP=4.69D-06 MaxDP=5.64D-05 DE=-2.79D-07 OVMax= 4.02D-04

 Cycle  10  Pass 1  IDiag  1:
 E= -95.6264126499507     Delta-E=       -0.000000053245 Rises=F Damp=F
 DIIS: error= 6.05D-06 at cycle  10 NSaved=  10.
 NSaved=10 IEnMin=10 EnMin= -95.6264126499507     IErMin=10 ErrMin= 6.05D-06
 ErrMax= 6.05D-06  0.00D+00 EMaxC= 1.00D-01 BMatC= 4.72D-09 BMatP= 4.40D-08
 IDIUse=1 WtCom= 1.00D+00 WtEn= 0.00D+00
 Coeff-Com:  0.320D-04-0.352D-04-0.508D-04-0.481D-04-0.829D-03 0.344D-02
 Coeff-Com:  0.304D-01-0.478D-01-0.180D+00 0.120D+01
 Coeff:      0.320D-04-0.352D-04-0.508D-04-0.481D-04-0.829D-03 0.344D-02
 Coeff:      0.304D-01-0.478D-01-0.180D+00 0.120D+01
 Gap=     0.159 Goal=   None    Shift=    0.000
 Gap=     0.159 Goal=   None    Shift=    0.000
 RMSDP=7.57D-07 MaxDP=9.59D-06 DE=-5.32D-08 OVMax= 6.34D-05

 Cycle  11  Pass 1  IDiag  1:
 E= -95.6264126521148     Delta-E=       -0.000000002164 Rises=F Damp=F
 DIIS: error= 2.15D-07 at cycle  11 NSaved=  11.
 NSaved=11 IEnMin=11 EnMin= -95.6264126521148     IErMin=11 ErrMin= 2.15D-07
 ErrMax= 2.15D-07  0.00D+00 EMaxC= 1.00D-01 BMatC= 1.04D-11 BMatP= 4.72D-09
 IDIUse=1 WtCom= 1.00D+00 WtEn= 0.00D+00
 Coeff-Com:  0.717D-05-0.996D-05-0.881D-05 0.783D-05-0.446D-04-0.438D-03
 Coeff-Com:  0.145D-02 0.472D-02-0.225D-01 0.115D-01 0.101D+01
 Coeff:      0.717D-05-0.996D-05-0.881D-05 0.783D-05-0.446D-04-0.438D-03
 Coeff:      0.145D-02 0.472D-02-0.225D-01 0.115D-01 0.101D+01
 Gap=     0.159 Goal=   None    Shift=    0.000
 Gap=     0.159 Goal=   None    Shift=    0.000
 RMSDP=5.70D-08 MaxDP=5.78D-07 DE=-2.16D-09 OVMax= 2.36D-06

 Cycle  12  Pass 1  IDiag  1:
 E= -95.6264126521190     Delta-E=       -0.000000000004 Rises=F Damp=F
 DIIS: error= 1.73D-07 at cycle  12 NSaved=  12.
 NSaved=12 IEnMin=12 EnMin= -95.6264126521190     IErMin=12 ErrMin= 1.73D-07
 ErrMax= 1.73D-07  0.00D+00 EMaxC= 1.00D-01 BMatC= 4.97D-12 BMatP= 1.04D-11
 IDIUse=1 WtCom= 1.00D+00 WtEn= 0.00D+00
 Coeff-Com: -0.266D-05 0.344D-05-0.126D-05 0.519D-06 0.216D-04-0.773D-04
 Coeff-Com: -0.563D-03 0.217D-02 0.422D-02-0.449D-01 0.919D-01 0.947D+00
 Coeff:     -0.266D-05 0.344D-05-0.126D-05 0.519D-06 0.216D-04-0.773D-04
 Coeff:     -0.563D-03 0.217D-02 0.422D-02-0.449D-01 0.919D-01 0.947D+00
 Gap=     0.159 Goal=   None    Shift=    0.000
 Gap=     0.159 Goal=   None    Shift=    0.000
 RMSDP=1.45D-08 MaxDP=1.32D-07 DE=-4.16D-12 OVMax= 9.35D-07

 Cycle  13  Pass 1  IDiag  1:
 E= -95.6264126521208     Delta-E=       -0.000000000002 Rises=F Damp=F
 DIIS: error= 1.69D-08 at cycle  13 NSaved=  13.
 NSaved=13 IEnMin=13 EnMin= -95.6264126521208     IErMin=13 ErrMin= 1.69D-08
 ErrMax= 1.69D-08  0.00D+00 EMaxC= 1.00D-01 BMatC= 4.57D-14 BMatP= 4.97D-12
 IDIUse=1 WtCom= 1.00D+00 WtEn= 0.00D+00
 Coeff-Com: -0.682D-06 0.867D-06 0.107D-06 0.375D-07 0.471D-05-0.204D-05
 Coeff-Com: -0.765D-04-0.169D-03 0.696D-03-0.204D-02-0.366D-01 0.288D-01
 Coeff-Com:  0.101D+01
 Coeff:     -0.682D-06 0.867D-06 0.107D-06 0.375D-07 0.471D-05-0.204D-05
 Coeff:     -0.765D-04-0.169D-03 0.696D-03-0.204D-02-0.366D-01 0.288D-01
 Coeff:      0.101D+01
 Gap=     0.159 Goal=   None    Shift=    0.000
 Gap=     0.159 Goal=   None    Shift=    0.000
 RMSDP=3.44D-09 MaxDP=3.28D-08 DE=-1.82D-12 OVMax= 2.33D-07

 SCF Done:  E(UM062X) =  -95.6264126521     A.U. after   13 cycles
            NFock= 13  Conv=0.34D-08     -V/T= 2.0062
 <Sx>= 0.0000 <Sy>= 0.0000 <Sz>= 0.0000 <S**2>=-0.0000 S=-0.0000
 <L.S>=  0.00000000000    
 KE= 9.503474856738D+01 PE=-2.834765314767D+02 EE= 6.224749643601D+01
 Annihilation of the first spin contaminant:
 S**2 before annihilation    -0.0000,   after    -0.0000
 Leave Link  502 at Mon Apr 21 18:11:46 2025, MaxMem=   536870912 cpu:              82.0 elap:              10.6
 (Enter /home/szhao/Apps/g16/l601.exe)
 Copying SCF densities to generalized density rwf, IOpCl= 1 IROHF=0.

 **********************************************************************

            Population analysis using the SCF density.

 **********************************************************************

 Alpha  occ. eigenvalues --  -14.75725 -10.60638  -0.91280  -0.79294  -0.52659
 Alpha  occ. eigenvalues --   -0.48850  -0.48699  -0.36359  -0.28025
 Alpha virt. eigenvalues --   -0.12144   0.02027   0.05899   0.06195   0.06412
 Alpha virt. eigenvalues --    0.10716   0.12749   0.15726   0.18030   0.18805
 Alpha virt. eigenvalues --    0.19774   0.20731   0.23074   0.27072   0.42607
 Alpha virt. eigenvalues --    0.43052   0.52632   0.56275   0.59772   0.62871
 Alpha virt. eigenvalues --    0.63121   0.64210   0.79728   0.80632   0.81799
 Alpha virt. eigenvalues --    0.88644   1.04950   1.05718   1.08538   1.27112
 Alpha virt. eigenvalues --    1.30197   1.36458   1.48652   1.52046   1.54973
 Alpha virt. eigenvalues --    1.55756   1.66418   1.68682   1.68970   1.96915
 Alpha virt. eigenvalues --    2.01186   2.02998   2.17114   2.17735   2.36413
 Alpha virt. eigenvalues --    2.38738   2.44304   2.46296   2.47161   2.50571
 Alpha virt. eigenvalues --    2.52074   2.52407   2.55064   2.70616   2.71399
 Alpha virt. eigenvalues --    2.92526   2.98028   3.11762   3.73262   3.73807
 Alpha virt. eigenvalues --    3.91630   4.30154   4.75310  23.92165  35.58472
  Beta  occ. eigenvalues --  -14.75725 -10.60638  -0.91280  -0.79294  -0.52659
  Beta  occ. eigenvalues --   -0.48850  -0.48699  -0.36359  -0.28025
  Beta virt. eigenvalues --   -0.12144   0.02027   0.05899   0.06195   0.06412
  Beta virt. eigenvalues --    0.10716   0.12749   0.15726   0.18030   0.18805
  Beta virt. eigenvalues --    0.19774   0.20731   0.23074   0.27072   0.42607
  Beta virt. eigenvalues --    0.43052   0.52632   0.56275   0.59772   0.62871
  Beta virt. eigenvalues --    0.63121   0.64210   0.79728   0.80632   0.81799
  Beta virt. eigenvalues --    0.88644   1.04950   1.05718   1.08538   1.27112
  Beta virt. eigenvalues --    1.30197   1.36458   1.48652   1.52046   1.54973
  Beta virt. eigenvalues --    1.55756   1.66418   1.68682   1.68970   1.96915
  Beta virt. eigenvalues --    2.01186   2.02998   2.17114   2.17735   2.36413
  Beta virt. eigenvalues --    2.38738   2.44304   2.46296   2.47161   2.50571
  Beta virt. eigenvalues --    2.52074   2.52407   2.55064   2.70616   2.71399
  Beta virt. eigenvalues --    2.92526   2.98028   3.11762   3.73262   3.73807
  Beta virt. eigenvalues --    3.91630   4.30154   4.75310  23.92165  35.58472
          Condensed to atoms (all electrons):
               1          2          3          4          5          6
     1  C    5.080091   0.147205  -0.006588   0.388039  -0.006588   0.388039
     2  N    0.147205   6.820847   0.323665  -0.004215   0.323665  -0.004215
     3  H   -0.006588   0.323665   0.490931  -0.000008  -0.035201   0.000110
     4  H    0.388039  -0.004215  -0.000008   0.507824   0.000110  -0.031643
     5  H   -0.006588   0.323665  -0.035201   0.000110   0.490931  -0.000008
     6  H    0.388039  -0.004215   0.000110  -0.031643  -0.000008   0.507824
     7  H    0.378548  -0.009032   0.000408  -0.032230   0.000408  -0.032230
               7
     1  C    0.378548
     2  N   -0.009032
     3  H    0.000408
     4  H   -0.032230
     5  H    0.000408
     6  H   -0.032230
     7  H    0.525068
          Atomic-Atomic Spin Densities.
               1          2          3          4          5          6
     1  C    0.000000  -0.000000  -0.000000  -0.000000  -0.000000  -0.000000
     2  N   -0.000000  -0.000000  -0.000000   0.000000  -0.000000   0.000000
     3  H   -0.000000  -0.000000  -0.000000   0.000000  -0.000000  -0.000000
     4  H   -0.000000   0.000000   0.000000  -0.000000   0.000000  -0.000000
     5  H   -0.000000  -0.000000  -0.000000   0.000000   0.000000  -0.000000
     6  H   -0.000000   0.000000  -0.000000  -0.000000  -0.000000  -0.000000
     7  H   -0.000000  -0.000000   0.000000  -0.000000   0.000000   0.000000
               7
     1  C   -0.000000
     2  N   -0.000000
     3  H    0.000000
     4  H   -0.000000
     5  H    0.000000
     6  H    0.000000
     7  H   -0.000000
 Mulliken charges and spin densities:
               1          2
     1  C   -0.368747   0.000000
     2  N   -0.597920  -0.000000
     3  H    0.226682  -0.000000
     4  H    0.172121  -0.000000
     5  H    0.226682   0.000000
     6  H    0.172121  -0.000000
     7  H    0.169060  -0.000000
 Sum of Mulliken charges =  -0.00000   0.00000
 Mulliken charges and spin densities with hydrogens summed into heavy atoms:
               1          2
     1  C    0.144556   0.000000
     2  N   -0.144556  -0.000000
 Electronic spatial extent (au):  <R**2>=            209.5623
 Charge=             -0.0000 electrons
 Dipole moment (field-independent basis, Debye):
    X=             -1.5787    Y=             -0.7008    Z=              1.1876  Tot=              2.0961
 Quadrupole moment (field-independent basis, Debye-Ang):
   XX=             -9.2558   YY=            -13.8897   ZZ=            -15.0928
   XY=             -1.5549   XZ=              2.6350   YZ=              1.0892
 Traceless Quadrupole moment (field-independent basis, Debye-Ang):
   XX=              3.4903   YY=             -1.1436   ZZ=             -2.3467
   XY=             -1.5549   XZ=              2.6350   YZ=              1.0892
 Octapole moment (field-independent basis, Debye-Ang**2):
  XXX=              1.2114  YYY=              0.6074  ZZZ=             -0.7801  XYY=              1.6057
  XXY=             -2.3744  XXZ=              4.0238  XZZ=             -0.4939  YZZ=              0.0030
  YYZ=             -0.2544  XYZ=              1.9008
 Hexadecapole moment (field-independent basis, Debye-Ang**3):
 XXXX=           -215.8454 YYYY=            -25.3493 ZZZZ=            -26.7397 XXXY=             -3.4271
 XXXZ=              5.8079 YYYX=             -2.5117 YYYZ=              0.4313 ZZZX=             -0.2738
 ZZZY=              0.8274 XXYY=            -37.1517 XXZZ=            -40.4862 YYZZ=             -8.8476
 XXYZ=              3.0187 YYXZ=             -0.1945 ZZXY=              2.7880
 N-N= 3.056787382124D+01 E-N=-2.834765312466D+02  KE= 9.503474856738D+01
                          Isotropic Fermi Contact Couplings
        Atom                 a.u.       MegaHertz       Gauss      10(-4) cm-1
     1  C(13)              0.00000       0.00000       0.00000       0.00000
     2  N(14)              0.00000       0.00000       0.00000       0.00000
     3  H(1)               0.00000       0.00000       0.00000       0.00000
     4  H(1)              -0.00000      -0.00000      -0.00000      -0.00000
     5  H(1)               0.00000       0.00000       0.00000       0.00000
     6  H(1)               0.00000       0.00000       0.00000       0.00000
     7  H(1)               0.00000       0.00000       0.00000       0.00000
 --------------------------------------------------------
       Center         ----  Spin Dipole Couplings  ----
                      3XX-RR        3YY-RR        3ZZ-RR
 --------------------------------------------------------
     1   Atom        0.000000      0.000000      0.000000
     2   Atom        0.000000      0.000000      0.000000
     3   Atom        0.000000      0.000000      0.000000
     4   Atom        0.000000      0.000000      0.000000
     5   Atom        0.000000      0.000000      0.000000
     6   Atom        0.000000      0.000000      0.000000
     7   Atom        0.000000      0.000000      0.000000
 --------------------------------------------------------
                        XY            XZ            YZ
 --------------------------------------------------------
     1   Atom        0.000000      0.000000      0.000000
     2   Atom        0.000000      0.000000      0.000000
     3   Atom        0.000000      0.000000      0.000000
     4   Atom        0.000000      0.000000      0.000000
     5   Atom        0.000000      0.000000      0.000000
     6   Atom        0.000000      0.000000      0.000000
     7   Atom        0.000000      0.000000      0.000000
 --------------------------------------------------------


 ---------------------------------------------------------------------------------
              Anisotropic Spin Dipole Couplings in Principal Axis System
 ---------------------------------------------------------------------------------

       Atom             a.u.   MegaHertz   Gauss  10(-4) cm-1        Axes

              Baa     0.0000     0.000     0.000     0.000  1.0000  0.0000  0.0000
     1 C(13)  Bbb     0.0000     0.000     0.000     0.000 -0.0000  1.0000  0.0000
              Bcc     0.0000     0.000     0.000     0.000  0.0000  0.0000  1.0000
 
              Baa     0.0000     0.000     0.000     0.000  1.0000  0.0000  0.0000
     2 N(14)  Bbb     0.0000     0.000     0.000     0.000 -0.0000  1.0000  0.0000
              Bcc     0.0000     0.000     0.000     0.000  0.0000  0.0000  1.0000
 
              Baa     0.0000     0.000     0.000     0.000  1.0000  0.0000  0.0000
     3 H(1)   Bbb     0.0000     0.000     0.000     0.000 -0.0000  1.0000  0.0000
              Bcc     0.0000     0.000     0.000     0.000  0.0000  0.0000  1.0000
 
              Baa     0.0000     0.000     0.000     0.000  1.0000  0.0000  0.0000
     4 H(1)   Bbb     0.0000     0.000     0.000     0.000 -0.0000  1.0000  0.0000
              Bcc     0.0000     0.000     0.000     0.000  0.0000  0.0000  1.0000
 
              Baa     0.0000     0.000     0.000     0.000  1.0000  0.0000  0.0000
     5 H(1)   Bbb     0.0000     0.000     0.000     0.000 -0.0000  1.0000  0.0000
              Bcc     0.0000     0.000     0.000     0.000  0.0000  0.0000  1.0000
 
              Baa     0.0000     0.000     0.000     0.000  1.0000  0.0000  0.0000
     6 H(1)   Bbb     0.0000     0.000     0.000     0.000 -0.0000  1.0000  0.0000
              Bcc     0.0000     0.000     0.000     0.000  0.0000  0.0000  1.0000
 
              Baa     0.0000     0.000     0.000     0.000  1.0000  0.0000  0.0000
     7 H(1)   Bbb     0.0000     0.000     0.000     0.000 -0.0000  1.0000  0.0000
              Bcc     0.0000     0.000     0.000     0.000  0.0000  0.0000  1.0000
 

 ---------------------------------------------------------------------------------

 No NMR shielding tensors so no spin-rotation constants.
 Leave Link  601 at Mon Apr 21 18:11:47 2025, MaxMem=   536870912 cpu:               1.7 elap:               0.2
 (Enter /home/szhao/Apps/g16/l701.exe)
 ... and contract with generalized density number  0.
 Compute integral first derivatives.
 Leave Link  701 at Mon Apr 21 18:11:47 2025, MaxMem=   536870912 cpu:               1.2 elap:               0.2
 (Enter /home/szhao/Apps/g16/l702.exe)
 L702 exits ... SP integral derivatives will be done elsewhere.
 Leave Link  702 at Mon Apr 21 18:11:47 2025, MaxMem=   536870912 cpu:               0.5 elap:               0.1
 (Enter /home/szhao/Apps/g16/l703.exe)
 Integral derivatives from FoFJK, PRISM(SPDF).
 Compute integral first derivatives, UseDBF=F ICtDFT=           0.
 Calling FoFJK, ICntrl=      2127 FMM=F ISym2X=0 I1Cent= 0 IOpClX= 1 NMat=1 NMatS=1 NMatT=0.
 FoFJK:  IHMeth= 1 ICntrl=    2127 DoSepK=F KAlg= 0 I1Cent=           0 FoldK=F
 IRaf=         0 NMat=       1 IRICut=       1 DoRegI=T DoRafI=F ISym2E= 0 IDoP0=0 IntGTp=1.
 FoFCou: FMM=F IPFlag=           0 FMFlag=      100000 FMFlg1=         800
         NFxFlg=           0 DoJE=F BraDBF=F KetDBF=F FulRan=T
         wScrn=  0.000000 ICntrl=      2127 IOpCl=  1 I1Cent=           0 NGrid=           0
         NMat0=    1 NMatS0=      1 NMatT0=    0 NMatD0=    1 NMtDS0=    0 NMtDT0=    0
 Symmetry not used in FoFCou.
 Leave Link  703 at Mon Apr 21 18:11:49 2025, MaxMem=   536870912 cpu:              10.7 elap:               1.4
 (Enter /home/szhao/Apps/g16/l716.exe)
 Dipole        =-6.21097111D-01-2.75702339D-01 4.67227109D-01
 -------------------------------------------------------------------
 Center     Atomic                   Forces (Hartrees/Bohr)
 Number     Number              X              Y              Z
 -------------------------------------------------------------------
      1        6          -0.000000000   -0.000000000   -0.000000000
      2        7          -0.000000000   -0.000000000   -0.000000000
      3        1          -0.006711952   -0.011568437    0.007291067
      4        1           0.022264873    0.006232557    0.002189329
      5        1          -0.006716343   -0.000791999    0.013652740
      6        1           0.022263697   -0.004927518   -0.004399300
      7        1           0.020861403   -0.001975949    0.003347818
 -------------------------------------------------------------------
 Cartesian Forces:  Max     0.022264873 RMS     0.009742279
 Leave Link  716 at Mon Apr 21 18:11:49 2025, MaxMem=   536870912 cpu:               0.6 elap:               0.1
 (Enter /home/szhao/Apps/g16/l103.exe)

 GradGradGradGradGradGradGradGradGradGradGradGradGradGradGradGradGradGrad
 Berny optimization.
 FormGI is forming the generalized inverse of G from B-inverse, IUseBI=4.
 Internal  Forces:  Max     0.065389973 RMS     0.019005644
 Search for a local minimum.
 Step number   1 out of a maximum of   36
 All quantities printed in internal units (Hartrees-Bohrs-Radians)
 RMS Force = .14135D-01 SwitMx=.10000D-02 MixMth= 1
 Mixed Optimization -- RFO/linear search
 Second derivative matrix not updated -- first step.
 ITU=  0
     Eigenvalues ---    0.00230   0.03652   0.06492   0.07285   0.16000
     Eigenvalues ---    0.16000   0.16000   0.16000   0.16000   0.33969
     Eigenvalues ---    0.34689   0.34689   0.45510   0.455101000.00000
     Eigenvalues --- 1000.000001000.000001000.000001000.000001000.00000
     Eigenvalues --- 1000.000001000.000001000.000001000.000001000.00000
     Eigenvalues --- 1000.00000
 RFO step:  Lambda=-2.43941293D-02 EMin= 2.30000000D-03
 Linear search not attempted -- first point.
 Maximum step size (   0.300) exceeded in Quadratic search.
    -- Step size scaled by   0.857
 Iteration  1 RMS(Cart)=  0.10096908 RMS(Int)=  0.00858527
 Iteration  2 RMS(Cart)=  0.00785331 RMS(Int)=  0.00526442
 Iteration  3 RMS(Cart)=  0.00009407 RMS(Int)=  0.00526414
 Iteration  4 RMS(Cart)=  0.00000170 RMS(Int)=  0.00526414
 Iteration  5 RMS(Cart)=  0.00000003 RMS(Int)=  0.00526414
 ITry= 1 IFail=0 DXMaxC= 2.23D-01 DCOld= 1.00D+10 DXMaxT= 3.00D-01 DXLimC= 3.00D+00 Rises=F
 Variable       Old X    -DE/DX   Delta X   Delta X   Delta X     New X
                                 (Linear)    (Quad)   (Total)
    X1       -2.79782   0.06539   0.00000   0.00000   0.00000  -2.79782
    Y1        0.00000   0.00236   0.00000   0.00000   0.00000   0.00000
    Z1        0.00000  -0.00401   0.00000   0.00000   0.00000   0.00000
    X2        2.79782  -0.01343   0.00000   0.00000   0.00000   2.79782
    Y2        0.00000  -0.01539   0.00000   0.00000   0.00000   0.00000
    Z2        0.00000   0.02609   0.00000   0.00000   0.00000   0.00000
    R1        2.06182  -0.00144   0.00000  -0.00331  -0.00331   2.05851
    R2        2.06182  -0.00144   0.00000  -0.00331  -0.00331   2.05851
    R3        2.07383  -0.00529   0.00000  -0.01246  -0.01246   2.06138
    R4        1.91387   0.00841   0.00000   0.01502   0.01502   1.92890
    R5        1.91387   0.00841   0.00000   0.01502   0.01502   1.92889
    A1        1.90417  -0.02326   0.00000  -0.10675  -0.11213   1.79204
    A2        1.90417  -0.02326   0.00000  -0.10674  -0.11212   1.79205
    A3        2.00713  -0.01853   0.00000  -0.08895  -0.09416   1.91298
    A4        1.87025   0.02362   0.00000   0.11592   0.10897   1.97922
    A5        1.88671   0.02262   0.00000   0.10243   0.09608   1.98279
    A6        1.88671   0.02262   0.00000   0.10243   0.09609   1.98280
    A7        1.93597  -0.01630   0.00000  -0.10718  -0.11280   1.82317
    A8        1.93597  -0.01631   0.00000  -0.10722  -0.11284   1.82313
    A9        1.86950   0.00697   0.00000  -0.02839  -0.04526   1.82424
    D1       -3.12283  -0.00727   0.00000  -0.09664  -0.09196   3.06839
    D2        1.08495   0.00513   0.00000   0.07780   0.07221   1.15716
    D3       -1.08494  -0.00513   0.00000  -0.07780  -0.07221  -1.15714
    D4        3.12284   0.00727   0.00000   0.09664   0.09197  -3.06837
    D5        1.03771  -0.00620   0.00000  -0.08721  -0.08208   0.95563
    D6       -1.03770   0.00620   0.00000   0.08723   0.08210  -0.95560
         Item               Value     Threshold  Converged?
 Maximum Force            0.023621     0.000450     NO 
 RMS     Force            0.014135     0.000300     NO 
 Maximum Displacement     0.222978     0.001800     NO 
 RMS     Displacement     0.104654     0.001200     NO 
 Predicted change in Energy=-1.314261D-02
 Lowest energy point so far.  Saving SCF results.
 GradGradGradGradGradGradGradGradGradGradGradGradGradGradGradGradGradGrad

 Leave Link  103 at Mon Apr 21 18:11:49 2025, MaxMem=   536870912 cpu:               1.2 elap:               0.2
 (Enter /home/szhao/Apps/g16/l202.exe)
                          Input orientation:                          
 ---------------------------------------------------------------------
 Center     Atomic      Atomic             Coordinates (Angstroms)
 Number     Number       Type             X           Y           Z
 ---------------------------------------------------------------------
      1          6           0       -1.480542    0.000000    0.000000
      2          7           0        1.480542    0.000000    0.000000
      3          1           0        1.735419   -0.985182    0.079633
      4          1           0       -1.719585    1.062735   -0.007919
      5          1           0        1.735386    0.404014    0.902059
      6          1           0       -1.719598   -0.504198   -0.935547
      7          1           0       -1.846562   -0.523476    0.884262
 ---------------------------------------------------------------------
                    Distance matrix (angstroms):
                    1          2          3          4          5
     1  C    0.000000
     2  N    2.961084   0.000000
     3  H    3.364422   1.020729   0.000000
     4  H    1.089316   3.371985   4.017298   0.000000
     5  H    3.364392   1.020727   1.614389   3.633015   0.000000
     6  H    1.089318   3.371997   3.633055   1.820927   4.017283
     7  H    1.090834   3.482179   3.700161   1.824330   3.700123
                    6          7
     6  H    0.000000
     7  H    1.824335   0.000000
 Symmetry turned off by external request.
 Stoichiometry    CH5N
 Framework group  C1[X(CH5N)]
 Deg. of freedom    15
 Full point group                 C1      NOp   1
 Rotational constants (GHZ):          96.8426564           6.7643101           6.6970987
 Leave Link  202 at Mon Apr 21 18:11:50 2025, MaxMem=   536870912 cpu:               0.1 elap:               0.0
 (Enter /home/szhao/Apps/g16/l301.exe)
 Standard basis: 6-311+G(d,p) (5D, 7F)
 Ernie: Thresh=  0.10000D-02 Tol=  0.10000D-05 Strict=F.
    74 basis functions,   112 primitive gaussians,    76 cartesian basis functions
     9 alpha electrons        9 beta electrons
       nuclear repulsion energy        30.6916166991 Hartrees.
 IExCor= 4336 DFT=T Ex+Corr=M062X ExCW=0 ScaHFX=  0.540000
 ScaDFX=  1.000000  1.000000  1.000000  1.000000 ScalE2=  1.000000  1.000000
 IRadAn=      7 IRanWt=     -1 IRanGd=            0 ICorTp=0 IEmpDi=  4
 NAtoms=    7 NActive=    7 NUniq=    7 SFac= 1.00D+00 NAtFMM=   60 NAOKFM=F Big=F
 Integral buffers will be    131072 words long.
 Raffenetti 2 integral format.
 Two-electron integral symmetry is turned off.
 Leave Link  301 at Mon Apr 21 18:11:50 2025, MaxMem=   536870912 cpu:               0.4 elap:               0.1
 (Enter /home/szhao/Apps/g16/l302.exe)
 NPDir=0 NMtPBC=     1 NCelOv=     1 NCel=       1 NClECP=     1 NCelD=      1
         NCelK=      1 NCelE2=     1 NClLst=     1 CellRange=     0.0.
 One-electron integrals computed using PRISM.
 NBasis=    74 RedAO= T EigKep=  3.57D-03  NBF=    74
 NBsUse=    74 1.00D-06 EigRej= -1.00D+00 NBFU=    74
 Precomputing XC quadrature grid using
 IXCGrd= 4 IRadAn=           7 IRanWt=          -1 IRanGd=           0 AccXCQ= 0.00D+00.
 Generated NRdTot=       0 NPtTot=           0 NUsed=           0 NTot=          32
 NSgBfM=    76    76    76    76    76 MxSgAt=     7 MxSgA2=     7.
 Leave Link  302 at Mon Apr 21 18:11:50 2025, MaxMem=   536870912 cpu:               2.0 elap:               0.3
 (Enter /home/szhao/Apps/g16/l303.exe)
 DipDrv:  MaxL=1.
 Leave Link  303 at Mon Apr 21 18:11:50 2025, MaxMem=   536870912 cpu:               1.1 elap:               0.2
 (Enter /home/szhao/Apps/g16/l401.exe)
 Initial guess from the checkpoint file:  "opt.chk"
 B after Tr=     0.013467   -0.010760    0.018178
         Rot=    0.999989   -0.000714    0.004022    0.002377 Ang=  -0.54 deg.
 Guess basis will be translated and rotated to current coordinates.
 JPrj=2 DoOrth=T DoCkMO=T.
 Initial guess <Sx>= 0.0000 <Sy>= 0.0000 <Sz>= 0.0000 <S**2>= 0.0000 S= 0.0000
 Generating alternative initial guess.
 ExpMin= 4.38D-02 ExpMax= 6.29D+03 ExpMxC= 9.49D+02 IAcc=3 IRadAn=         5 AccDes= 0.00D+00
 Harris functional with IExCor= 1009 and IRadAn=       5 diagonalized for initial guess.
 HarFok:  IExCor= 1009 AccDes= 0.00D+00 IRadAn=         5 IDoV= 1 UseB2=F ITyADJ=14
 ICtDFT=  3500011 ScaDFX=  1.000000  1.000000  1.000000  1.000000
 FoFCou: FMM=F IPFlag=           0 FMFlag=      100000 FMFlg1=           0
         NFxFlg=           0 DoJE=T BraDBF=F KetDBF=T FulRan=T
         wScrn=  0.000000 ICntrl=       500 IOpCl=  0 I1Cent=   200000004 NGrid=           0
         NMat0=    1 NMatS0=      1 NMatT0=    0 NMatD0=    1 NMtDS0=    0 NMtDT0=    0
 Symmetry not used in FoFCou.
 Harris En= -95.6518660735590    
 Leave Link  401 at Mon Apr 21 18:11:51 2025, MaxMem=   536870912 cpu:               4.2 elap:               0.6
 (Enter /home/szhao/Apps/g16/l502.exe)
 Keep R1 and R2 ints in memory in canonical form, NReq=14944651.
 FoFCou: FMM=F IPFlag=           0 FMFlag=           0 FMFlg1=           0
         NFxFlg=           0 DoJE=F BraDBF=F KetDBF=F FulRan=T
         wScrn=  0.000000 ICntrl=       600 IOpCl=  0 I1Cent=           0 NGrid=           0
         NMat0=    1 NMatS0=   2775 NMatT0=    0 NMatD0=    1 NMtDS0=    0 NMtDT0=    0
 Symmetry not used in FoFCou.
 Two-electron integral symmetry not used.
 UHF open shell SCF:
 Using DIIS extrapolation, IDIIS=  1040.
 NGot=   536870912 LenX=   529154583 LenY=   529148366
 Requested convergence on RMS density matrix=1.00D-08 within 128 cycles.
 Requested convergence on MAX density matrix=1.00D-06.
 Requested convergence on             energy=1.00D-06.
 No special actions if energy rises.

 Cycle   1  Pass 1  IDiag  1:
 E= -95.6380464532987    
 DIIS: error= 6.50D-03 at cycle   1 NSaved=   1.
 NSaved= 1 IEnMin= 1 EnMin= -95.6380464532987     IErMin= 1 ErrMin= 6.50D-03
 ErrMax= 6.50D-03  0.00D+00 EMaxC= 1.00D-01 BMatC= 1.35D-02 BMatP= 1.35D-02
 IDIUse=3 WtCom= 9.35D-01 WtEn= 6.50D-02
 Coeff-Com:  0.100D+01
 Coeff-En:   0.100D+01
 Coeff:      0.100D+01
 Gap=     0.475 Goal=   None    Shift=    0.000
 Gap=     0.475 Goal=   None    Shift=    0.000
 GapD=    0.475 DampG=2.000 DampE=1.000 DampFc=2.0000 IDamp=-1.
 RMSDP=9.34D-04 MaxDP=1.08D-02              OVMax= 3.42D-02

 Cycle   2  Pass 1  IDiag  1:
 E= -95.6431337347585     Delta-E=       -0.005087281460 Rises=F Damp=F
 DIIS: error= 1.17D-03 at cycle   2 NSaved=   2.
 NSaved= 2 IEnMin= 2 EnMin= -95.6431337347585     IErMin= 2 ErrMin= 1.17D-03
 ErrMax= 1.17D-03  0.00D+00 EMaxC= 1.00D-01 BMatC= 4.11D-04 BMatP= 1.35D-02
 IDIUse=3 WtCom= 9.88D-01 WtEn= 1.17D-02
 Coeff-Com: -0.949D-01 0.109D+01
 Coeff-En:   0.000D+00 0.100D+01
 Coeff:     -0.938D-01 0.109D+01
 Gap=     0.164 Goal=   None    Shift=    0.000
 Gap=     0.164 Goal=   None    Shift=    0.000
 RMSDP=3.12D-04 MaxDP=3.45D-03 DE=-5.09D-03 OVMax= 1.76D-02

 Cycle   3  Pass 1  IDiag  1:
 E= -95.6435221830151     Delta-E=       -0.000388448257 Rises=F Damp=F
 DIIS: error= 5.25D-04 at cycle   3 NSaved=   3.
 NSaved= 3 IEnMin= 3 EnMin= -95.6435221830151     IErMin= 3 ErrMin= 5.25D-04
 ErrMax= 5.25D-04  0.00D+00 EMaxC= 1.00D-01 BMatC= 6.78D-05 BMatP= 4.11D-04
 IDIUse=3 WtCom= 9.95D-01 WtEn= 5.25D-03
 Coeff-Com: -0.371D-01 0.158D+00 0.879D+00
 Coeff-En:   0.000D+00 0.000D+00 0.100D+01
 Coeff:     -0.369D-01 0.157D+00 0.880D+00
 Gap=     0.164 Goal=   None    Shift=    0.000
 Gap=     0.164 Goal=   None    Shift=    0.000
 RMSDP=9.43D-05 MaxDP=1.04D-03 DE=-3.88D-04 OVMax= 8.29D-03

 Cycle   4  Pass 1  IDiag  1:
 E= -95.6435741614362     Delta-E=       -0.000051978421 Rises=F Damp=F
 DIIS: error= 6.60D-04 at cycle   4 NSaved=   4.
 NSaved= 4 IEnMin= 4 EnMin= -95.6435741614362     IErMin= 3 ErrMin= 5.25D-04
 ErrMax= 6.60D-04  0.00D+00 EMaxC= 1.00D-01 BMatC= 6.36D-05 BMatP= 6.78D-05
 IDIUse=3 WtCom= 9.93D-01 WtEn= 6.60D-03
 Coeff-Com: -0.890D-02-0.345D-01 0.528D+00 0.516D+00
 Coeff-En:   0.000D+00 0.000D+00 0.000D+00 0.100D+01
 Coeff:     -0.885D-02-0.342D-01 0.524D+00 0.519D+00
 Gap=     0.165 Goal=   None    Shift=    0.000
 Gap=     0.165 Goal=   None    Shift=    0.000
 RMSDP=7.34D-05 MaxDP=9.85D-04 DE=-5.20D-05 OVMax= 6.85D-03

 Cycle   5  Pass 1  IDiag  1:
 E= -95.6435892580196     Delta-E=       -0.000015096583 Rises=F Damp=F
 DIIS: error= 8.39D-04 at cycle   5 NSaved=   5.
 NSaved= 5 IEnMin= 5 EnMin= -95.6435892580196     IErMin= 3 ErrMin= 5.25D-04
 ErrMax= 8.39D-04  0.00D+00 EMaxC= 1.00D-01 BMatC= 6.93D-05 BMatP= 6.36D-05
 IDIUse=3 WtCom= 9.92D-01 WtEn= 8.39D-03
 Coeff-Com:  0.169D-01-0.143D+00-0.298D+00 0.694D+00 0.730D+00
 Coeff-En:   0.000D+00 0.000D+00 0.000D+00 0.343D+00 0.657D+00
 Coeff:      0.168D-01-0.142D+00-0.296D+00 0.691D+00 0.729D+00
 Gap=     0.165 Goal=   None    Shift=    0.000
 Gap=     0.165 Goal=   None    Shift=    0.000
 RMSDP=6.94D-05 MaxDP=7.36D-04 DE=-1.51D-05 OVMax= 6.29D-03

 Cycle   6  Pass 1  IDiag  1:
 E= -95.6436221768514     Delta-E=       -0.000032918832 Rises=F Damp=F
 DIIS: error= 6.67D-05 at cycle   6 NSaved=   6.
 NSaved= 6 IEnMin= 6 EnMin= -95.6436221768514     IErMin= 6 ErrMin= 6.67D-05
 ErrMax= 6.67D-05  0.00D+00 EMaxC= 1.00D-01 BMatC= 9.52D-07 BMatP= 6.36D-05
 IDIUse=1 WtCom= 1.00D+00 WtEn= 0.00D+00
 Coeff-Com: -0.270D-03 0.188D-01-0.679D-01-0.843D-01-0.105D+00 0.124D+01
 Coeff:     -0.270D-03 0.188D-01-0.679D-01-0.843D-01-0.105D+00 0.124D+01
 Gap=     0.165 Goal=   None    Shift=    0.000
 Gap=     0.165 Goal=   None    Shift=    0.000
 RMSDP=2.52D-05 MaxDP=3.65D-04 DE=-3.29D-05 OVMax= 2.10D-03

 Cycle   7  Pass 1  IDiag  1:
 E= -95.6436236682974     Delta-E=       -0.000001491446 Rises=F Damp=F
 DIIS: error= 2.41D-05 at cycle   7 NSaved=   7.
 NSaved= 7 IEnMin= 7 EnMin= -95.6436236682974     IErMin= 7 ErrMin= 2.41D-05
 ErrMax= 2.41D-05  0.00D+00 EMaxC= 1.00D-01 BMatC= 1.31D-07 BMatP= 9.52D-07
 IDIUse=1 WtCom= 1.00D+00 WtEn= 0.00D+00
 Coeff-Com: -0.158D-02 0.198D-01 0.121D-02-0.920D-01-0.106D+00 0.471D+00
 Coeff-Com:  0.707D+00
 Coeff:     -0.158D-02 0.198D-01 0.121D-02-0.920D-01-0.106D+00 0.471D+00
 Coeff:      0.707D+00
 Gap=     0.165 Goal=   None    Shift=    0.000
 Gap=     0.165 Goal=   None    Shift=    0.000
 RMSDP=4.38D-06 MaxDP=5.88D-05 DE=-1.49D-06 OVMax= 2.66D-04

 Cycle   8  Pass 1  IDiag  1:
 E= -95.6436237237171     Delta-E=       -0.000000055420 Rises=F Damp=F
 DIIS: error= 6.54D-06 at cycle   8 NSaved=   8.
 NSaved= 8 IEnMin= 8 EnMin= -95.6436237237171     IErMin= 8 ErrMin= 6.54D-06
 ErrMax= 6.54D-06  0.00D+00 EMaxC= 1.00D-01 BMatC= 7.90D-09 BMatP= 1.31D-07
 IDIUse=1 WtCom= 1.00D+00 WtEn= 0.00D+00
 Coeff-Com: -0.248D-03 0.239D-02 0.670D-02-0.123D-01-0.847D-02-0.123D-02
 Coeff-Com:  0.146D+00 0.867D+00
 Coeff:     -0.248D-03 0.239D-02 0.670D-02-0.123D-01-0.847D-02-0.123D-02
 Coeff:      0.146D+00 0.867D+00
 Gap=     0.165 Goal=   None    Shift=    0.000
 Gap=     0.165 Goal=   None    Shift=    0.000
 RMSDP=1.13D-06 MaxDP=9.27D-06 DE=-5.54D-08 OVMax= 5.74D-05

 Cycle   9  Pass 1  IDiag  1:
 E= -95.6436237268242     Delta-E=       -0.000000003107 Rises=F Damp=F
 DIIS: error= 3.44D-06 at cycle   9 NSaved=   9.
 NSaved= 9 IEnMin= 9 EnMin= -95.6436237268242     IErMin= 9 ErrMin= 3.44D-06
 ErrMax= 3.44D-06  0.00D+00 EMaxC= 1.00D-01 BMatC= 1.35D-09 BMatP= 7.90D-09
 IDIUse=1 WtCom= 1.00D+00 WtEn= 0.00D+00
 Coeff-Com:  0.752D-04-0.102D-02 0.374D-03 0.463D-02 0.171D-02-0.289D-01
 Coeff-Com: -0.300D-01 0.652D-01 0.988D+00
 Coeff:      0.752D-04-0.102D-02 0.374D-03 0.463D-02 0.171D-02-0.289D-01
 Coeff:     -0.300D-01 0.652D-01 0.988D+00
 Gap=     0.165 Goal=   None    Shift=    0.000
 Gap=     0.165 Goal=   None    Shift=    0.000
 RMSDP=4.83D-07 MaxDP=6.79D-06 DE=-3.11D-09 OVMax= 3.26D-05

 Cycle  10  Pass 1  IDiag  1:
 E= -95.6436237274843     Delta-E=       -0.000000000660 Rises=F Damp=F
 DIIS: error= 2.68D-07 at cycle  10 NSaved=  10.
 NSaved=10 IEnMin=10 EnMin= -95.6436237274843     IErMin=10 ErrMin= 2.68D-07
 ErrMax= 2.68D-07  0.00D+00 EMaxC= 1.00D-01 BMatC= 1.71D-11 BMatP= 1.35D-09
 IDIUse=1 WtCom= 1.00D+00 WtEn= 0.00D+00
 Coeff-Com:  0.149D-04-0.148D-03-0.238D-03 0.105D-02 0.310D-03-0.533D-04
 Coeff-Com: -0.699D-02-0.476D-01 0.131D-01 0.104D+01
 Coeff:      0.149D-04-0.148D-03-0.238D-03 0.105D-02 0.310D-03-0.533D-04
 Coeff:     -0.699D-02-0.476D-01 0.131D-01 0.104D+01
 Gap=     0.165 Goal=   None    Shift=    0.000
 Gap=     0.165 Goal=   None    Shift=    0.000
 RMSDP=5.99D-08 MaxDP=6.96D-07 DE=-6.60D-10 OVMax= 2.93D-06

 Cycle  11  Pass 1  IDiag  1:
 E= -95.6436237274923     Delta-E=       -0.000000000008 Rises=F Damp=F
 DIIS: error= 6.63D-08 at cycle  11 NSaved=  11.
 NSaved=11 IEnMin=11 EnMin= -95.6436237274923     IErMin=11 ErrMin= 6.63D-08
 ErrMax= 6.63D-08  0.00D+00 EMaxC= 1.00D-01 BMatC= 6.60D-13 BMatP= 1.71D-11
 IDIUse=1 WtCom= 1.00D+00 WtEn= 0.00D+00
 Coeff-Com: -0.217D-05 0.296D-04 0.409D-05-0.207D-03-0.528D-04 0.902D-03
 Coeff-Com:  0.987D-03-0.154D-02-0.220D-01-0.169D-02 0.102D+01
 Coeff:     -0.217D-05 0.296D-04 0.409D-05-0.207D-03-0.528D-04 0.902D-03
 Coeff:      0.987D-03-0.154D-02-0.220D-01-0.169D-02 0.102D+01
 Gap=     0.165 Goal=   None    Shift=    0.000
 Gap=     0.165 Goal=   None    Shift=    0.000
 RMSDP=8.87D-09 MaxDP=1.22D-07 DE=-8.07D-12 OVMax= 3.80D-07

 SCF Done:  E(UM062X) =  -95.6436237275     A.U. after   11 cycles
            NFock= 11  Conv=0.89D-08     -V/T= 2.0065
 <Sx>= 0.0000 <Sy>= 0.0000 <Sz>= 0.0000 <S**2>=-0.0000 S=-0.0000
 <L.S>=  0.00000000000    
 KE= 9.502262259721D+01 PE=-2.837313819116D+02 EE= 6.237351888773D+01
 Annihilation of the first spin contaminant:
 S**2 before annihilation    -0.0000,   after     0.0000
 Leave Link  502 at Mon Apr 21 18:12:00 2025, MaxMem=   536870912 cpu:              71.1 elap:               9.2
 (Enter /home/szhao/Apps/g16/l701.exe)
 ... and contract with generalized density number  0.
 Compute integral first derivatives.
 Leave Link  701 at Mon Apr 21 18:12:01 2025, MaxMem=   536870912 cpu:               1.3 elap:               0.2
 (Enter /home/szhao/Apps/g16/l702.exe)
 L702 exits ... SP integral derivatives will be done elsewhere.
 Leave Link  702 at Mon Apr 21 18:12:01 2025, MaxMem=   536870912 cpu:               0.6 elap:               0.1
 (Enter /home/szhao/Apps/g16/l703.exe)
 Integral derivatives from FoFJK, PRISM(SPDF).
 Compute integral first derivatives, UseDBF=F ICtDFT=           0.
 Calling FoFJK, ICntrl=      2127 FMM=F ISym2X=0 I1Cent= 0 IOpClX= 1 NMat=1 NMatS=1 NMatT=0.
 FoFJK:  IHMeth= 1 ICntrl=    2127 DoSepK=F KAlg= 0 I1Cent=           0 FoldK=F
 IRaf=         0 NMat=       1 IRICut=       1 DoRegI=T DoRafI=F ISym2E= 0 IDoP0=0 IntGTp=1.
 FoFCou: FMM=F IPFlag=           0 FMFlag=      100000 FMFlg1=         800
         NFxFlg=           0 DoJE=F BraDBF=F KetDBF=F FulRan=T
         wScrn=  0.000000 ICntrl=      2127 IOpCl=  1 I1Cent=           0 NGrid=           0
         NMat0=    1 NMatS0=      1 NMatT0=    0 NMatD0=    1 NMtDS0=    0 NMtDT0=    0
 Symmetry not used in FoFCou.
 Leave Link  703 at Mon Apr 21 18:12:03 2025, MaxMem=   536870912 cpu:              11.6 elap:               1.5
 (Enter /home/szhao/Apps/g16/l716.exe)
 Dipole        =-8.21259716D-01-3.24643976D-01 5.48386014D-01
 -------------------------------------------------------------------
 Center     Atomic                   Forces (Hartrees/Bohr)
 Number     Number              X              Y              Z
 -------------------------------------------------------------------
      1        6          -0.000000000   -0.000000000   -0.000000000
      2        7          -0.000000000   -0.000000000   -0.000000000
      3        1          -0.006982934   -0.004634317    0.002809615
      4        1           0.013517195   -0.000576084    0.000816812
      5        1          -0.006989249   -0.000229084    0.005416609
      6        1           0.013516613   -0.000440275    0.000898628
      7        1           0.012515993   -0.000128160    0.000213196
 -------------------------------------------------------------------
 Cartesian Forces:  Max     0.013517195 RMS     0.005692517
 Leave Link  716 at Mon Apr 21 18:12:03 2025, MaxMem=   536870912 cpu:               0.9 elap:               0.2
 (Enter /home/szhao/Apps/g16/l103.exe)

 GradGradGradGradGradGradGradGradGradGradGradGradGradGradGradGradGradGrad
 Berny optimization.
 Using GEDIIS/GDIIS optimizer.
 FormGI is forming the generalized inverse of G from B-inverse, IUseBI=4.
 Internal  Forces:  Max     0.039549802 RMS     0.011908678
 Search for a local minimum.
 Step number   2 out of a maximum of   36
 All quantities printed in internal units (Hartrees-Bohrs-Radians)
 RMS Force = .93313D-02 SwitMx=.10000D-02 MixMth= 1
 Mixed Optimization -- RFO/linear search
 Update second derivatives using D2CorX and points    1    2
 DE= -1.72D-02 DEPred=-1.31D-02 R= 1.31D+00
 TightC=F SS=  1.41D+00  RLast= 3.65D-01 DXNew= 5.0454D-01 1.0953D+00
 Trust test= 1.31D+00 RLast= 3.65D-01 DXMaxT set to 5.05D-01
 ITU=  1  0
 Use linear search instead of GDIIS.
     Eigenvalues ---    0.00230   0.04312   0.07720   0.07857   0.08538
     Eigenvalues ---    0.16000   0.16000   0.16000   0.16509   0.33902
     Eigenvalues ---    0.34689   0.34848   0.45510   0.457491000.00000
     Eigenvalues --- 1000.000001000.000001000.000001000.000001000.00000
     Eigenvalues --- 1000.000001000.000001000.000001000.000001000.00000
     Eigenvalues --- 1000.00000
 RFO step:  Lambda=-2.04112884D-03 EMin= 2.29999999D-03
 Quartic linear search produced a step of  1.31630.
 Iteration  1 RMS(Cart)=  0.16349352 RMS(Int)=  0.02820351
 Iteration  2 RMS(Cart)=  0.01667820 RMS(Int)=  0.02295879
 Iteration  3 RMS(Cart)=  0.00076401 RMS(Int)=  0.02295575
 Iteration  4 RMS(Cart)=  0.00011755 RMS(Int)=  0.02295568
 Iteration  5 RMS(Cart)=  0.00001820 RMS(Int)=  0.02295568
 Iteration  6 RMS(Cart)=  0.00000282 RMS(Int)=  0.02295568
 Iteration  7 RMS(Cart)=  0.00000044 RMS(Int)=  0.02295568
 ITry= 1 IFail=0 DXMaxC= 3.78D-01 DCOld= 1.00D+10 DXMaxT= 5.05D-01 DXLimC= 3.00D+00 Rises=F
 Variable       Old X    -DE/DX   Delta X   Delta X   Delta X     New X
                                 (Linear)    (Quad)   (Total)
    X1       -2.79782   0.03955   0.00000   0.00000   0.00000  -2.79782
    Y1        0.00000   0.00088   0.00000   0.00000   0.00000   0.00000
    Z1        0.00000  -0.00150   0.00000   0.00000   0.00000   0.00000
    X2        2.79782  -0.01397   0.00000   0.00000   0.00000   2.79782
    Y2        0.00000  -0.00689   0.00000   0.00000   0.00000   0.00000
    Z2        0.00000   0.01166   0.00000   0.00000   0.00000   0.00000
    R1        2.05851  -0.00353  -0.00436  -0.01885  -0.02321   2.03530
    R2        2.05851  -0.00353  -0.00436  -0.01885  -0.02321   2.03530
    R3        2.06138  -0.00397  -0.01639  -0.00745  -0.02385   2.03753
    R4        1.92890   0.00295   0.01978  -0.00835   0.01142   1.94032
    R5        1.92889   0.00295   0.01977  -0.00834   0.01144   1.94033
    A1        1.79204  -0.01648  -0.14760  -0.02302  -0.18502   1.60702
    A2        1.79205  -0.01648  -0.14759  -0.02305  -0.18503   1.60702
    A3        1.91298  -0.01387  -0.12394  -0.02348  -0.16171   1.75126
    A4        1.97922   0.01248   0.14344   0.00586   0.09637   2.07558
    A5        1.98279   0.01293   0.12647   0.02520   0.10253   2.08532
    A6        1.98280   0.01293   0.12648   0.02514   0.10247   2.08527
    A7        1.82317  -0.01397  -0.14848  -0.03945  -0.19221   1.63096
    A8        1.82313  -0.01399  -0.14853  -0.03958  -0.19239   1.63074
    A9        1.82424   0.00421  -0.05958   0.08519  -0.03135   1.79289
    D1        3.06839  -0.00344  -0.12105   0.03714  -0.06749   3.00090
    D2        1.15716   0.00214   0.09505  -0.02734   0.04633   1.20349
    D3       -1.15714  -0.00214  -0.09505   0.02634  -0.04733  -1.20447
    D4       -3.06837   0.00344   0.12106  -0.03815   0.06649  -3.00189
    D5        0.95563  -0.00279  -0.10804   0.03170  -0.05744   0.89819
    D6       -0.95560   0.00279   0.10806  -0.03279   0.05638  -0.89922
         Item               Value     Threshold  Converged?
 Maximum Force            0.016483     0.000450     NO 
 RMS     Force            0.009331     0.000300     NO 
 Maximum Displacement     0.378038     0.001800     NO 
 RMS     Displacement     0.163821     0.001200     NO 
 Predicted change in Energy=-1.287648D-02
 Lowest energy point so far.  Saving SCF results.
 GradGradGradGradGradGradGradGradGradGradGradGradGradGradGradGradGradGrad

 Leave Link  103 at Mon Apr 21 18:12:03 2025, MaxMem=   536870912 cpu:               1.7 elap:               0.3
 (Enter /home/szhao/Apps/g16/l202.exe)
                          Input orientation:                          
 ---------------------------------------------------------------------
 Center     Atomic      Atomic             Coordinates (Angstroms)
 Number     Number       Type             X           Y           Z
 ---------------------------------------------------------------------
      1          6           0       -1.480542    0.000000    0.000000
      2          7           0        1.480542    0.000000    0.000000
      3          1           0        1.542281   -1.015279    0.140215
      4          1           0       -1.519547    1.076320    0.003718
      5          1           0        1.542054    0.364752    0.957835
      6          1           0       -1.519549   -0.519379   -0.942723
      7          1           0       -1.674070   -0.541128    0.912291
 ---------------------------------------------------------------------
                    Distance matrix (angstroms):
                    1          2          3          4          5
     1  C    0.000000
     2  N    2.961084   0.000000
     3  H    3.191851   1.026773   0.000000
     4  H    1.077033   3.187321   3.710554   0.000000
     5  H    3.191642   1.026779   1.604053   3.284824   0.000000
     6  H    1.077034   3.187323   3.285343   1.855264   3.710420
     7  H    1.078215   3.328163   3.341532   1.861591   3.341578
                    6          7
     6  H    0.000000
     7  H    1.861565   0.000000
 Symmetry turned off by external request.
 Stoichiometry    CH5N
 Framework group  C1[X(CH5N)]
 Deg. of freedom    15
 Full point group                 C1      NOp   1
 Rotational constants (GHZ):          92.1144337           7.0466138           6.9905067
 Leave Link  202 at Mon Apr 21 18:12:04 2025, MaxMem=   536870912 cpu:               0.5 elap:               0.1
 (Enter /home/szhao/Apps/g16/l301.exe)
 Standard basis: 6-311+G(d,p) (5D, 7F)
 Ernie: Thresh=  0.10000D-02 Tol=  0.10000D-05 Strict=F.
    74 basis functions,   112 primitive gaussians,    76 cartesian basis functions
     9 alpha electrons        9 beta electrons
       nuclear repulsion energy        31.0965006252 Hartrees.
 IExCor= 4336 DFT=T Ex+Corr=M062X ExCW=0 ScaHFX=  0.540000
 ScaDFX=  1.000000  1.000000  1.000000  1.000000 ScalE2=  1.000000  1.000000
 IRadAn=      7 IRanWt=     -1 IRanGd=            0 ICorTp=0 IEmpDi=  4
 NAtoms=    7 NActive=    7 NUniq=    7 SFac= 1.00D+00 NAtFMM=   60 NAOKFM=F Big=F
 Integral buffers will be    131072 words long.
 Raffenetti 2 integral format.
 Two-electron integral symmetry is turned off.
 Leave Link  301 at Mon Apr 21 18:12:04 2025, MaxMem=   536870912 cpu:               1.2 elap:               0.2
 (Enter /home/szhao/Apps/g16/l302.exe)
 NPDir=0 NMtPBC=     1 NCelOv=     1 NCel=       1 NClECP=     1 NCelD=      1
         NCelK=      1 NCelE2=     1 NClLst=     1 CellRange=     0.0.
 One-electron integrals computed using PRISM.
 NBasis=    74 RedAO= T EigKep=  2.85D-03  NBF=    74
 NBsUse=    74 1.00D-06 EigRej= -1.00D+00 NBFU=    74
 Precomputing XC quadrature grid using
 IXCGrd= 4 IRadAn=           7 IRanWt=          -1 IRanGd=           0 AccXCQ= 0.00D+00.
 Generated NRdTot=       0 NPtTot=           0 NUsed=           0 NTot=          32
 NSgBfM=    76    76    76    76    76 MxSgAt=     7 MxSgA2=     7.
 Leave Link  302 at Mon Apr 21 18:12:04 2025, MaxMem=   536870912 cpu:               2.1 elap:               0.3
 (Enter /home/szhao/Apps/g16/l303.exe)
 DipDrv:  MaxL=1.
 Leave Link  303 at Mon Apr 21 18:12:05 2025, MaxMem=   536870912 cpu:               0.9 elap:               0.2
 (Enter /home/szhao/Apps/g16/l401.exe)
 Initial guess from the checkpoint file:  "opt.chk"
 B after Tr=     0.020656   -0.009419    0.015970
         Rot=    0.999988   -0.000329    0.004285    0.002526 Ang=  -0.57 deg.
 Guess basis will be translated and rotated to current coordinates.
 JPrj=2 DoOrth=T DoCkMO=T.
 Initial guess <Sx>= 0.0000 <Sy>= 0.0000 <Sz>= 0.0000 <S**2>=-0.0000 S=-0.0000
 Generating alternative initial guess.
 ExpMin= 4.38D-02 ExpMax= 6.29D+03 ExpMxC= 9.49D+02 IAcc=3 IRadAn=         5 AccDes= 0.00D+00
 Harris functional with IExCor= 1009 and IRadAn=       5 diagonalized for initial guess.
 HarFok:  IExCor= 1009 AccDes= 0.00D+00 IRadAn=         5 IDoV= 1 UseB2=F ITyADJ=14
 ICtDFT=  3500011 ScaDFX=  1.000000  1.000000  1.000000  1.000000
 FoFCou: FMM=F IPFlag=           0 FMFlag=      100000 FMFlg1=           0
         NFxFlg=           0 DoJE=T BraDBF=F KetDBF=T FulRan=T
         wScrn=  0.000000 ICntrl=       500 IOpCl=  0 I1Cent=   200000004 NGrid=           0
         NMat0=    1 NMatS0=      1 NMatT0=    0 NMatD0=    1 NMtDS0=    0 NMtDT0=    0
 Symmetry not used in FoFCou.
 Harris En= -95.6642551964090    
 Leave Link  401 at Mon Apr 21 18:12:05 2025, MaxMem=   536870912 cpu:               2.8 elap:               0.4
 (Enter /home/szhao/Apps/g16/l502.exe)
 Keep R1 and R2 ints in memory in canonical form, NReq=14944651.
 FoFCou: FMM=F IPFlag=           0 FMFlag=           0 FMFlg1=           0
         NFxFlg=           0 DoJE=F BraDBF=F KetDBF=F FulRan=T
         wScrn=  0.000000 ICntrl=       600 IOpCl=  0 I1Cent=           0 NGrid=           0
         NMat0=    1 NMatS0=   2775 NMatT0=    0 NMatD0=    1 NMtDS0=    0 NMtDT0=    0
 Symmetry not used in FoFCou.
 Two-electron integral symmetry not used.
 UHF open shell SCF:
 Using DIIS extrapolation, IDIIS=  1040.
 NGot=   536870912 LenX=   529154583 LenY=   529148366
 Requested convergence on RMS density matrix=1.00D-08 within 128 cycles.
 Requested convergence on MAX density matrix=1.00D-06.
 Requested convergence on             energy=1.00D-06.
 No special actions if energy rises.

 Cycle   1  Pass 1  IDiag  1:
 E= -95.6405812839581    
 DIIS: error= 1.13D-02 at cycle   1 NSaved=   1.
 NSaved= 1 IEnMin= 1 EnMin= -95.6405812839581     IErMin= 1 ErrMin= 1.13D-02
 ErrMax= 1.13D-02  0.00D+00 EMaxC= 1.00D-01 BMatC= 3.35D-02 BMatP= 3.35D-02
 IDIUse=3 WtCom= 8.87D-01 WtEn= 1.13D-01
 Coeff-Com:  0.100D+01
 Coeff-En:   0.100D+01
 Coeff:      0.100D+01
 Recover alternate guess density for next cycle.
 RMSDP=3.65D-03 MaxDP=4.90D-02              OVMax= 0.00D+00

 Cycle   2  Pass 1  IDiag  1:
 E= -95.5286807011231     Delta-E=        0.111900582835 Rises=F Damp=F
 Switch densities from cycles 1 and 2 for lowest energy.
 DIIS: error= 5.18D-02 at cycle   2 NSaved=   2.
 NSaved= 2 IEnMin= 1 EnMin= -95.6405812839581     IErMin= 1 ErrMin= 1.13D-02
 ErrMax= 5.18D-02  0.00D+00 EMaxC= 1.00D+00 BMatC= 5.42D-01 BMatP= 3.35D-02
 IDIUse=1 WtCom= 1.00D+00 WtEn= 0.00D+00
 Coeff-Com:  0.959D+00 0.406D-01
 Coeff:      0.959D+00 0.406D-01
 Gap=     0.148 Goal=   None    Shift=    0.000
 Gap=     0.148 Goal=   None    Shift=    0.000
 RMSDP=1.41D-03 MaxDP=1.42D-02 DE= 1.12D-01 OVMax= 2.47D-01

 Cycle   3  Pass 1  IDiag  1:
 E= -95.6513570203441     Delta-E=       -0.122676319221 Rises=F Damp=F
 DIIS: error= 6.24D-03 at cycle   3 NSaved=   3.
 NSaved= 3 IEnMin= 3 EnMin= -95.6513570203441     IErMin= 3 ErrMin= 6.24D-03
 ErrMax= 6.24D-03  0.00D+00 EMaxC= 1.00D+00 BMatC= 9.00D-03 BMatP= 3.35D-02
 IDIUse=1 WtCom= 1.00D+00 WtEn= 0.00D+00
 Coeff-Com:  0.165D-01 0.929D-01 0.891D+00
 Coeff:      0.165D-01 0.929D-01 0.891D+00
 Gap=     0.166 Goal=   None    Shift=    0.000
 Gap=     0.166 Goal=   None    Shift=    0.000
 RMSDP=8.20D-04 MaxDP=1.28D-02 DE=-1.23D-01 OVMax= 7.32D-02

 Cycle   4  Pass 1  IDiag  1:
 E= -95.6513464396352     Delta-E=        0.000010580709 Rises=F Damp=F
 DIIS: error= 9.80D-03 at cycle   4 NSaved=   4.
 NSaved= 4 IEnMin= 3 EnMin= -95.6513570203441     IErMin= 3 ErrMin= 6.24D-03
 ErrMax= 9.80D-03  0.00D+00 EMaxC= 1.00D+00 BMatC= 9.55D-03 BMatP= 9.00D-03
 IDIUse=1 WtCom= 1.00D+00 WtEn= 0.00D+00
 Coeff-Com: -0.634D-01 0.335D-01 0.611D+00 0.419D+00
 Coeff:     -0.634D-01 0.335D-01 0.611D+00 0.419D+00
 Gap=     0.164 Goal=   None    Shift=    0.000
 Gap=     0.164 Goal=   None    Shift=    0.000
 RMSDP=4.62D-04 MaxDP=8.66D-03 DE= 1.06D-05 OVMax= 4.64D-02

 Cycle   5  Pass 1  IDiag  1:
 E= -95.6542443038967     Delta-E=       -0.002897864261 Rises=F Damp=F
 DIIS: error= 1.46D-03 at cycle   5 NSaved=   5.
 NSaved= 5 IEnMin= 5 EnMin= -95.6542443038967     IErMin= 5 ErrMin= 1.46D-03
 ErrMax= 1.46D-03  0.00D+00 EMaxC= 1.00D+00 BMatC= 3.90D-04 BMatP= 9.00D-03
 IDIUse=1 WtCom= 1.00D+00 WtEn= 0.00D+00
 Coeff-Com: -0.151D-01-0.232D-02-0.534D-02 0.166D+00 0.857D+00
 Coeff:     -0.151D-01-0.232D-02-0.534D-02 0.166D+00 0.857D+00
 Gap=     0.166 Goal=   None    Shift=    0.000
 Gap=     0.166 Goal=   None    Shift=    0.000
 RMSDP=1.25D-04 MaxDP=1.41D-03 DE=-2.90D-03 OVMax= 8.68D-03

 Cycle   6  Pass 1  IDiag  1:
 E= -95.6544239480633     Delta-E=       -0.000179644167 Rises=F Damp=F
 DIIS: error= 3.88D-04 at cycle   6 NSaved=   6.
 NSaved= 6 IEnMin= 6 EnMin= -95.6544239480633     IErMin= 6 ErrMin= 3.88D-04
 ErrMax= 3.88D-04  0.00D+00 EMaxC= 1.00D+00 BMatC= 1.21D-05 BMatP= 3.90D-04
 IDIUse=1 WtCom= 1.00D+00 WtEn= 0.00D+00
 Coeff-Com:  0.771D-02-0.340D-02-0.652D-01-0.642D-01-0.120D+00 0.124D+01
 Coeff:      0.771D-02-0.340D-02-0.652D-01-0.642D-01-0.120D+00 0.124D+01
 Gap=     0.166 Goal=   None    Shift=    0.000
 Gap=     0.166 Goal=   None    Shift=    0.000
 RMSDP=7.54D-05 MaxDP=8.95D-04 DE=-1.80D-04 OVMax= 6.98D-03

 Cycle   7  Pass 1  IDiag  1:
 E= -95.6544491481634     Delta-E=       -0.000025200100 Rises=F Damp=F
 DIIS: error= 1.09D-04 at cycle   7 NSaved=   7.
 NSaved= 7 IEnMin= 7 EnMin= -95.6544491481634     IErMin= 7 ErrMin= 1.09D-04
 ErrMax= 1.09D-04  0.00D+00 EMaxC= 1.00D+00 BMatC= 2.20D-06 BMatP= 1.21D-05
 IDIUse=1 WtCom= 1.00D+00 WtEn= 0.00D+00
 Coeff-Com:  0.600D-03 0.907D-03 0.273D-02-0.284D-01-0.954D-01-0.102D+00
 Coeff-Com:  0.122D+01
 Coeff:      0.600D-03 0.907D-03 0.273D-02-0.284D-01-0.954D-01-0.102D+00
 Coeff:      0.122D+01
 Gap=     0.166 Goal=   None    Shift=    0.000
 Gap=     0.166 Goal=   None    Shift=    0.000
 RMSDP=3.24D-05 MaxDP=4.82D-04 DE=-2.52D-05 OVMax= 2.97D-03

 Cycle   8  Pass 1  IDiag  1:
 E= -95.6544523542001     Delta-E=       -0.000003206037 Rises=F Damp=F
 DIIS: error= 4.07D-05 at cycle   8 NSaved=   8.
 NSaved= 8 IEnMin= 8 EnMin= -95.6544523542001     IErMin= 8 ErrMin= 4.07D-05
 ErrMax= 4.07D-05  0.00D+00 EMaxC= 1.00D+00 BMatC= 2.35D-07 BMatP= 2.20D-06
 IDIUse=1 WtCom= 1.00D+00 WtEn= 0.00D+00
 Coeff-Com: -0.366D-03 0.170D-04 0.444D-02 0.237D-02 0.166D-01-0.714D-01
 Coeff-Com: -0.264D-01 0.107D+01
 Coeff:     -0.366D-03 0.170D-04 0.444D-02 0.237D-02 0.166D-01-0.714D-01
 Coeff:     -0.264D-01 0.107D+01
 Gap=     0.166 Goal=   None    Shift=    0.000
 Gap=     0.166 Goal=   None    Shift=    0.000
 RMSDP=5.41D-06 MaxDP=8.00D-05 DE=-3.21D-06 OVMax= 3.36D-04

 Cycle   9  Pass 1  IDiag  1:
 E= -95.6544524706457     Delta-E=       -0.000000116446 Rises=F Damp=F
 DIIS: error= 7.74D-06 at cycle   9 NSaved=   9.
 NSaved= 9 IEnMin= 9 EnMin= -95.6544524706457     IErMin= 9 ErrMin= 7.74D-06
 ErrMax= 7.74D-06  0.00D+00 EMaxC= 1.00D+00 BMatC= 9.58D-09 BMatP= 2.35D-07
 IDIUse=1 WtCom= 1.00D+00 WtEn= 0.00D+00
 Coeff-Com: -0.378D-04-0.299D-04 0.255D-03 0.273D-03 0.302D-02-0.914D-02
 Coeff-Com: -0.394D-01 0.400D-01 0.101D+01
 Coeff:     -0.378D-04-0.299D-04 0.255D-03 0.273D-03 0.302D-02-0.914D-02
 Coeff:     -0.394D-01 0.400D-01 0.101D+01
 Gap=     0.166 Goal=   None    Shift=    0.000
 Gap=     0.166 Goal=   None    Shift=    0.000
 RMSDP=1.65D-06 MaxDP=2.74D-05 DE=-1.16D-07 OVMax= 1.24D-04

 Cycle  10  Pass 1  IDiag  1:
 E= -95.6544524770038     Delta-E=       -0.000000006358 Rises=F Damp=F
 DIIS: error= 1.01D-06 at cycle  10 NSaved=  10.
 NSaved=10 IEnMin=10 EnMin= -95.6544524770038     IErMin=10 ErrMin= 1.01D-06
 ErrMax= 1.01D-06  0.00D+00 EMaxC= 1.00D+00 BMatC= 3.27D-10 BMatP= 9.58D-09
 IDIUse=1 WtCom= 1.00D+00 WtEn= 0.00D+00
 Coeff-Com:  0.162D-04 0.243D-05-0.210D-03-0.152D-03-0.436D-03 0.381D-02
 Coeff-Com:  0.414D-02-0.701D-01 0.786D-01 0.984D+00
 Coeff:      0.162D-04 0.243D-05-0.210D-03-0.152D-03-0.436D-03 0.381D-02
 Coeff:      0.414D-02-0.701D-01 0.786D-01 0.984D+00
 Gap=     0.166 Goal=   None    Shift=    0.000
 Gap=     0.166 Goal=   None    Shift=    0.000
 RMSDP=2.39D-07 MaxDP=3.71D-06 DE=-6.36D-09 OVMax= 1.09D-05

 Cycle  11  Pass 1  IDiag  1:
 E= -95.6544524771529     Delta-E=       -0.000000000149 Rises=F Damp=F
 DIIS: error= 3.67D-07 at cycle  11 NSaved=  11.
 NSaved=11 IEnMin=11 EnMin= -95.6544524771529     IErMin=11 ErrMin= 3.67D-07
 ErrMax= 3.67D-07  0.00D+00 EMaxC= 1.00D+00 BMatC= 1.74D-11 BMatP= 3.27D-10
 IDIUse=1 WtCom= 1.00D+00 WtEn= 0.00D+00
 Coeff-Com: -0.130D-05-0.280D-06 0.872D-05-0.898D-05 0.520D-04-0.265D-03
 Coeff-Com:  0.713D-03 0.372D-03-0.218D-01-0.658D-01 0.109D+01
 Coeff:     -0.130D-05-0.280D-06 0.872D-05-0.898D-05 0.520D-04-0.265D-03
 Coeff:      0.713D-03 0.372D-03-0.218D-01-0.658D-01 0.109D+01
 Gap=     0.166 Goal=   None    Shift=    0.000
 Gap=     0.166 Goal=   None    Shift=    0.000
 RMSDP=4.49D-08 MaxDP=7.01D-07 DE=-1.49D-10 OVMax= 2.07D-06

 Cycle  12  Pass 1  IDiag  1:
 E= -95.6544524771592     Delta-E=       -0.000000000006 Rises=F Damp=F
 DIIS: error= 3.53D-08 at cycle  12 NSaved=  12.
 NSaved=12 IEnMin=12 EnMin= -95.6544524771592     IErMin=12 ErrMin= 3.53D-08
 ErrMax= 3.53D-08  0.00D+00 EMaxC= 1.00D+00 BMatC= 2.19D-13 BMatP= 1.74D-11
 IDIUse=1 WtCom= 1.00D+00 WtEn= 0.00D+00
 Coeff-Com:  0.321D-07 0.996D-08-0.601D-06 0.248D-05 0.114D-04-0.731D-04
 Coeff-Com: -0.501D-04 0.121D-02-0.241D-03-0.169D-01-0.137D-02 0.102D+01
 Coeff:      0.321D-07 0.996D-08-0.601D-06 0.248D-05 0.114D-04-0.731D-04
 Coeff:     -0.501D-04 0.121D-02-0.241D-03-0.169D-01-0.137D-02 0.102D+01
 Gap=     0.166 Goal=   None    Shift=    0.000
 Gap=     0.166 Goal=   None    Shift=    0.000
 RMSDP=5.31D-09 MaxDP=7.75D-08 DE=-6.32D-12 OVMax= 1.84D-07

 SCF Done:  E(UM062X) =  -95.6544524772     A.U. after   12 cycles
            NFock= 12  Conv=0.53D-08     -V/T= 2.0062
 <Sx>= 0.0000 <Sy>= 0.0000 <Sz>= 0.0000 <S**2>=-0.0000 S=-0.0000
 <L.S>=  0.00000000000    
 KE= 9.506516587617D+01 PE=-2.845603281488D+02 EE= 6.274420917026D+01
 Annihilation of the first spin contaminant:
 S**2 before annihilation    -0.0000,   after    -0.0000
 Leave Link  502 at Mon Apr 21 18:12:16 2025, MaxMem=   536870912 cpu:              79.5 elap:              10.3
 (Enter /home/szhao/Apps/g16/l701.exe)
 ... and contract with generalized density number  0.
 Compute integral first derivatives.
 Leave Link  701 at Mon Apr 21 18:12:16 2025, MaxMem=   536870912 cpu:               1.1 elap:               0.2
 (Enter /home/szhao/Apps/g16/l702.exe)
 L702 exits ... SP integral derivatives will be done elsewhere.
 Leave Link  702 at Mon Apr 21 18:12:16 2025, MaxMem=   536870912 cpu:               0.5 elap:               0.1
 (Enter /home/szhao/Apps/g16/l703.exe)
 Integral derivatives from FoFJK, PRISM(SPDF).
 Compute integral first derivatives, UseDBF=F ICtDFT=           0.
 Calling FoFJK, ICntrl=      2127 FMM=F ISym2X=0 I1Cent= 0 IOpClX= 1 NMat=1 NMatS=1 NMatT=0.
 FoFJK:  IHMeth= 1 ICntrl=    2127 DoSepK=F KAlg= 0 I1Cent=           0 FoldK=F
 IRaf=         0 NMat=       1 IRICut=       1 DoRegI=T DoRafI=F ISym2E= 0 IDoP0=0 IntGTp=1.
 FoFCou: FMM=F IPFlag=           0 FMFlag=      100000 FMFlg1=         800
         NFxFlg=           0 DoJE=F BraDBF=F KetDBF=F FulRan=T
         wScrn=  0.000000 ICntrl=      2127 IOpCl=  1 I1Cent=           0 NGrid=           0
         NMat0=    1 NMatS0=      1 NMatT0=    0 NMatD0=    1 NMtDS0=    0 NMtDT0=    0
 Symmetry not used in FoFCou.
 Leave Link  703 at Mon Apr 21 18:12:18 2025, MaxMem=   536870912 cpu:              11.7 elap:               1.5
 (Enter /home/szhao/Apps/g16/l716.exe)
 Dipole        =-1.02553738D+00-3.71880332D-01 6.27735335D-01
 -------------------------------------------------------------------
 Center     Atomic                   Forces (Hartrees/Bohr)
 Number     Number              X              Y              Z
 -------------------------------------------------------------------
      1        6          -0.000000000   -0.000000000   -0.000000000
      2        7          -0.000000000   -0.000000000   -0.000000000
      3        1          -0.002033440    0.000702667   -0.000850016
      4        1           0.000249395    0.002364722   -0.000006902
      5        1          -0.002032294    0.000410516   -0.001028058
      6        1           0.000251483   -0.001125918   -0.002079632
      7        1           0.000190115   -0.001031566    0.001742648
 -------------------------------------------------------------------
 Cartesian Forces:  Max     0.002364722 RMS     0.001115984
 Leave Link  716 at Mon Apr 21 18:12:18 2025, MaxMem=   536870912 cpu:               0.9 elap:               0.2
 (Enter /home/szhao/Apps/g16/l103.exe)

 GradGradGradGradGradGradGradGradGradGradGradGradGradGradGradGradGradGrad
 Berny optimization.
 Using GEDIIS/GDIIS optimizer.
 FormGI is forming the generalized inverse of G from B-inverse, IUseBI=4.
 Internal  Forces:  Max     0.004065733 RMS     0.001624032
 Search for a local minimum.
 Step number   3 out of a maximum of   36
 All quantities printed in internal units (Hartrees-Bohrs-Radians)
 RMS Force = .15522D-02 SwitMx=.10000D-02 MixMth= 1
 Mixed Optimization -- RFO/linear search
 Update second derivatives using D2CorX and points    2    3
 DE= -1.08D-02 DEPred=-1.29D-02 R= 8.41D-01
 TightC=F SS=  1.41D+00  RLast= 4.71D-01 DXNew= 8.4853D-01 1.4123D+00
[...]
 RFO step:  Lambda=-1.83440738D-08.
 NNeg= 0 NGDIIS= 6 SimSw=  2.50D-01 Rises=F DC= -4.86D-07 SmlDif=  1.00D-05
 NRisDI= 0 DoIntr=F SqrtH=F CThrHd= 10.0 CDAdj=  3.0
 RMS Error=  0.1035965966D-03 NUsed= 6 OKEnD=F EnDIS=F
 InvSVX:  RCond= 7.65D-09 Info=           0 Equed=N FErr=  1.22D-12 BErr=  4.05D-17
 DIIS inversion failure, remove point   6.
 InvSVX:  RCond= 9.37D-09 Info=           0 Equed=N FErr=  4.72D-13 BErr=  8.28D-17
 DIIS inversion failure, remove point   5.
 InvSVX:  RCond= 2.52D-08 Info=           0 Equed=N FErr=  1.13D-13 BErr=  1.05D-16
 DIIS inversion failure, remove point   4.
 InvSVX:  RCond= 2.97D-07 Info=           0 Equed=N FErr=  6.80D-15 BErr=  4.29D-17
 RFO-DIIS uses    3 points instead of    6
 DidBck=F Rises=F RFO-DIIS coefs:    1.22564   -0.29467    0.06903    0.00000    0.00000
                  RFO-DIIS coefs:    0.00000
 Iteration  1 RMS(Cart)=  0.00018511 RMS(Int)=  0.00000045
 Iteration  2 RMS(Cart)=  0.00000003 RMS(Int)=  0.00000045
 ITry= 1 IFail=0 DXMaxC= 7.32D-04 DCOld= 1.00D+10 DXMaxT= 8.49D-01 DXLimC= 3.00D+00 Rises=F
 Variable       Old X    -DE/DX   Delta X   Delta X   Delta X     New X
                                 (Linear)    (Quad)   (Total)
    X1       -2.79782   0.00002   0.00000   0.00000   0.00000  -2.79782
    Y1        0.00000   0.00001   0.00000   0.00000   0.00000   0.00000
    Z1        0.00000  -0.00001   0.00000   0.00000   0.00000   0.00000
    X2        2.79782   0.00001  -0.00000   0.00000   0.00000   2.79782
    Y2        0.00000   0.00003   0.00000   0.00000   0.00000   0.00000
    Z2        0.00000  -0.00006   0.00000   0.00000   0.00000   0.00000
    R1        2.04140   0.00003   0.00004   0.00003   0.00007   2.04146
    R2        2.04140   0.00003   0.00004   0.00003   0.00007   2.04146
    R3        2.04258   0.00002   0.00002   0.00004   0.00005   2.04263
    R4        1.93800  -0.00003  -0.00003  -0.00005  -0.00008   1.93792
    R5        1.93800  -0.00003  -0.00003  -0.00005  -0.00008   1.93792
    A1        1.61781  -0.00001  -0.00008   0.00005  -0.00003   1.61778
    A2        1.61769  -0.00001  -0.00008   0.00005  -0.00003   1.61766
    A3        1.72004  -0.00003  -0.00040   0.00003  -0.00037   1.71967
    A4        2.07639  -0.00000   0.00005  -0.00008  -0.00003   2.07637
    A5        2.08633   0.00001   0.00005   0.00002   0.00007   2.08640
    A6        2.08634   0.00001   0.00005   0.00002   0.00007   2.08641
    A7        1.55791   0.00001   0.00013   0.00005   0.00018   1.55809
    A8        1.55786   0.00001   0.00013   0.00005   0.00018   1.55804
    A9        1.80115   0.00001   0.00011   0.00005   0.00016   1.80131
    D1        3.00115   0.00001   0.00003   0.00007   0.00011   3.00125
    D2        1.19979  -0.00000  -0.00007   0.00002  -0.00005   1.19973
    D3       -1.20190   0.00000   0.00007   0.00000   0.00007  -1.20182
    D4       -3.00326  -0.00001  -0.00003  -0.00005  -0.00008  -3.00334
    D5        0.89961   0.00000   0.00005   0.00004   0.00009   0.89971
    D6       -0.90175  -0.00000  -0.00005  -0.00001  -0.00007  -0.90181
         Item               Value     Threshold  Converged?
 Maximum Force            0.000032     0.000450     YES
 RMS     Force            0.000017     0.000300     YES
 Maximum Displacement     0.000732     0.001800     YES
 RMS     Displacement     0.000185     0.001200     YES
 Predicted change in Energy=-1.276705D-08
 Optimization completed.
    -- Stationary point found.
                           ----------------------------
                           !   Optimized Parameters   !
                           ! (Angstroms and Degrees)  !
 --------------------------                            --------------------------
 ! Name  Definition              Value          Derivative Info.                !
 --------------------------------------------------------------------------------
 ! X1    R(1,-1)                -1.4805         -DE/DX =    0.0                 !
 ! Y1    R(1,-2)                 0.0            -DE/DX =    0.0                 !
 ! Z1    R(1,-3)                 0.0            -DE/DX =    0.0                 !
 ! X2    R(2,-1)                 1.4805         -DE/DX =    0.0                 !
 ! Y2    R(2,-2)                 0.0            -DE/DX =    0.0                 !
 ! Z2    R(2,-3)                 0.0            -DE/DX =   -0.0001              !
 ! R1    R(1,4)                  1.0803         -DE/DX =    0.0                 !
 ! R2    R(1,6)                  1.0803         -DE/DX =    0.0                 !
 ! R3    R(1,7)                  1.0809         -DE/DX =    0.0                 !
 ! R4    R(2,3)                  1.0255         -DE/DX =    0.0                 !
 ! R5    R(2,5)                  1.0255         -DE/DX =    0.0                 !
 ! A1    A(2,1,4)               92.6938         -DE/DX =    0.0                 !
 ! A2    A(2,1,6)               92.6866         -DE/DX =    0.0                 !
 ! A3    A(2,1,7)               98.5511         -DE/DX =    0.0                 !
 ! A4    A(4,1,6)              118.9685         -DE/DX =    0.0                 !
 ! A5    A(4,1,7)              119.5379         -DE/DX =    0.0                 !
 ! A6    A(6,1,7)              119.5383         -DE/DX =    0.0                 !
 ! A7    A(1,2,3)               89.2617         -DE/DX =    0.0                 !
 ! A8    A(1,2,5)               89.2589         -DE/DX =    0.0                 !
 ! A9    A(3,2,5)              103.1984         -DE/DX =    0.0                 !
 ! D1    D(4,1,2,3)            171.9531         -DE/DX =    0.0                 !
 ! D2    D(4,1,2,5)             68.7426         -DE/DX =    0.0                 !
 ! D3    D(6,1,2,3)            -68.8636         -DE/DX =    0.0                 !
 ! D4    D(6,1,2,5)           -172.0741         -DE/DX =    0.0                 !
 ! D5    D(7,1,2,3)             51.5441         -DE/DX =    0.0                 !
 ! D6    D(7,1,2,5)            -51.6663         -DE/DX =    0.0                 !
 --------------------------------------------------------------------------------
 Lowest energy point so far.  Saving SCF results.
 Largest change from initial coordinates is atom    5       0.312 Angstoms.
 GradGradGradGradGradGradGradGradGradGradGradGradGradGradGradGradGradGrad

 Leave Link  103 at Mon Apr 21 18:13:38 2025, MaxMem=   536870912 cpu:               1.3 elap:               0.2
 (Enter /home/szhao/Apps/g16/l202.exe)
                          Input orientation:                          
 ---------------------------------------------------------------------
 Center     Atomic      Atomic             Coordinates (Angstroms)
 Number     Number       Type             X           Y           Z
 ---------------------------------------------------------------------
      1          6           0       -1.480542    0.000000    0.000000
      2          7           0        1.480542    0.000000    0.000000
      3          1           0        1.467328   -1.016049    0.138625
      4          1           0       -1.531313    1.079054    0.005231
      5          1           0        1.467278    0.367152    0.957481
      6          1           0       -1.531176   -0.521589   -0.944639
      7          1           0       -1.641260   -0.545490    0.919198
 ---------------------------------------------------------------------
                    Distance matrix (angstroms):
                    1          2          3          4          5
     1  C    0.000000
     2  N    2.961084   0.000000
     3  H    3.121139   1.025547   0.000000
     4  H    1.080260   3.199321   3.660477   0.000000
     5  H    3.121092   1.025546   1.607410   3.225699   0.000000
     6  H    1.080260   3.199195   3.226295   1.861266   3.660416
     7  H    1.080886   3.299718   3.239450   1.867235   3.239968
                    6          7
     6  H    0.000000
     7  H    1.867238   0.000000
 Symmetry turned off by external request.
 Stoichiometry    CH5N
 Framework group  C1[X(CH5N)]
 Deg. of freedom    15
 Full point group                 C1      NOp   1
 Rotational constants (GHZ):          91.5461737           7.0926828           7.0359124
 Leave Link  202 at Mon Apr 21 18:13:38 2025, MaxMem=   536870912 cpu:               0.1 elap:               0.1
 (Enter /home/szhao/Apps/g16/l601.exe)
 Copying SCF densities to generalized density rwf, IOpCl= 1 IROHF=0.

 **********************************************************************

            Population analysis using the SCF density.

 **********************************************************************

 Alpha  occ. eigenvalues --  -14.75125 -10.61375  -0.90276  -0.80016  -0.52159
 Alpha  occ. eigenvalues --   -0.51995  -0.50626  -0.36005  -0.27481
 Alpha virt. eigenvalues --   -0.10772   0.01697   0.04844   0.05331   0.06838
 Alpha virt. eigenvalues --    0.10185   0.13303   0.15961   0.16716   0.17432
 Alpha virt. eigenvalues --    0.19494   0.21291   0.22231   0.30426   0.41315
 Alpha virt. eigenvalues --    0.41715   0.47107   0.54852   0.57545   0.63515
 Alpha virt. eigenvalues --    0.64129   0.66236   0.79332   0.80901   0.86175
 Alpha virt. eigenvalues --    0.92437   1.08137   1.08472   1.08877   1.27909
 Alpha virt. eigenvalues --    1.28878   1.42014   1.42097   1.46197   1.48530
 Alpha virt. eigenvalues --    1.53116   1.68054   1.76623   1.87403   1.87811
 Alpha virt. eigenvalues --    1.94616   2.01737   2.01880   2.03430   2.39696
 Alpha virt. eigenvalues --    2.43687   2.43698   2.45719   2.45984   2.55504
 Alpha virt. eigenvalues --    2.55768   2.63873   2.63949   2.68656   2.75781
 Alpha virt. eigenvalues --    2.87007   2.97414   3.12409   3.73141   3.73646
 Alpha virt. eigenvalues --    3.95566   4.31689   4.69370  23.93863  35.56596
  Beta  occ. eigenvalues --  -14.75125 -10.61375  -0.90276  -0.80016  -0.52159
  Beta  occ. eigenvalues --   -0.51995  -0.50626  -0.36005  -0.27481
  Beta virt. eigenvalues --   -0.10772   0.01697   0.04844   0.05331   0.06838
  Beta virt. eigenvalues --    0.10185   0.13303   0.15961   0.16716   0.17432
  Beta virt. eigenvalues --    0.19494   0.21291   0.22231   0.30426   0.41315
  Beta virt. eigenvalues --    0.41715   0.47107   0.54852   0.57545   0.63515
  Beta virt. eigenvalues --    0.64129   0.66236   0.79332   0.80901   0.86175
  Beta virt. eigenvalues --    0.92437   1.08137   1.08472   1.08877   1.27909
  Beta virt. eigenvalues --    1.28878   1.42014   1.42097   1.46197   1.48530
  Beta virt. eigenvalues --    1.53116   1.68054   1.76623   1.87403   1.87811
  Beta virt. eigenvalues --    1.94616   2.01737   2.01880   2.03430   2.39696
  Beta virt. eigenvalues --    2.43687   2.43698   2.45719   2.45984   2.55504
  Beta virt. eigenvalues --    2.55768   2.63873   2.63949   2.68656   2.75781
  Beta virt. eigenvalues --    2.87007   2.97414   3.12409   3.73141   3.73646
  Beta virt. eigenvalues --    3.95566   4.31689   4.69370  23.93863  35.56596
          Condensed to atoms (all electrons):
               1          2          3          4          5          6
     1  C    5.133966   0.143238  -0.006390   0.391479  -0.006390   0.391483
     2  N    0.143238   6.804158   0.334539  -0.007151   0.334538  -0.007157
     3  H   -0.006390   0.334539   0.497329   0.000290  -0.046164   0.000042
     4  H    0.391479  -0.007151   0.000290   0.459818   0.000042  -0.020280
     5  H   -0.006390   0.334538  -0.046164   0.000042   0.497332   0.000291
     6  H    0.391483  -0.007157   0.000042  -0.020280   0.000291   0.459779
     7  H    0.381184  -0.007160  -0.000011  -0.023657  -0.000011  -0.023651
               7
     1  C    0.381184
     2  N   -0.007160
     3  H   -0.000011
     4  H   -0.023657
     5  H   -0.000011
     6  H   -0.023651
     7  H    0.489408
          Atomic-Atomic Spin Densities.
               1          2          3          4          5          6
     1  C    0.000001   0.000000  -0.000000  -0.000000  -0.000000  -0.000000
     2  N    0.000000  -0.000001   0.000000   0.000000   0.000000   0.000000
     3  H   -0.000000   0.000000   0.000000  -0.000000  -0.000000  -0.000000
     4  H   -0.000000   0.000000  -0.000000  -0.000000  -0.000000   0.000000
     5  H   -0.000000   0.000000  -0.000000  -0.000000   0.000000  -0.000000
     6  H   -0.000000   0.000000  -0.000000   0.000000  -0.000000  -0.000000
     7  H   -0.000000   0.000000   0.000000   0.000000   0.000000   0.000000
               7
     1  C   -0.000000
     2  N    0.000000
     3  H    0.000000
     4  H    0.000000
     5  H    0.000000
     6  H    0.000000
     7  H   -0.000000
 Mulliken charges and spin densities:
               1          2
     1  C   -0.428571   0.000001
     2  N   -0.595006  -0.000001
     3  H    0.220364   0.000000
     4  H    0.199459  -0.000000
     5  H    0.220362   0.000000
     6  H    0.199492  -0.000000
     7  H    0.183899  -0.000000
 Sum of Mulliken charges =  -0.00000   0.00000
 Mulliken charges and spin densities with hydrogens summed into heavy atoms:
               1          2
     1  C    0.154280   0.000001
     2  N   -0.154280  -0.000001
 Electronic spatial extent (au):  <R**2>=            195.2000
 Charge=             -0.0000 electrons
 Dipole moment (field-independent basis, Debye):
    X=             -2.7138    Y=             -0.9692    Z=              1.6372  Tot=              3.3143
 Quadrupole moment (field-independent basis, Debye-Ang):
   XX=            -15.2380   YY=            -13.3574   ZZ=            -14.1626
   XY=             -1.5820   XZ=              2.6721   YZ=              0.7340
 Traceless Quadrupole moment (field-independent basis, Debye-Ang):
   XX=             -0.9853   YY=              0.8953   ZZ=              0.0901
   XY=             -1.5820   XZ=              2.6721   YZ=              0.7340
 Octapole moment (field-independent basis, Debye-Ang**2):
  XXX=             -5.4335  YYY=              0.7965  ZZZ=             -0.5651  XYY=              0.2396
  XXY=             -2.3841  XXZ=              4.0268  XZZ=             -0.9914  YZZ=             -0.3655
  YYZ=             -0.1629  XYZ=              1.1223
 Hexadecapole moment (field-independent basis, Debye-Ang**3):
 XXXX=           -236.5005 YYYY=            -24.5877 ZZZZ=            -25.7746 XXXY=             -2.3312
 XXXZ=              3.9372 YYYX=             -2.6430 YYYZ=              0.1677 ZZZX=             -0.0396
 ZZZY=              0.9147 XXYY=            -36.7742 XXZZ=            -38.4185 YYZZ=             -8.7112
 XXYZ=              1.4972 YYXZ=             -0.1397 ZZXY=              2.7492
 N-N= 3.114263271851D+01 E-N=-2.846338464204D+02  KE= 9.505797331129D+01
                          Isotropic Fermi Contact Couplings
        Atom                 a.u.       MegaHertz       Gauss      10(-4) cm-1
     1  C(13)              0.00000       0.00002       0.00001       0.00001
     2  N(14)             -0.00000      -0.00000      -0.00000      -0.00000
     3  H(1)               0.00000       0.00001       0.00000       0.00000
     4  H(1)              -0.00000      -0.00001      -0.00000      -0.00000
     5  H(1)               0.00000       0.00001       0.00000       0.00000
     6  H(1)              -0.00000      -0.00001      -0.00000      -0.00000
     7  H(1)              -0.00000      -0.00001      -0.00000      -0.00000
 --------------------------------------------------------
       Center         ----  Spin Dipole Couplings  ----
                      3XX-RR        3YY-RR        3ZZ-RR
 --------------------------------------------------------
     1   Atom        0.000001     -0.000000     -0.000000
     2   Atom       -0.000001      0.000001      0.000001
     3   Atom        0.000000     -0.000000      0.000000
     4   Atom       -0.000000      0.000000     -0.000000
     5   Atom        0.000000      0.000000     -0.000000
     6   Atom       -0.000000     -0.000000      0.000000
     7   Atom       -0.000000     -0.000000      0.000000
 --------------------------------------------------------
                        XY            XZ            YZ
 --------------------------------------------------------
     1   Atom       -0.000000      0.000000     -0.000000
     2   Atom        0.000000     -0.000000      0.000000
     3   Atom       -0.000000     -0.000000      0.000000
     4   Atom        0.000000      0.000000      0.000000
     5   Atom        0.000000      0.000000     -0.000000
     6   Atom       -0.000000      0.000000      0.000000
     7   Atom        0.000000     -0.000000     -0.000000
 --------------------------------------------------------


 ---------------------------------------------------------------------------------
              Anisotropic Spin Dipole Couplings in Principal Axis System
 ---------------------------------------------------------------------------------

       Atom             a.u.   MegaHertz   Gauss  10(-4) cm-1        Axes

              Baa    -0.0000    -0.000    -0.000    -0.000 -0.0007  0.8551  0.5184
     1 C(13)  Bbb    -0.0000    -0.000    -0.000    -0.000 -0.0615 -0.5175  0.8535
              Bcc     0.0000     0.000     0.000     0.000  0.9981 -0.0314  0.0530
 
              Baa    -0.0000    -0.000    -0.000    -0.000  0.9990 -0.0230  0.0390
     2 N(14)  Bbb     0.0000     0.000     0.000     0.000 -0.0453 -0.5078  0.8603
              Bcc     0.0000     0.000     0.000     0.000  0.0000  0.8612  0.5083
 
              Baa    -0.0000    -0.000    -0.000    -0.000  0.0509  0.9923 -0.1131
     3 H(1)   Bbb     0.0000     0.000     0.000     0.000  0.9975 -0.0449  0.0550
              Bcc     0.0000     0.000     0.000     0.000 -0.0495  0.1156  0.9921
 
              Baa    -0.0000    -0.000    -0.000    -0.000 -0.0734 -0.0037  0.9973
     4 H(1)   Bbb    -0.0000    -0.000    -0.000    -0.000  0.9973 -0.0058  0.0734
              Bcc     0.0000     0.000     0.000     0.000  0.0055  1.0000  0.0041
 
              Baa    -0.0000    -0.000    -0.000    -0.000 -0.0509  0.3781  0.9243
     5 H(1)   Bbb     0.0000     0.000     0.000     0.000  0.9975 -0.0265  0.0658
              Bcc     0.0000     0.000     0.000     0.000  0.0494  0.9254 -0.3758
 
              Baa    -0.0000    -0.000    -0.000    -0.000  0.0733  0.8736 -0.4811
     6 H(1)   Bbb    -0.0000    -0.000    -0.000    -0.000  0.9973 -0.0615  0.0403
              Bcc     0.0000     0.000     0.000     0.000 -0.0056  0.4827  0.8757
 
              Baa    -0.0000    -0.000    -0.000    -0.000 -0.0001  0.8600  0.5103
     7 H(1)   Bbb    -0.0000    -0.000    -0.000    -0.000  0.9979 -0.0330  0.0558
              Bcc     0.0000     0.000     0.000     0.000 -0.0649 -0.5093  0.8582
 

 ---------------------------------------------------------------------------------

 No NMR shielding tensors so no spin-rotation constants.
 Leave Link  601 at Mon Apr 21 18:13:38 2025, MaxMem=   536870912 cpu:               2.1 elap:               0.3
 (Enter /home/szhao/Apps/g16/l9999.exe)
 1\1\GINC-NODE06\FOpt\UM062X\6-311+G(d,p)\C1H5N1\SZHAO\21-Apr-2025\0\\#
 p opt UM062X/6-311+G** nosymm int=superfine\\Title Card Required\\0,1\
 C,-1.48054223,0.,0.\N,1.48054223,0.,0.\H,1.4673275396,-1.0160485403,0.
 1386251343\H,-1.5313129299,1.0790538954,0.0052305996\H,1.467278089,0.3
 671516902,0.9574805313\H,-1.5311764333,-0.5215885785,-0.9446393689\H,-
 1.6412603499,-0.5454902166,0.9191979528\\Version=ES64L-G16RevA.03\HF=-
 95.6547638\S2=0.\S2-1=0.\S2A=0.\RMSD=3.056e-09\RMSF=1.519e-05\Dipole=-
 1.0676908,-0.3813227,0.6441255\Quadrupole=-0.7325646,0.6656127,0.06695
 19,-1.176157,1.9866392,0.5456814\PG=C01 [X(C1H5N1)]\\@


 MODELS ARE TO BE USED, NOT BELIEVED.

    -- PARAPHRASED BY H. THIEL IN "PRINCIPLES OF ECONOMETRICS"
 Job cpu time:       0 days  0 hours 14 minutes  3.9 seconds.
 Elapsed time:       0 days  0 hours  1 minutes 53.2 seconds.
 File lengths (MBytes):  RWF=     22 Int=      0 D2E=      0 Chk=      2 Scr=      2
 Normal termination of Gaussian 16 at Mon Apr 21 18:13:39 2025.
