 Entering Gaussian System, Link 0=g16
 Initial command:
 /home/szhao/Apps/g16/l1.exe "/home/szhao/tmp/Gau-163655.inp" -scrdir="/home/szhao/tmp/"
 Default is to use a total of  16 processors:
                               16 via shared-memory
                                1 via Linda
 Entering Link 1 = /home/szhao/Apps/g16/l1.exe PID=    163656.
  
 Copyright (c) 1988,1990,1992,1993,1995,1998,2003,2009,2016,
            Gaussian, Inc.  All Rights Reserved.
  
 This is part of the Gaussian(R) 16 program.  It is based on
 the Gaussian(R) 09 system (copyright 2009, Gaussian, Inc.),
 the Gaussian(R) 03 system (copyright 2003, Gaussian, Inc.),
 the Gaussian(R) 98 system (copyright 1998, Gaussian, Inc.),
 the Gaussian(R) 94 system (copyright 1995, Gaussian, Inc.),
 the Gaussian 92(TM) system (copyright 1992, Gaussian, Inc.),
 the Gaussian 90(TM) system (copyright 1990, Gaussian, Inc.),
 the Gaussian 88(TM) system (copyright 1988, Gaussian, Inc.),
 the Gaussian 86(TM) system (copyright 1986, Carnegie Mellon
 University), and the Gaussian 82(TM) system (copyright 1983,
 Carnegie Mellon University). Gaussian is a federally registered
 trademark of Gaussian, Inc.
  
 This software contains proprietary and confidential information,
 including trade secrets, belonging to Gaussian, Inc.
  
 This software is provided under written license and may be
 used, copied, transmitted, or stored only in accord with that
 written license.
  
 The following legend is applicable only to US Government
 contracts under FAR:
  
                    RESTRICTED RIGHTS LEGEND
  
 Use, reproduction and disclosure by the US Government is
 subject to restrictions as set forth in subparagraphs (a)
 and (c) of the Commercial Computer Software - Restricted
 Rights clause in FAR 52.227-19.
  
 Gaussian, Inc.
 340 Quinnipiac St., Bldg. 40, Wallingford CT 06492
  
  
 ---------------------------------------------------------------
 Warning -- This program may not be used in any manner that
 competes with the business of Gaussian, Inc. or will provide
 assistance to any competitor of Gaussian, Inc.  The licensee
 of this program is prohibited from giving any competitor of
 Gaussian, Inc. access to this program.  By using this program,
 the user acknowledges that Gaussian, Inc. is engaged in the
 business of creating and licensing software in the field of
 computational chemistry and represents and warrants to the
 licensee that it is not a competitor of Gaussian, Inc. and that
 it will not use this program in any manner prohibited above.
 ---------------------------------------------------------------
  

 Cite this work as:
 Gaussian 16, Revision A.03,
 M. J. Frisch, G. W. Trucks, H. B. Schlegel, G. E. Scuseria, 
 M. A. Robb, J. R. Cheeseman, G. Scalmani, V. Barone, 
 G. A. Petersson, H. Nakatsuji, X. Li, M. Caricato, A. V. Marenich, 
 J. Bloino, B. G. Janesko, R. Gomperts, B. Mennucci, H. P. Hratchian, 
 J. V. Ortiz, A. F. Izmaylov, J. L. Sonnenberg, D. Williams-Young, 
 F. Ding, F. Lipparini, F. Egidi, J. Goings, B. Peng, A. Petrone, 
 T. Henderson, D. Ranasinghe, V. G. Zakrzewski, J. Gao, N. Rega, 
 G. Zheng, W. Liang, M. Hada, M. Ehara, K. Toyota, R. Fukuda, 
 J. Hasegawa, M. Ishida, T. Nakajima, Y. Honda, O. Kitao, H. Nakai, 
 T. Vreven, K. Throssell, J. A. Montgomery, Jr., J. E. Peralta, 
 F. Ogliaro, M. J. Bearpark, J. J. Heyd, E. N. Brothers, K. N. Kudin, 
 V. N. Staroverov, T. A. Keith, R. Kobayashi, J. Normand, 
 K. Raghavachari, A. P. Rendell, J. C. Burant, S. S. Iyengar, 
 J. Tomasi, M. Cossi, J. M. Millam, M. Klene, C. Adamo, R. Cammi, 
 J. W. Ochterski, R. L. Martin, K. Morokuma, O. Farkas, 
 J. B. Foresman, and D. J. Fox, Gaussian, Inc., Wallingford CT, 2016.
 
 ******************************************
 Gaussian 16:  ES64L-G16RevA.03 25-Dec-2016
                21-Apr-2025 
 ******************************************
 %chk=opt.chk
 %mem=4GB
 %nprocshared=8
 Will use up to    8 processors via shared memory.
 --------------------------------------------
 #p opt UM062X/6-311+G** nosymm int=superfine
 --------------------------------------------
 1/18=20,19=15,26=5,38=1/1,3;
 2/9=110,12=2,15=1,17=6,18=5,40=1/2;
 3/5=4,6=6,7=111,11=2,25=1,30=1,71=1,74=-55,75=-7,116=2/1,2,3;
 4//1;
 5/5=2,38=5/2;
 6/7=2,8=2,9=2,10=2,28=1/1;
 7/30=1/1,2,3,16;
 1/18=20,19=15,26=5/3(2);
 2/9=110,15=1/2;
 99//99;
 2/9=110,15=1/2;
 3/5=4,6=6,7=111,11=2,25=1,30=1,71=1,74=-55,75=-7,116=2/1,2,3;
 4/5=5,16=3,69=1/1;
 5/5=2,38=5/2;
 7/30=1/1,2,3,16;
 1/18=20,19=15,26=5/3(-5);
 2/9=110,15=1/2;
 6/7=2,8=2,9=2,10=2,19=2,28=1/1;
 99/9=1/99;
 Leave Link    1 at Mon Apr 21 20:36:01 2025, MaxMem=   536870912 cpu:               2.3 elap:               0.3
 (Enter /home/szhao/Apps/g16/l101.exe)
 -------------------
 Title Card Required
 -------------------
 Symbolic Z-matrix:
 Charge =  1 Multiplicity = 2
 Si                   -1   -1.45297   0.        0. 
 Si                   -1    1.45297   0.        0. 
 H                    0    -2.0244   -1.37463   0. 
 H                    0     2.43931   1.10449   0. 
 
 Add virtual bond connecting atoms Si2        and Si1        Dist= 5.49D+00.
 ITRead=  2  2  0  0
 MicOpt= -2 -2 -1 -1
 NAtoms=      4 NQM=        2 NQMF=       2 NMMI=      0 NMMIF=      0
                NMic=       0 NMicF=      0.
                    Isotopes and Nuclear Properties:
 (Nuclear quadrupole moments (NQMom) in fm**2, nuclear magnetic moments (NMagM)
  in nuclear magnetons)

  Atom         1           2           3           4
 IAtWgt=          28          28           1           1
 AtmWgt=  27.9769284  27.9769284   1.0078250   1.0078250
 NucSpn=           0           0           1           1
 AtZEff=  -0.0000000  -0.0000000  -0.0000000  -0.0000000
 NQMom=    0.0000000   0.0000000   0.0000000   0.0000000
 NMagM=    0.0000000   0.0000000   2.7928460   2.7928460
 AtZNuc=  14.0000000  14.0000000   1.0000000   1.0000000
 Leave Link  101 at Mon Apr 21 20:36:02 2025, MaxMem=   536870912 cpu:               2.5 elap:               0.4
 (Enter /home/szhao/Apps/g16/l103.exe)

 GradGradGradGradGradGradGradGradGradGradGradGradGradGradGradGradGradGrad
 Berny optimization.
 Initialization pass.
                           ----------------------------
                           !    Initial Parameters    !
                           ! (Angstroms and Degrees)  !
 --------------------------                            --------------------------
 ! Name  Definition              Value          Derivative Info.                !
 --------------------------------------------------------------------------------
 ! X1    R(1,-1)                -1.453          Frozen                          !
 ! Y1    R(1,-2)                 0.0            Frozen                          !
 ! Z1    R(1,-3)                 0.0            Frozen                          !
 ! X2    R(2,-1)                 1.453          Frozen                          !
 ! Y2    R(2,-2)                 0.0            Frozen                          !
 ! Z2    R(2,-3)                 0.0            Frozen                          !
 ! R1    R(1,3)                  1.4887         estimate D2E/DX2                !
 ! R2    R(2,4)                  1.4808         estimate D2E/DX2                !
 ! A1    A(2,1,3)              112.5724         estimate D2E/DX2                !
 ! A2    A(1,2,4)              131.7655         estimate D2E/DX2                !
 ! D1    D(3,1,2,4)            180.0            estimate D2E/DX2                !
 --------------------------------------------------------------------------------
 Trust Radius=3.00D-01 FncErr=1.00D-07 GrdErr=1.00D-07 EigMax=2.50D+02 EigMin=1.00D-04
 Number of steps in this run=     21 maximum allowed number of steps=    100.
 GradGradGradGradGradGradGradGradGradGradGradGradGradGradGradGradGradGrad

 Leave Link  103 at Mon Apr 21 20:36:03 2025, MaxMem=   536870912 cpu:               0.4 elap:               0.1
 (Enter /home/szhao/Apps/g16/l202.exe)
                          Input orientation:                          
 ---------------------------------------------------------------------
 Center     Atomic      Atomic             Coordinates (Angstroms)
 Number     Number       Type             X           Y           Z
 ---------------------------------------------------------------------
      1         14           0       -1.452975    0.000000    0.000000
      2         14           0        1.452975    0.000000    0.000000
      3          1           0       -2.024400   -1.374629    0.000000
      4          1           0        2.439306    1.104488    0.000000
 ---------------------------------------------------------------------
                    Distance matrix (angstroms):
                    1          2          3          4
     1  Si   0.000000
     2  Si   2.905949   0.000000
     3  H    1.488667   3.739216   0.000000
     4  H    4.045953   1.480791   5.105946   0.000000
 Symmetry turned off by external request.
 Stoichiometry    H2Si2(1+,2)
 Framework group  CS[SG(H2Si2)]
 Deg. of freedom     5
 Full point group                 CS      NOp   2
 Rotational constants (GHZ):         174.9121184           3.9331129           3.8466170
 Leave Link  202 at Mon Apr 21 20:36:03 2025, MaxMem=   536870912 cpu:               0.2 elap:               0.1
 (Enter /home/szhao/Apps/g16/l301.exe)
 Standard basis: 6-311+G(d,p) (5D, 7F)
 Ernie: Thresh=  0.10000D-02 Tol=  0.10000D-05 Strict=F.
    72 basis functions,   116 primitive gaussians,    74 cartesian basis functions
    15 alpha electrons       14 beta electrons
       nuclear repulsion energy        49.5875181728 Hartrees.
 IExCor= 4336 DFT=T Ex+Corr=M062X ExCW=0 ScaHFX=  0.540000
 ScaDFX=  1.000000  1.000000  1.000000  1.000000 ScalE2=  1.000000  1.000000
 IRadAn=      7 IRanWt=     -1 IRanGd=            0 ICorTp=0 IEmpDi=  4
 NAtoms=    4 NActive=    4 NUniq=    4 SFac= 1.00D+00 NAtFMM=   60 NAOKFM=F Big=F
 Integral buffers will be    131072 words long.
 Raffenetti 2 integral format.
 Two-electron integral symmetry is turned off.
 Leave Link  301 at Mon Apr 21 20:36:03 2025, MaxMem=   536870912 cpu:               0.5 elap:               0.1
 (Enter /home/szhao/Apps/g16/l302.exe)
 NPDir=0 NMtPBC=     1 NCelOv=     1 NCel=       1 NClECP=     1 NCelD=      1
         NCelK=      1 NCelE2=     1 NClLst=     1 CellRange=     0.0.
 One-electron integrals computed using PRISM.
 NBasis=    72 RedAO= T EigKep=  4.40D-03  NBF=    72
 NBsUse=    72 1.00D-06 EigRej= -1.00D+00 NBFU=    72
 Precomputing XC quadrature grid using
 IXCGrd= 4 IRadAn=           7 IRanWt=          -1 IRanGd=           0 AccXCQ= 0.00D+00.
 Generated NRdTot=       0 NPtTot=           0 NUsed=           0 NTot=          32
 NSgBfM=    70    70    70    70    70 MxSgAt=     4 MxSgA2=     4.
 Leave Link  302 at Mon Apr 21 20:36:04 2025, MaxMem=   536870912 cpu:               1.5 elap:               0.3
 (Enter /home/szhao/Apps/g16/l303.exe)
 DipDrv:  MaxL=1.
 Leave Link  303 at Mon Apr 21 20:36:04 2025, MaxMem=   536870912 cpu:               0.5 elap:               0.1
 (Enter /home/szhao/Apps/g16/l401.exe)
 ExpMin= 3.31D-02 ExpMax= 6.94D+04 ExpMxC= 2.33D+03 IAcc=3 IRadAn=         7 AccDes= 0.00D+00
 Harris functional with IExCor= 1009 and IRadAn=       7 diagonalized for initial guess.
 HarFok:  IExCor= 1009 AccDes= 0.00D+00 IRadAn=         7 IDoV= 1 UseB2=F ITyADJ=14
 ICtDFT=  3500011 ScaDFX=  1.000000  1.000000  1.000000  1.000000
 FoFCou: FMM=F IPFlag=           0 FMFlag=      100000 FMFlg1=           0
         NFxFlg=           0 DoJE=T BraDBF=F KetDBF=T FulRan=T
         wScrn=  0.000000 ICntrl=       500 IOpCl=  0 I1Cent=   200000004 NGrid=           0
         NMat0=    1 NMatS0=      1 NMatT0=    0 NMatD0=    1 NMtDS0=    0 NMtDT0=    0
 Symmetry not used in FoFCou.
 Harris En= -579.479115878643    
 JPrj=0 DoOrth=F DoCkMO=F.
 Initial guess <Sx>= 0.0000 <Sy>= 0.0000 <Sz>= 0.5000 <S**2>= 0.7500 S= 0.5000
 Leave Link  401 at Mon Apr 21 20:36:04 2025, MaxMem=   536870912 cpu:               3.3 elap:               0.5
 (Enter /home/szhao/Apps/g16/l502.exe)
 Keep R1 and R2 ints in memory in canonical form, NReq=14118010.
 FoFCou: FMM=F IPFlag=           0 FMFlag=           0 FMFlg1=           0
         NFxFlg=           0 DoJE=F BraDBF=F KetDBF=F FulRan=T
         wScrn=  0.000000 ICntrl=       600 IOpCl=  0 I1Cent=           0 NGrid=           0
         NMat0=    1 NMatS0=   2628 NMatT0=    0 NMatD0=    1 NMtDS0=    0 NMtDT0=    0
 Symmetry not used in FoFCou.
 Two-electron integral symmetry not used.
 UHF open shell SCF:
 Using DIIS extrapolation, IDIIS=  1040.
 NGot=   536870912 LenX=   529949706 LenY=   529943789
 Requested convergence on RMS density matrix=1.00D-08 within 128 cycles.
 Requested convergence on MAX density matrix=1.00D-06.
 Requested convergence on             energy=1.00D-06.
 No special actions if energy rises.

 Cycle   1  Pass 1  IDiag  1:
 E= -579.647321121124    
 DIIS: error= 2.73D-02 at cycle   1 NSaved=   1.
 NSaved= 1 IEnMin= 1 EnMin= -579.647321121124     IErMin= 1 ErrMin= 2.73D-02
 ErrMax= 2.73D-02  0.00D+00 EMaxC= 1.00D-01 BMatC= 2.32D-01 BMatP= 2.32D-01
 IDIUse=3 WtCom= 7.27D-01 WtEn= 2.73D-01
 Coeff-Com:  0.100D+01
 Coeff-En:   0.100D+01
 Coeff:      0.100D+01
 Gap=     0.107 Goal=   None    Shift=    0.000
 Gap=     0.201 Goal=   None    Shift=    0.000
 GapD=    0.107 DampG=1.000 DampE=0.500 DampFc=0.5000 IDamp=-1.
 Damping current iteration by 5.00D-01
 RMSDP=6.48D-03 MaxDP=1.82D-01              OVMax= 1.63D-01

 Cycle   2  Pass 1  IDiag  1:
 E= -579.673239872731     Delta-E=       -0.025918751607 Rises=F Damp=T
 DIIS: error= 1.43D-02 at cycle   2 NSaved=   2.
 NSaved= 2 IEnMin= 2 EnMin= -579.673239872731     IErMin= 2 ErrMin= 1.43D-02
 ErrMax= 1.43D-02  0.00D+00 EMaxC= 1.00D-01 BMatC= 3.80D-02 BMatP= 2.32D-01
 IDIUse=3 WtCom= 8.57D-01 WtEn= 1.43D-01
 Coeff-Com: -0.451D+00 0.145D+01
 Coeff-En:   0.000D+00 0.100D+01
 Coeff:     -0.386D+00 0.139D+01
 Gap=     0.115 Goal=   None    Shift=    0.000
 Gap=     0.206 Goal=   None    Shift=    0.000
 RMSDP=2.11D-03 MaxDP=6.50D-02 DE=-2.59D-02 OVMax= 9.22D-02

 Cycle   3  Pass 1  IDiag  1:
 E= -579.694634957145     Delta-E=       -0.021395084415 Rises=F Damp=F
 DIIS: error= 5.97D-03 at cycle   3 NSaved=   3.
 NSaved= 3 IEnMin= 3 EnMin= -579.694634957145     IErMin= 3 ErrMin= 5.97D-03
 ErrMax= 5.97D-03  0.00D+00 EMaxC= 1.00D-01 BMatC= 3.82D-03 BMatP= 3.80D-02
 IDIUse=3 WtCom= 9.40D-01 WtEn= 5.97D-02
 Coeff-Com: -0.152D+00 0.390D+00 0.762D+00
 Coeff-En:   0.000D+00 0.000D+00 0.100D+01
 Coeff:     -0.143D+00 0.366D+00 0.776D+00
 Gap=     0.115 Goal=   None    Shift=    0.000
 Gap=     0.197 Goal=   None    Shift=    0.000
 RMSDP=1.22D-03 MaxDP=3.86D-02 DE=-2.14D-02 OVMax= 9.53D-02

 Cycle   4  Pass 1  IDiag  1:
 E= -579.695428168525     Delta-E=       -0.000793211380 Rises=F Damp=F
 DIIS: error= 3.76D-03 at cycle   4 NSaved=   4.
 NSaved= 4 IEnMin= 4 EnMin= -579.695428168525     IErMin= 4 ErrMin= 3.76D-03
 ErrMax= 3.76D-03  0.00D+00 EMaxC= 1.00D-01 BMatC= 2.79D-03 BMatP= 3.82D-03
 IDIUse=3 WtCom= 9.62D-01 WtEn= 3.76D-02
 Coeff-Com: -0.333D-01 0.547D-01 0.470D+00 0.509D+00
 Coeff-En:   0.000D+00 0.000D+00 0.401D+00 0.599D+00
 Coeff:     -0.320D-01 0.527D-01 0.467D+00 0.512D+00
 Gap=     0.116 Goal=   None    Shift=    0.000
 Gap=     0.199 Goal=   None    Shift=    0.000
 RMSDP=5.73D-04 MaxDP=1.39D-02 DE=-7.93D-04 OVMax= 3.03D-02

 Cycle   5  Pass 1  IDiag  1:
 E= -579.696918032254     Delta-E=       -0.001489863729 Rises=F Damp=F
 DIIS: error= 4.91D-04 at cycle   5 NSaved=   5.
 NSaved= 5 IEnMin= 5 EnMin= -579.696918032254     IErMin= 5 ErrMin= 4.91D-04
 ErrMax= 4.91D-04  0.00D+00 EMaxC= 1.00D-01 BMatC= 2.41D-05 BMatP= 2.79D-03
 IDIUse=3 WtCom= 9.95D-01 WtEn= 4.91D-03
 Coeff-Com:  0.199D-02-0.712D-02-0.218D-01-0.420D-01 0.107D+01
 Coeff-En:   0.000D+00 0.000D+00 0.000D+00 0.000D+00 0.100D+01
 Coeff:      0.198D-02-0.708D-02-0.217D-01-0.418D-01 0.107D+01
 Gap=     0.116 Goal=   None    Shift=    0.000
 Gap=     0.198 Goal=   None    Shift=    0.000
 RMSDP=1.44D-04 MaxDP=4.60D-03 DE=-1.49D-03 OVMax= 1.27D-02

 Cycle   6  Pass 1  IDiag  1:
 E= -579.696985518239     Delta-E=       -0.000067485985 Rises=F Damp=F
 DIIS: error= 2.86D-04 at cycle   6 NSaved=   6.
 NSaved= 6 IEnMin= 6 EnMin= -579.696985518239     IErMin= 6 ErrMin= 2.86D-04
 ErrMax= 2.86D-04  0.00D+00 EMaxC= 1.00D-01 BMatC= 1.46D-05 BMatP= 2.41D-05
 IDIUse=3 WtCom= 9.97D-01 WtEn= 2.86D-03
 Coeff-Com:  0.599D-02-0.102D-01-0.509D-01-0.980D-01-0.103D+00 0.126D+01
 Coeff-En:   0.000D+00 0.000D+00 0.000D+00 0.000D+00 0.000D+00 0.100D+01
 Coeff:      0.597D-02-0.102D-01-0.507D-01-0.977D-01-0.103D+00 0.126D+01
 Gap=     0.117 Goal=   None    Shift=    0.000
 Gap=     0.199 Goal=   None    Shift=    0.000
 RMSDP=1.47D-04 MaxDP=4.12D-03 DE=-6.75D-05 OVMax= 1.23D-02

 Cycle   7  Pass 1  IDiag  1:
 E= -579.697036778220     Delta-E=       -0.000051259981 Rises=F Damp=F
 DIIS: error= 2.27D-04 at cycle   7 NSaved=   7.
 NSaved= 7 IEnMin= 7 EnMin= -579.697036778220     IErMin= 7 ErrMin= 2.27D-04
 ErrMax= 2.27D-04  0.00D+00 EMaxC= 1.00D-01 BMatC= 7.37D-06 BMatP= 1.46D-05
 IDIUse=3 WtCom= 9.98D-01 WtEn= 2.27D-03
 Coeff-Com: -0.108D-02 0.282D-02 0.391D-01 0.226D-01-0.256D+00-0.570D+00
 Coeff-Com:  0.176D+01
 Coeff-En:   0.000D+00 0.000D+00 0.000D+00 0.000D+00 0.000D+00 0.000D+00
 Coeff-En:   0.100D+01
 Coeff:     -0.108D-02 0.281D-02 0.390D-01 0.226D-01-0.256D+00-0.568D+00
 Coeff:      0.176D+01
 Gap=     0.117 Goal=   None    Shift=    0.000
 Gap=     0.199 Goal=   None    Shift=    0.000
 RMSDP=1.75D-04 MaxDP=4.74D-03 DE=-5.13D-05 OVMax= 1.46D-02

 Cycle   8  Pass 1  IDiag  1:
 E= -579.697078408786     Delta-E=       -0.000041630565 Rises=F Damp=F
 DIIS: error= 1.56D-04 at cycle   8 NSaved=   8.
 NSaved= 8 IEnMin= 8 EnMin= -579.697078408786     IErMin= 8 ErrMin= 1.56D-04
 ErrMax= 1.56D-04  0.00D+00 EMaxC= 1.00D-01 BMatC= 2.71D-06 BMatP= 7.37D-06
 IDIUse=3 WtCom= 9.98D-01 WtEn= 1.56D-03
 Coeff-Com: -0.412D-02 0.715D-02 0.251D-01 0.337D-01 0.177D+00-0.632D+00
 Coeff-Com: -0.519D+00 0.191D+01
 Coeff-En:   0.000D+00 0.000D+00 0.000D+00 0.000D+00 0.000D+00 0.000D+00
 Coeff-En:   0.000D+00 0.100D+01
 Coeff:     -0.411D-02 0.714D-02 0.251D-01 0.337D-01 0.177D+00-0.631D+00
 Coeff:     -0.518D+00 0.191D+01
 Gap=     0.117 Goal=   None    Shift=    0.000
 Gap=     0.199 Goal=   None    Shift=    0.000
 RMSDP=1.91D-04 MaxDP=4.97D-03 DE=-4.16D-05 OVMax= 1.52D-02

 Cycle   9  Pass 1  IDiag  1:
 E= -579.697102212087     Delta-E=       -0.000023803302 Rises=F Damp=F
 DIIS: error= 7.48D-05 at cycle   9 NSaved=   9.
 NSaved= 9 IEnMin= 9 EnMin= -579.697102212087     IErMin= 9 ErrMin= 7.48D-05
 ErrMax= 7.48D-05  0.00D+00 EMaxC= 1.00D-01 BMatC= 7.38D-07 BMatP= 2.71D-06
 IDIUse=1 WtCom= 1.00D+00 WtEn= 0.00D+00
 Coeff-Com:  0.346D-02-0.598D-02-0.276D-01-0.315D-01-0.455D-01 0.553D+00
 Coeff-Com:  0.100D+00-0.151D+01 0.196D+01
 Coeff:      0.346D-02-0.598D-02-0.276D-01-0.315D-01-0.455D-01 0.553D+00
 Coeff:      0.100D+00-0.151D+01 0.196D+01
 Gap=     0.117 Goal=   None    Shift=    0.000
 Gap=     0.199 Goal=   None    Shift=    0.000
 RMSDP=6.84D-05 MaxDP=1.20D-03 DE=-2.38D-05 OVMax= 5.12D-03

 Cycle  10  Pass 1  IDiag  1:
 E= -579.697108016332     Delta-E=       -0.000005804245 Rises=F Damp=F
 DIIS: error= 6.32D-05 at cycle  10 NSaved=  10.
 NSaved=10 IEnMin=10 EnMin= -579.697108016332     IErMin=10 ErrMin= 6.32D-05
 ErrMax= 6.32D-05  0.00D+00 EMaxC= 1.00D-01 BMatC= 4.59D-07 BMatP= 7.38D-07
 IDIUse=1 WtCom= 1.00D+00 WtEn= 0.00D+00
 Coeff-Com: -0.579D-03 0.838D-03 0.121D-01 0.582D-02-0.699D-01-0.924D-01
 Coeff-Com:  0.136D+00 0.245D+00-0.150D+01 0.226D+01
 Coeff:     -0.579D-03 0.838D-03 0.121D-01 0.582D-02-0.699D-01-0.924D-01
 Coeff:      0.136D+00 0.245D+00-0.150D+01 0.226D+01
 Gap=     0.117 Goal=   None    Shift=    0.000
 Gap=     0.200 Goal=   None    Shift=    0.000
 RMSDP=7.81D-05 MaxDP=1.21D-03 DE=-5.80D-06 OVMax= 6.02D-03

 Cycle  11  Pass 1  IDiag  1:
 E= -579.697112959302     Delta-E=       -0.000004942970 Rises=F Damp=F
 DIIS: error= 4.28D-05 at cycle  11 NSaved=  11.
 NSaved=11 IEnMin=11 EnMin= -579.697112959302     IErMin=11 ErrMin= 4.28D-05
 ErrMax= 4.28D-05  0.00D+00 EMaxC= 1.00D-01 BMatC= 2.31D-07 BMatP= 4.59D-07
 IDIUse=1 WtCom= 1.00D+00 WtEn= 0.00D+00
 Coeff-Com: -0.149D-02 0.277D-02 0.554D-02 0.141D-01 0.514D-01-0.166D+00
 Coeff-Com: -0.118D+00 0.573D+00-0.252D+00-0.144D+01 0.234D+01
 Coeff:     -0.149D-02 0.277D-02 0.554D-02 0.141D-01 0.514D-01-0.166D+00
 Coeff:     -0.118D+00 0.573D+00-0.252D+00-0.144D+01 0.234D+01
 Gap=     0.117 Goal=   None    Shift=    0.000
 Gap=     0.200 Goal=   None    Shift=    0.000
 RMSDP=8.07D-05 MaxDP=1.06D-03 DE=-4.94D-06 OVMax= 5.50D-03

 Cycle  12  Pass 1  IDiag  1:
 E= -579.697116166445     Delta-E=       -0.000003207143 Rises=F Damp=F
 DIIS: error= 1.58D-05 at cycle  12 NSaved=  12.
 NSaved=12 IEnMin=12 EnMin= -579.697116166445     IErMin=12 ErrMin= 1.58D-05
 ErrMax= 1.58D-05  0.00D+00 EMaxC= 1.00D-01 BMatC= 6.10D-08 BMatP= 2.31D-07
 IDIUse=1 WtCom= 1.00D+00 WtEn= 0.00D+00
 Coeff-Com:  0.493D-03-0.794D-03-0.625D-02-0.558D-02 0.285D-01 0.548D-01
 Coeff-Com: -0.411D-01-0.217D+00 0.680D+00-0.687D+00-0.429D+00 0.162D+01
 Coeff:      0.493D-03-0.794D-03-0.625D-02-0.558D-02 0.285D-01 0.548D-01
 Coeff:     -0.411D-01-0.217D+00 0.680D+00-0.687D+00-0.429D+00 0.162D+01
 Gap=     0.117 Goal=   None    Shift=    0.000
 Gap=     0.200 Goal=   None    Shift=    0.000
 RMSDP=4.97D-05 MaxDP=6.95D-04 DE=-3.21D-06 OVMax= 3.58D-03

 Cycle  13  Pass 1  IDiag  1:
 E= -579.697116949442     Delta-E=       -0.000000782997 Rises=F Damp=F
 DIIS: error= 7.41D-06 at cycle  13 NSaved=  13.
 NSaved=13 IEnMin=13 EnMin= -579.697116949442     IErMin=13 ErrMin= 7.41D-06
 ErrMax= 7.41D-06  0.00D+00 EMaxC= 1.00D-01 BMatC= 9.87D-09 BMatP= 6.10D-08
 IDIUse=1 WtCom= 1.00D+00 WtEn= 0.00D+00
 Coeff-Com:  0.163D-03-0.349D-03 0.860D-03-0.640D-03-0.171D-01 0.671D-02
 Coeff-Com:  0.466D-01-0.522D-01-0.150D+00 0.584D+00-0.483D+00-0.552D+00
 Coeff-Com:  0.162D+01
 Coeff:      0.163D-03-0.349D-03 0.860D-03-0.640D-03-0.171D-01 0.671D-02
 Coeff:      0.466D-01-0.522D-01-0.150D+00 0.584D+00-0.483D+00-0.552D+00
 Coeff:      0.162D+01
 Gap=     0.117 Goal=   None    Shift=    0.000
 Gap=     0.200 Goal=   None    Shift=    0.000
 RMSDP=1.51D-05 MaxDP=2.34D-04 DE=-7.83D-07 OVMax= 1.03D-03

 Cycle  14  Pass 1  IDiag  1:
 E= -579.697117020092     Delta-E=       -0.000000070650 Rises=F Damp=F
 DIIS: error= 1.72D-06 at cycle  14 NSaved=  14.
 NSaved=14 IEnMin=14 EnMin= -579.697117020092     IErMin=14 ErrMin= 1.72D-06
 ErrMax= 1.72D-06  0.00D+00 EMaxC= 1.00D-01 BMatC= 4.25D-10 BMatP= 9.87D-09
 IDIUse=1 WtCom= 1.00D+00 WtEn= 0.00D+00
 Coeff-Com: -0.932D-04 0.171D-03 0.452D-03 0.655D-03 0.764D-03-0.815D-02
 Coeff-Com: -0.668D-02 0.348D-01-0.356D-01-0.470D-01 0.117D+00-0.796D-02
 Coeff-Com: -0.333D+00 0.128D+01
 Coeff:     -0.932D-04 0.171D-03 0.452D-03 0.655D-03 0.764D-03-0.815D-02
 Coeff:     -0.668D-02 0.348D-01-0.356D-01-0.470D-01 0.117D+00-0.796D-02
 Coeff:     -0.333D+00 0.128D+01
 Gap=     0.117 Goal=   None    Shift=    0.000
 Gap=     0.200 Goal=   None    Shift=    0.000
 RMSDP=1.84D-06 MaxDP=3.29D-05 DE=-7.07D-08 OVMax= 1.16D-04

 Cycle  15  Pass 1  IDiag  1:
 E= -579.697117021669     Delta-E=       -0.000000001577 Rises=F Damp=F
 DIIS: error= 4.48D-07 at cycle  15 NSaved=  15.
 NSaved=15 IEnMin=15 EnMin= -579.697117021669     IErMin=15 ErrMin= 4.48D-07
 ErrMax= 4.48D-07  0.00D+00 EMaxC= 1.00D-01 BMatC= 5.54D-11 BMatP= 4.25D-10
 IDIUse=1 WtCom= 1.00D+00 WtEn= 0.00D+00
 Coeff-Com: -0.895D-05 0.217D-04-0.128D-03 0.131D-04 0.170D-02 0.277D-04
 Coeff-Com: -0.265D-02 0.130D-02 0.158D-01-0.529D-01 0.421D-01 0.510D-01
 Coeff-Com: -0.150D+00 0.727D-02 0.109D+01
 Coeff:     -0.895D-05 0.217D-04-0.128D-03 0.131D-04 0.170D-02 0.277D-04
 Coeff:     -0.265D-02 0.130D-02 0.158D-01-0.529D-01 0.421D-01 0.510D-01
 Coeff:     -0.150D+00 0.727D-02 0.109D+01
 Gap=     0.117 Goal=   None    Shift=    0.000
 Gap=     0.200 Goal=   None    Shift=    0.000
 RMSDP=3.92D-07 MaxDP=7.86D-06 DE=-1.58D-09 OVMax= 2.65D-05

 Cycle  16  Pass 1  IDiag  1:
 E= -579.697117021788     Delta-E=       -0.000000000119 Rises=F Damp=F
 DIIS: error= 1.49D-07 at cycle  16 NSaved=  16.
 NSaved=16 IEnMin=16 EnMin= -579.697117021788     IErMin=16 ErrMin= 1.49D-07
 ErrMax= 1.49D-07  0.00D+00 EMaxC= 1.00D-01 BMatC= 7.27D-12 BMatP= 5.54D-11
 IDIUse=1 WtCom= 1.00D+00 WtEn= 0.00D+00
 Coeff-Com:  0.994D-05-0.195D-04-0.912D-05-0.579D-04-0.375D-03 0.567D-03
 Coeff-Com:  0.766D-03-0.329D-02 0.132D-02 0.134D-01-0.197D-01-0.800D-02
 Coeff-Com:  0.639D-01-0.150D+00-0.228D+00 0.133D+01
 Coeff:      0.994D-05-0.195D-04-0.912D-05-0.579D-04-0.375D-03 0.567D-03
 Coeff:      0.766D-03-0.329D-02 0.132D-02 0.134D-01-0.197D-01-0.800D-02
 Coeff:      0.639D-01-0.150D+00-0.228D+00 0.133D+01
 Gap=     0.117 Goal=   None    Shift=    0.000
 Gap=     0.200 Goal=   None    Shift=    0.000
 RMSDP=1.98D-07 MaxDP=3.36D-06 DE=-1.19D-10 OVMax= 1.31D-05

 Cycle  17  Pass 1  IDiag  1:
 E= -579.697117021806     Delta-E=       -0.000000000018 Rises=F Damp=F
 DIIS: error= 5.14D-08 at cycle  17 NSaved=  17.
 NSaved=17 IEnMin=17 EnMin= -579.697117021806     IErMin=17 ErrMin= 5.14D-08
 ErrMax= 5.14D-08  0.00D+00 EMaxC= 1.00D-01 BMatC= 6.43D-13 BMatP= 7.27D-12
 IDIUse=1 WtCom= 1.00D+00 WtEn= 0.00D+00
 Coeff-Com: -0.173D-05 0.293D-05 0.179D-04 0.998D-05-0.759D-04-0.570D-04
 Coeff-Com: -0.100D-03 0.862D-03-0.200D-02 0.219D-02 0.226D-03-0.304D-02
 Coeff-Com:  0.519D-03 0.305D-01-0.830D-01-0.192D+00 0.125D+01
 Coeff:     -0.173D-05 0.293D-05 0.179D-04 0.998D-05-0.759D-04-0.570D-04
 Coeff:     -0.100D-03 0.862D-03-0.200D-02 0.219D-02 0.226D-03-0.304D-02
 Coeff:      0.519D-03 0.305D-01-0.830D-01-0.192D+00 0.125D+01
 Gap=     0.117 Goal=   None    Shift=    0.000
 Gap=     0.200 Goal=   None    Shift=    0.000
 RMSDP=3.45D-08 MaxDP=8.31D-07 DE=-1.77D-11 OVMax= 2.38D-06

 Cycle  18  Pass 1  IDiag  1:
 E= -579.697117021808     Delta-E=       -0.000000000002 Rises=F Damp=F
 DIIS: error= 1.52D-08 at cycle  18 NSaved=  18.
 NSaved=18 IEnMin=18 EnMin= -579.697117021808     IErMin=18 ErrMin= 1.52D-08
 ErrMax= 1.52D-08  0.00D+00 EMaxC= 1.00D-01 BMatC= 4.21D-14 BMatP= 6.43D-13
 IDIUse=1 WtCom= 1.00D+00 WtEn= 0.00D+00
 Coeff-Com:  0.282D-06-0.380D-06-0.652D-05-0.313D-05 0.188D-04 0.627D-04
 Coeff-Com:  0.354D-04-0.240D-03 0.453D-03-0.989D-03 0.815D-03 0.980D-03
 Coeff-Com: -0.396D-02 0.717D-02 0.286D-01-0.924D-01-0.747D-01 0.113D+01
 Coeff:      0.282D-06-0.380D-06-0.652D-05-0.313D-05 0.188D-04 0.627D-04
 Coeff:      0.354D-04-0.240D-03 0.453D-03-0.989D-03 0.815D-03 0.980D-03
 Coeff:     -0.396D-02 0.717D-02 0.286D-01-0.924D-01-0.747D-01 0.113D+01
 Gap=     0.117 Goal=   None    Shift=    0.000
 Gap=     0.200 Goal=   None    Shift=    0.000
 RMSDP=8.44D-09 MaxDP=1.38D-07 DE=-1.71D-12 OVMax= 5.73D-07

 SCF Done:  E(UM062X) =  -579.697117022     A.U. after   18 cycles
            NFock= 18  Conv=0.84D-08     -V/T= 2.0016
 <Sx>= 0.0000 <Sy>= 0.0000 <Sz>= 0.5000 <S**2>= 0.7582 S= 0.5041
 <L.S>=  0.00000000000    
 KE= 5.787606079650D+02 PE=-1.473407550515D+03 EE= 2.653623073557D+02
 Annihilation of the first spin contaminant:
 S**2 before annihilation     0.7582,   after     0.7500
 Leave Link  502 at Mon Apr 21 20:36:15 2025, MaxMem=   536870912 cpu:              80.8 elap:              10.7
 (Enter /home/szhao/Apps/g16/l601.exe)
 Copying SCF densities to generalized density rwf, IOpCl= 1 IROHF=0.

 **********************************************************************

            Population analysis using the SCF density.

 **********************************************************************

 Alpha  occ. eigenvalues --  -67.28815 -67.27827  -5.82993  -5.82020  -4.14104
 Alpha  occ. eigenvalues --   -4.13932  -4.13391  -4.13311  -4.13135  -4.12507
 Alpha  occ. eigenvalues --   -0.79976  -0.76079  -0.58495  -0.51605  -0.43606
 Alpha virt. eigenvalues --   -0.31882  -0.29731  -0.23416  -0.12148  -0.11319
 Alpha virt. eigenvalues --   -0.09117  -0.08222  -0.07824  -0.07047  -0.06468
 Alpha virt. eigenvalues --   -0.05679  -0.04918  -0.01977   0.11814   0.13385
 Alpha virt. eigenvalues --    0.13614   0.14080   0.16300   0.17055   0.20495
 Alpha virt. eigenvalues --    0.24607   0.26039   0.28597   0.34521   0.34793
 Alpha virt. eigenvalues --    0.36354   0.37252   0.37334   0.40896   0.41728
 Alpha virt. eigenvalues --    0.56229   0.63045   0.63360   0.98030   0.98540
 Alpha virt. eigenvalues --    0.98972   1.02522   1.03156   1.11165   1.27755
 Alpha virt. eigenvalues --    1.27963   1.28632   1.29462   1.78830   1.79329
 Alpha virt. eigenvalues --    2.40350   2.41636   5.22994   5.25605  11.17133
 Alpha virt. eigenvalues --   11.20336  11.20929  11.21702  11.28765  11.30753
 Alpha virt. eigenvalues --  140.78387 140.82151
  Beta  occ. eigenvalues --  -67.28662 -67.27445  -5.82968  -5.81892  -4.13932
  Beta  occ. eigenvalues --   -4.13639  -4.13355  -4.13021  -4.12369  -4.12286
  Beta  occ. eigenvalues --   -0.77970  -0.74510  -0.57748  -0.50937
  Beta virt. eigenvalues --   -0.30954  -0.29848  -0.24799  -0.22491  -0.13934
  Beta virt. eigenvalues --   -0.12307  -0.09379  -0.08187  -0.07638  -0.07327
  Beta virt. eigenvalues --   -0.06152  -0.04947  -0.04307  -0.03328   0.11294
  Beta virt. eigenvalues --    0.11317   0.12035   0.13023   0.13478   0.14969
  Beta virt. eigenvalues --    0.21184   0.24666   0.25883   0.29155   0.36008
  Beta virt. eigenvalues --    0.37371   0.38864   0.39574   0.41045   0.43304
  Beta virt. eigenvalues --    0.44733   0.57061   0.63541   0.64901   0.97949
  Beta virt. eigenvalues --    0.98934   0.99017   1.02309   1.03843   1.11440
  Beta virt. eigenvalues --    1.28447   1.29001   1.29142   1.29879   1.79247
  Beta virt. eigenvalues --    1.80626   2.40747   2.42015   5.23920   5.26754
  Beta virt. eigenvalues --   11.19017  11.21426  11.22093  11.22580  11.29130
  Beta virt. eigenvalues --   11.31486 140.78793 140.82677
          Condensed to atoms (all electrons):
               1          2          3          4
     1  Si  13.034529   0.129076   0.256489  -0.000274
     2  Si   0.129076  13.107170   0.009755   0.297467
     3  H    0.256489   0.009755   0.768024   0.000100
     4  H   -0.000274   0.297467   0.000100   0.705049
          Atomic-Atomic Spin Densities.
               1          2          3          4
     1  Si   0.283335   0.047677  -0.006340   0.000869
     2  Si   0.047677   0.664064   0.000900  -0.008549
     3  H   -0.006340   0.000900  -0.010136   0.000003
     4  H    0.000869  -0.008549   0.000003  -0.006385
 Mulliken charges and spin densities:
               1          2
     1  Si   0.580180   0.325541
     2  Si   0.456532   0.704093
     3  H   -0.034368  -0.015573
     4  H   -0.002343  -0.014061
 Sum of Mulliken charges =   1.00000   1.00000
 Mulliken charges and spin densities with hydrogens summed into heavy atoms:
               1          2
     1  Si   0.545811   0.309968
     2  Si   0.454189   0.690032
 Electronic spatial extent (au):  <R**2>=            298.6706
 Charge=              1.0000 electrons
 Dipole moment (field-independent basis, Debye):
    X=             -0.1209    Y=             -0.1827    Z=             -0.0000  Tot=              0.2191
 Quadrupole moment (field-independent basis, Debye-Ang):
   XX=             -6.2698   YY=            -24.5563   ZZ=            -23.7699
   XY=              0.0082   XZ=             -0.0000   YZ=              0.0000
 Traceless Quadrupole moment (field-independent basis, Debye-Ang):
   XX=             11.9288   YY=             -6.3576   ZZ=             -5.5712
   XY=              0.0082   XZ=             -0.0000   YZ=              0.0000
 Octapole moment (field-independent basis, Debye-Ang**2):
  XXX=             -2.1660  YYY=              0.9354  ZZZ=             -0.0000  XYY=              1.7359
  XXY=             -1.9442  XXZ=             -0.0000  XZZ=             -2.2655  YZZ=              0.0916
  YYZ=             -0.0000  XYZ=              0.0000
 Hexadecapole moment (field-independent basis, Debye-Ang**3):
 XXXX=           -280.2389 YYYY=            -55.8979 ZZZZ=            -38.8353 XXXY=            -22.7661
 XXXZ=             -0.0000 YYYX=            -12.4759 YYYZ=             -0.0000 ZZZX=             -0.0000
 ZZZY=             -0.0000 XXYY=            -67.6106 XXZZ=            -62.6410 YYZZ=            -16.1310
 XXYZ=              0.0000 YYXZ=             -0.0000 ZZXY=             -4.3978
 N-N= 4.958751817279D+01 E-N=-1.473407550491D+03  KE= 5.787606079650D+02
                          Isotropic Fermi Contact Couplings
        Atom                 a.u.       MegaHertz       Gauss      10(-4) cm-1
     1  Si(29)            -0.04941      43.91528      15.67006      14.64856
     2  Si(29)             0.06369     -56.60129     -20.19675     -18.88016
     3  H(1)              -0.00437     -19.53575      -6.97084      -6.51642
     4  H(1)              -0.00313     -13.98345      -4.98964      -4.66438
 --------------------------------------------------------
       Center         ----  Spin Dipole Couplings  ----
                      3XX-RR        3YY-RR        3ZZ-RR
 --------------------------------------------------------
     1   Atom       -0.297798     -0.404465      0.702263
     2   Atom       -0.735054     -0.598187      1.333241
     3   Atom       -0.002124      0.000604      0.001520
     4   Atom       -0.000817     -0.002055      0.002872
 --------------------------------------------------------
                        XY            XZ            YZ
 --------------------------------------------------------
     1   Atom        0.099314     -0.000000      0.000000
     2   Atom        0.005307      0.000000     -0.000000
     3   Atom        0.007606     -0.000000      0.000000
     4   Atom        0.014953      0.000000      0.000000
 --------------------------------------------------------


 ---------------------------------------------------------------------------------
              Anisotropic Spin Dipole Couplings in Principal Axis System
 ---------------------------------------------------------------------------------

       Atom             a.u.   MegaHertz   Gauss  10(-4) cm-1        Axes

              Baa    -0.4639    49.208    17.559    16.414 -0.5133  0.8582 -0.0000
     1 Si(29) Bbb    -0.2384    25.291     9.024     8.436  0.8582  0.5133  0.0000
              Bcc     0.7023   -74.499   -26.583   -24.850 -0.0000  0.0000  1.0000
 
              Baa    -0.7353    77.999    27.832    26.018  0.9993 -0.0387 -0.0000
     2 Si(29) Bbb    -0.5980    63.436    22.636    21.160  0.0387  0.9993  0.0000
              Bcc     1.3332  -141.436   -50.468   -47.178  0.0000 -0.0000  1.0000
 
              Baa    -0.0085    -4.529    -1.616    -1.511  0.7670 -0.6417  0.0000
     3 H(1)   Bbb     0.0015     0.811     0.289     0.271 -0.0000 -0.0000  1.0000
              Bcc     0.0070     3.718     1.327     1.240  0.6417  0.7670  0.0000
 
              Baa    -0.0164    -8.751    -3.123    -2.919 -0.6923  0.7216 -0.0000
     4 H(1)   Bbb     0.0029     1.532     0.547     0.511 -0.0000 -0.0000  1.0000
              Bcc     0.0135     7.219     2.576     2.408  0.7216  0.6923  0.0000
 

 ---------------------------------------------------------------------------------

 No NMR shielding tensors so no spin-rotation constants.
 Leave Link  601 at Mon Apr 21 20:36:16 2025, MaxMem=   536870912 cpu:               1.9 elap:               0.3
 (Enter /home/szhao/Apps/g16/l701.exe)
 ... and contract with generalized density number  0.
 Compute integral first derivatives.
 Leave Link  701 at Mon Apr 21 20:36:16 2025, MaxMem=   536870912 cpu:               1.1 elap:               0.2
 (Enter /home/szhao/Apps/g16/l702.exe)
 L702 exits ... SP integral derivatives will be done elsewhere.
 Leave Link  702 at Mon Apr 21 20:36:17 2025, MaxMem=   536870912 cpu:               0.6 elap:               0.1
 (Enter /home/szhao/Apps/g16/l703.exe)
 Integral derivatives from FoFJK, PRISM(SPDF).
 Compute integral first derivatives, UseDBF=F ICtDFT=           0.
 Calling FoFJK, ICntrl=      2127 FMM=F ISym2X=0 I1Cent= 0 IOpClX= 1 NMat=1 NMatS=1 NMatT=0.
 FoFJK:  IHMeth= 1 ICntrl=    2127 DoSepK=F KAlg= 0 I1Cent=           0 FoldK=F
 IRaf=         0 NMat=       1 IRICut=       1 DoRegI=T DoRafI=F ISym2E= 0 IDoP0=0 IntGTp=1.
 FoFCou: FMM=F IPFlag=           0 FMFlag=      100000 FMFlg1=         800
         NFxFlg=           0 DoJE=F BraDBF=F KetDBF=F FulRan=T
         wScrn=  0.000000 ICntrl=      2127 IOpCl=  1 I1Cent=           0 NGrid=           0
         NMat0=    1 NMatS0=      1 NMatT0=    0 NMatD0=    1 NMtDS0=    0 NMtDT0=    0
 Symmetry not used in FoFCou.
 Leave Link  703 at Mon Apr 21 20:36:18 2025, MaxMem=   536870912 cpu:               7.8 elap:               1.0
 (Enter /home/szhao/Apps/g16/l716.exe)
 Dipole        =-4.75771972D-02-7.18828332D-02-9.42590397D-14
 -------------------------------------------------------------------
 Center     Atomic                   Forces (Hartrees/Bohr)
 Number     Number              X              Y              Z
 -------------------------------------------------------------------
      1       14          -0.000000000   -0.000000000   -0.000000000
      2       14          -0.000000000   -0.000000000   -0.000000000
      3        1           0.000903753   -0.006077534   -0.000000000
      4        1           0.004269384    0.002999453    0.000000000
 -------------------------------------------------------------------
 Cartesian Forces:  Max     0.006077534 RMS     0.002326971
 Leave Link  716 at Mon Apr 21 20:36:18 2025, MaxMem=   536870912 cpu:               0.9 elap:               0.2
 (Enter /home/szhao/Apps/g16/l103.exe)

 GradGradGradGradGradGradGradGradGradGradGradGradGradGradGradGradGradGrad
 Berny optimization.
 FormGI is forming the generalized inverse of G from B-inverse, IUseBI=4.
 Internal  Forces:  Max     0.008910398 RMS     0.004567544
 Search for a local minimum.
 Step number   1 out of a maximum of   21
 All quantities printed in internal units (Hartrees-Bohrs-Radians)
 RMS Force = .53658D-02 SwitMx=.10000D-02 MixMth= 1
 Mixed Optimization -- RFO/linear search
 Second derivative matrix not updated -- first step.
 The second derivative matrix:
                          X1        Y1        Z1        X2        Y2
           X1           0.50000
           Y1           0.00000   0.50000
           Z1           0.00000   0.00000   0.50000
           X2           0.00000   0.00000   0.00000   0.50000
           Y2           0.00000   0.00000   0.00000   0.00000   0.50000
           Z2           0.00000   0.00000   0.00000   0.00000   0.00000
           R1           0.00000   0.00000   0.00000   0.00000   0.00000
           R2           0.00000   0.00000   0.00000   0.00000   0.00000
           A1           0.00000   0.00000   0.00000   0.00000   0.00000
           A2           0.00000   0.00000   0.00000   0.00000   0.00000
           D1           0.00000   0.00000   0.00000   0.00000   0.00000
                          Z2        R1        R2        A1        A2
           Z2           0.50000
           R1           0.00000   0.17370
           R2           0.00000   0.00000   0.17736
           A1           0.00000   0.00000   0.00000   0.16000
           A2           0.00000   0.00000   0.00000   0.00000   0.16000
           D1           0.00000   0.00000   0.00000   0.00000   0.00000
                          D1
           D1           0.00230
 ITU=  0
     Eigenvalues ---    0.00230   0.16000   0.16000   0.17370   0.17736
     Eigenvalues --- 1000.000001000.000001000.000001000.000001000.00000
     Eigenvalues --- 1000.00000
 RFO step:  Lambda=-8.65730854D-04 EMin= 2.30000000D-03
 Linear search not attempted -- first point.
 Iteration  1 RMS(Cart)=  0.05046351 RMS(Int)=  0.00118515
 Iteration  2 RMS(Cart)=  0.00199330 RMS(Int)=  0.00000167
 Iteration  3 RMS(Cart)=  0.00000245 RMS(Int)=  0.00000000
 Iteration  4 RMS(Cart)=  0.00000000 RMS(Int)=  0.00000000
 ITry= 1 IFail=0 DXMaxC= 1.35D-01 DCOld= 1.00D+10 DXMaxT= 3.00D-01 DXLimC= 3.00D+00 Rises=F
 Variable       Old X    -DE/DX   Delta X   Delta X   Delta X     New X
                                 (Linear)    (Quad)   (Total)
    X1       -2.74572   0.00090   0.00000   0.00000   0.00000  -2.74572
    Y1        0.00000  -0.00710   0.00000   0.00000   0.00000   0.00000
    Z1        0.00000   0.00000   0.00000   0.00000   0.00000   0.00000
    X2        2.74572   0.00427   0.00000   0.00000   0.00000   2.74572
    Y2        0.00000   0.00402   0.00000   0.00000   0.00000   0.00000
    Z2        0.00000   0.00000   0.00000   0.00000   0.00000   0.00000
    R1        2.81317   0.00527   0.00000   0.03016   0.03016   2.84333
    R2        2.79829   0.00508   0.00000   0.02851   0.02851   2.82680
    A1        1.96476  -0.00891   0.00000  -0.05539  -0.05539   1.90937
    A2        2.29974   0.00332   0.00000   0.02064   0.02064   2.32038
    D1        3.14159   0.00000   0.00000   0.00000   0.00000   3.14159
         Item               Value     Threshold  Converged?
 Maximum Force            0.008910     0.000450     NO 
 RMS     Force            0.005366     0.000300     NO 
 Maximum Displacement     0.135451     0.001800     NO 
 RMS     Displacement     0.051898     0.001200     NO 
 Predicted change in Energy=-4.351234D-04
 Lowest energy point so far.  Saving SCF results.
 GradGradGradGradGradGradGradGradGradGradGradGradGradGradGradGradGradGrad

 Leave Link  103 at Mon Apr 21 20:36:19 2025, MaxMem=   536870912 cpu:               1.8 elap:               0.3
 (Enter /home/szhao/Apps/g16/l202.exe)
                          Input orientation:                          
 ---------------------------------------------------------------------
 Center     Atomic      Atomic             Coordinates (Angstroms)
 Number     Number       Type             X           Y           Z
 ---------------------------------------------------------------------
      1         14           0       -1.452975    0.000000    0.000000
      2         14           0        1.452975    0.000000    0.000000
      3          1           0       -1.952722   -1.419210    0.000000
      4          1           0        2.472170    1.094939    0.000000
 ---------------------------------------------------------------------
                    Distance matrix (angstroms):
                    1          2          3          4
     1  Si   0.000000
     2  Si   2.905949   0.000000
     3  H    1.504628   3.689570   0.000000
     4  H    4.075003   1.495878   5.089264   0.000000
 Symmetry turned off by external request.
 Stoichiometry    H2Si2(1+,2)
 Framework group  CS[SG(H2Si2)]
 Deg. of freedom     5
 Full point group                 CS      NOp   2
 Rotational constants (GHZ):         168.8826823           3.9369642           3.8472771
 Leave Link  202 at Mon Apr 21 20:36:19 2025, MaxMem=   536870912 cpu:               0.2 elap:               0.0
 (Enter /home/szhao/Apps/g16/l301.exe)
 Standard basis: 6-311+G(d,p) (5D, 7F)
 Ernie: Thresh=  0.10000D-02 Tol=  0.10000D-05 Strict=F.
    72 basis functions,   116 primitive gaussians,    74 cartesian basis functions
    15 alpha electrons       14 beta electrons
       nuclear repulsion energy        49.4982189368 Hartrees.
 IExCor= 4336 DFT=T Ex+Corr=M062X ExCW=0 ScaHFX=  0.540000
 ScaDFX=  1.000000  1.000000  1.000000  1.000000 ScalE2=  1.000000  1.000000
 IRadAn=      7 IRanWt=     -1 IRanGd=            0 ICorTp=0 IEmpDi=  4
 NAtoms=    4 NActive=    4 NUniq=    4 SFac= 1.00D+00 NAtFMM=   60 NAOKFM=F Big=F
 Integral buffers will be    131072 words long.
 Raffenetti 2 integral format.
 Two-electron integral symmetry is turned off.
 Leave Link  301 at Mon Apr 21 20:36:19 2025, MaxMem=   536870912 cpu:               0.9 elap:               0.2
 (Enter /home/szhao/Apps/g16/l302.exe)
 NPDir=0 NMtPBC=     1 NCelOv=     1 NCel=       1 NClECP=     1 NCelD=      1
         NCelK=      1 NCelE2=     1 NClLst=     1 CellRange=     0.0.
 One-electron integrals computed using PRISM.
 NBasis=    72 RedAO= T EigKep=  4.38D-03  NBF=    72
 NBsUse=    72 1.00D-06 EigRej= -1.00D+00 NBFU=    72
 Precomputing XC quadrature grid using
 IXCGrd= 4 IRadAn=           7 IRanWt=          -1 IRanGd=           0 AccXCQ= 0.00D+00.
 Generated NRdTot=       0 NPtTot=           0 NUsed=           0 NTot=          32
 NSgBfM=    70    70    70    70    70 MxSgAt=     4 MxSgA2=     4.
 Leave Link  302 at Mon Apr 21 20:36:20 2025, MaxMem=   536870912 cpu:               2.5 elap:               0.4
 (Enter /home/szhao/Apps/g16/l303.exe)
 DipDrv:  MaxL=1.
 Leave Link  303 at Mon Apr 21 20:36:20 2025, MaxMem=   536870912 cpu:               0.7 elap:               0.1
 (Enter /home/szhao/Apps/g16/l401.exe)
 Initial guess from the checkpoint file:  "opt.chk"
 B after Tr=     0.006555   -0.003456    0.000000
         Rot=    1.000000    0.000000    0.000000   -0.000893 Ang=  -0.10 deg.
 Guess basis will be translated and rotated to current coordinates.
 JPrj=2 DoOrth=T DoCkMO=T.
 Initial guess <Sx>= 0.0000 <Sy>= 0.0000 <Sz>= 0.5000 <S**2>= 0.7582 S= 0.5041
 Generating alternative initial guess.
 ExpMin= 3.31D-02 ExpMax= 6.94D+04 ExpMxC= 2.33D+03 IAcc=3 IRadAn=         5 AccDes= 0.00D+00
 Harris functional with IExCor= 1009 and IRadAn=       5 diagonalized for initial guess.
 HarFok:  IExCor= 1009 AccDes= 0.00D+00 IRadAn=         5 IDoV= 1 UseB2=F ITyADJ=14
 ICtDFT=  3500011 ScaDFX=  1.000000  1.000000  1.000000  1.000000
 FoFCou: FMM=F IPFlag=           0 FMFlag=      100000 FMFlg1=           0
         NFxFlg=           0 DoJE=T BraDBF=F KetDBF=T FulRan=T
         wScrn=  0.000000 ICntrl=       500 IOpCl=  0 I1Cent=   200000004 NGrid=           0
         NMat0=    1 NMatS0=      1 NMatT0=    0 NMatD0=    1 NMtDS0=    0 NMtDT0=    0
 Symmetry not used in FoFCou.
 Harris En= -579.479363328690    
 Leave Link  401 at Mon Apr 21 20:36:21 2025, MaxMem=   536870912 cpu:               3.4 elap:               0.5
 (Enter /home/szhao/Apps/g16/l502.exe)
 Keep R1 and R2 ints in memory in canonical form, NReq=14118010.
 FoFCou: FMM=F IPFlag=           0 FMFlag=           0 FMFlg1=           0
         NFxFlg=           0 DoJE=F BraDBF=F KetDBF=F FulRan=T
         wScrn=  0.000000 ICntrl=       600 IOpCl=  0 I1Cent=           0 NGrid=           0
         NMat0=    1 NMatS0=   2628 NMatT0=    0 NMatD0=    1 NMtDS0=    0 NMtDT0=    0
 Symmetry not used in FoFCou.
 Two-electron integral symmetry not used.
 UHF open shell SCF:
 Using DIIS extrapolation, IDIIS=  1040.
 NGot=   536870912 LenX=   529949706 LenY=   529943789
 Requested convergence on RMS density matrix=1.00D-08 within 128 cycles.
 Requested convergence on MAX density matrix=1.00D-06.
 Requested convergence on             energy=1.00D-06.
 No special actions if energy rises.

 Cycle   1  Pass 1  IDiag  1:
 E= -579.697405576064    
 DIIS: error= 1.32D-03 at cycle   1 NSaved=   1.
 NSaved= 1 IEnMin= 1 EnMin= -579.697405576064     IErMin= 1 ErrMin= 1.32D-03
 ErrMax= 1.32D-03  0.00D+00 EMaxC= 1.00D-01 BMatC= 4.09D-04 BMatP= 4.09D-04
 IDIUse=3 WtCom= 9.87D-01 WtEn= 1.32D-02
 Coeff-Com:  0.100D+01
 Coeff-En:   0.100D+01
 Coeff:      0.100D+01
 Gap=     0.372 Goal=   None    Shift=    0.000
 Gap=     0.439 Goal=   None    Shift=    0.000
 GapD=    0.372 DampG=1.000 DampE=1.000 DampFc=1.0000 IDamp=-1.
 RMSDP=2.65D-04 MaxDP=3.38D-03              OVMax= 1.44D-02

 Cycle   2  Pass 1  IDiag  1:
 E= -579.697723189899     Delta-E=       -0.000317613835 Rises=F Damp=F
 DIIS: error= 4.44D-04 at cycle   2 NSaved=   2.
 NSaved= 2 IEnMin= 2 EnMin= -579.697723189899     IErMin= 2 ErrMin= 4.44D-04
 ErrMax= 4.44D-04  0.00D+00 EMaxC= 1.00D-01 BMatC= 4.27D-05 BMatP= 4.09D-04
 IDIUse=3 WtCom= 9.96D-01 WtEn= 4.44D-03
 Coeff-Com: -0.980D-01 0.110D+01
 Coeff-En:   0.000D+00 0.100D+01
 Coeff:     -0.975D-01 0.110D+01
 Gap=     0.117 Goal=   None    Shift=    0.000
 Gap=     0.200 Goal=   None    Shift=    0.000
 RMSDP=1.42D-04 MaxDP=3.82D-03 DE=-3.18D-04 OVMax= 1.02D-02

 Cycle   3  Pass 1  IDiag  1:
 E= -579.697773783339     Delta-E=       -0.000050593439 Rises=F Damp=F
 DIIS: error= 3.16D-04 at cycle   3 NSaved=   3.
 NSaved= 3 IEnMin= 3 EnMin= -579.697773783339     IErMin= 3 ErrMin= 3.16D-04
 ErrMax= 3.16D-04  0.00D+00 EMaxC= 1.00D-01 BMatC= 2.92D-05 BMatP= 4.27D-05
 IDIUse=3 WtCom= 9.97D-01 WtEn= 3.16D-03
 Coeff-Com: -0.104D+00 0.519D+00 0.585D+00
 Coeff-En:   0.000D+00 0.000D+00 0.100D+01
 Coeff:     -0.104D+00 0.518D+00 0.586D+00
 Gap=     0.117 Goal=   None    Shift=    0.000
 Gap=     0.201 Goal=   None    Shift=    0.000
 RMSDP=8.55D-05 MaxDP=1.90D-03 DE=-5.06D-05 OVMax= 5.33D-03

 Cycle   4  Pass 1  IDiag  1:
 E= -579.697796756255     Delta-E=       -0.000022972916 Rises=F Damp=F
 DIIS: error= 2.78D-04 at cycle   4 NSaved=   4.
 NSaved= 4 IEnMin= 4 EnMin= -579.697796756255     IErMin= 4 ErrMin= 2.78D-04
 ErrMax= 2.78D-04  0.00D+00 EMaxC= 1.00D-01 BMatC= 5.11D-06 BMatP= 2.92D-05
 IDIUse=3 WtCom= 9.97D-01 WtEn= 2.78D-03
 Coeff-Com: -0.337D-02-0.237D+00 0.144D+00 0.110D+01
 Coeff-En:   0.000D+00 0.000D+00 0.000D+00 0.100D+01
 Coeff:     -0.336D-02-0.236D+00 0.143D+00 0.110D+01
 Gap=     0.117 Goal=   None    Shift=    0.000
 Gap=     0.201 Goal=   None    Shift=    0.000
 RMSDP=6.48D-05 MaxDP=2.00D-03 DE=-2.30D-05 OVMax= 5.86D-03

 Cycle   5  Pass 1  IDiag  1:
 E= -579.697808799992     Delta-E=       -0.000012043737 Rises=F Damp=F
 DIIS: error= 1.05D-04 at cycle   5 NSaved=   5.
 NSaved= 5 IEnMin= 5 EnMin= -579.697808799992     IErMin= 5 ErrMin= 1.05D-04
 ErrMax= 1.05D-04  0.00D+00 EMaxC= 1.00D-01 BMatC= 1.12D-06 BMatP= 5.11D-06
 IDIUse=3 WtCom= 9.99D-01 WtEn= 1.05D-03
 Coeff-Com:  0.156D-01-0.486D-01-0.144D+00 0.130D-01 0.116D+01
 Coeff-En:   0.000D+00 0.000D+00 0.000D+00 0.000D+00 0.100D+01
 Coeff:      0.155D-01-0.485D-01-0.144D+00 0.130D-01 0.116D+01
 Gap=     0.117 Goal=   None    Shift=    0.000
 Gap=     0.201 Goal=   None    Shift=    0.000
 RMSDP=4.31D-05 MaxDP=1.23D-03 DE=-1.20D-05 OVMax= 3.90D-03

 Cycle   6  Pass 1  IDiag  1:
 E= -579.697813350350     Delta-E=       -0.000004550358 Rises=F Damp=F
 DIIS: error= 6.25D-05 at cycle   6 NSaved=   6.
 NSaved= 6 IEnMin= 6 EnMin= -579.697813350350     IErMin= 6 ErrMin= 6.25D-05
 ErrMax= 6.25D-05  0.00D+00 EMaxC= 1.00D-01 BMatC= 7.23D-07 BMatP= 1.12D-06
 IDIUse=1 WtCom= 1.00D+00 WtEn= 0.00D+00
 Coeff-Com: -0.826D-02 0.148D+00-0.130D+00-0.316D+00-0.650D+00 0.196D+01
 Coeff:     -0.826D-02 0.148D+00-0.130D+00-0.316D+00-0.650D+00 0.196D+01
 Gap=     0.117 Goal=   None    Shift=    0.000
 Gap=     0.201 Goal=   None    Shift=    0.000
 RMSDP=6.06D-05 MaxDP=1.72D-03 DE=-4.55D-06 OVMax= 5.47D-03

 Cycle   7  Pass 1  IDiag  1:
 E= -579.697817235469     Delta-E=       -0.000003885119 Rises=F Damp=F
 DIIS: error= 3.14D-05 at cycle   7 NSaved=   7.
 NSaved= 7 IEnMin= 7 EnMin= -579.697817235469     IErMin= 7 ErrMin= 3.14D-05
 ErrMax= 3.14D-05  0.00D+00 EMaxC= 1.00D-01 BMatC= 1.84D-07 BMatP= 7.23D-07
 IDIUse=1 WtCom= 1.00D+00 WtEn= 0.00D+00
 Coeff-Com: -0.628D-02 0.350D-01 0.649D-02 0.375D-01-0.523D+00 0.191D-01
 Coeff-Com:  0.143D+01
 Coeff:     -0.628D-02 0.350D-01 0.649D-02 0.375D-01-0.523D+00 0.191D-01
 Coeff:      0.143D+01
 Gap=     0.117 Goal=   None    Shift=    0.000
 Gap=     0.201 Goal=   None    Shift=    0.000
 RMSDP=4.07D-05 MaxDP=1.14D-03 DE=-3.89D-06 OVMax= 3.61D-03

 Cycle   8  Pass 1  IDiag  1:
 E= -579.697818201897     Delta-E=       -0.000000966428 Rises=F Damp=F
 DIIS: error= 1.07D-05 at cycle   8 NSaved=   8.
 NSaved= 8 IEnMin= 8 EnMin= -579.697818201897     IErMin= 8 ErrMin= 1.07D-05
 ErrMax= 1.07D-05  0.00D+00 EMaxC= 1.00D-01 BMatC= 1.65D-08 BMatP= 1.84D-07
 IDIUse=1 WtCom= 1.00D+00 WtEn= 0.00D+00
 Coeff-Com:  0.124D-02-0.183D-01 0.124D-01 0.468D-01 0.848D-01-0.234D+00
 Coeff-Com:  0.471D-02 0.110D+01
 Coeff:      0.124D-02-0.183D-01 0.124D-01 0.468D-01 0.848D-01-0.234D+00
 Coeff:      0.471D-02 0.110D+01
 Gap=     0.117 Goal=   None    Shift=    0.000
 Gap=     0.201 Goal=   None    Shift=    0.000
 RMSDP=6.24D-06 MaxDP=1.48D-04 DE=-9.66D-07 OVMax= 4.42D-04

 Cycle   9  Pass 1  IDiag  1:
 E= -579.697818273764     Delta-E=       -0.000000071868 Rises=F Damp=F
 DIIS: error= 9.05D-06 at cycle   9 NSaved=   9.
 NSaved= 9 IEnMin= 9 EnMin= -579.697818273764     IErMin= 9 ErrMin= 9.05D-06
 ErrMax= 9.05D-06  0.00D+00 EMaxC= 1.00D-01 BMatC= 1.04D-08 BMatP= 1.65D-08
 IDIUse=1 WtCom= 1.00D+00 WtEn= 0.00D+00
 Coeff-Com:  0.221D-03 0.677D-02-0.117D-01-0.306D-01 0.271D-01 0.101D+00
 Coeff-Com: -0.146D+00-0.659D+00 0.171D+01
 Coeff:      0.221D-03 0.677D-02-0.117D-01-0.306D-01 0.271D-01 0.101D+00
 Coeff:     -0.146D+00-0.659D+00 0.171D+01
 Gap=     0.117 Goal=   None    Shift=    0.000
 Gap=     0.201 Goal=   None    Shift=    0.000
 RMSDP=5.83D-06 MaxDP=9.30D-05 DE=-7.19D-08 OVMax= 4.39D-04

 Cycle  10  Pass 1  IDiag  1:
 E= -579.697818338064     Delta-E=       -0.000000064299 Rises=F Damp=F
 DIIS: error= 7.05D-06 at cycle  10 NSaved=  10.
 NSaved=10 IEnMin=10 EnMin= -579.697818338064     IErMin=10 ErrMin= 7.05D-06
 ErrMax= 7.05D-06  0.00D+00 EMaxC= 1.00D-01 BMatC= 7.07D-09 BMatP= 1.04D-08
 IDIUse=1 WtCom= 1.00D+00 WtEn= 0.00D+00
 Coeff-Com: -0.132D-02 0.106D-01-0.233D-02-0.151D-01-0.876D-01 0.126D+00
 Coeff-Com:  0.977D-01-0.186D+00-0.188D+01 0.294D+01
 Coeff:     -0.132D-02 0.106D-01-0.233D-02-0.151D-01-0.876D-01 0.126D+00
 Coeff:      0.977D-01-0.186D+00-0.188D+01 0.294D+01
 Gap=     0.117 Goal=   None    Shift=    0.000
 Gap=     0.201 Goal=   None    Shift=    0.000
 RMSDP=1.14D-05 MaxDP=1.54D-04 DE=-6.43D-08 OVMax= 8.06D-04

 Cycle  11  Pass 1  IDiag  1:
 E= -579.697818428808     Delta-E=       -0.000000090745 Rises=F Damp=F
 DIIS: error= 4.38D-06 at cycle  11 NSaved=  11.
 NSaved=11 IEnMin=11 EnMin= -579.697818428808     IErMin=11 ErrMin= 4.38D-06
 ErrMax= 4.38D-06  0.00D+00 EMaxC= 1.00D-01 BMatC= 2.80D-09 BMatP= 7.07D-09
 IDIUse=1 WtCom= 1.00D+00 WtEn= 0.00D+00
 Coeff-Com: -0.433D-04-0.545D-02 0.841D-02 0.261D-01-0.248D-01-0.878D-01
 Coeff-Com:  0.791D-01 0.714D+00-0.124D+01-0.311D+00 0.184D+01
 Coeff:     -0.433D-04-0.545D-02 0.841D-02 0.261D-01-0.248D-01-0.878D-01
 Coeff:      0.791D-01 0.714D+00-0.124D+01-0.311D+00 0.184D+01
 Gap=     0.117 Goal=   None    Shift=    0.000
 Gap=     0.201 Goal=   None    Shift=    0.000
 RMSDP=1.06D-05 MaxDP=1.50D-04 DE=-9.07D-08 OVMax= 7.88D-04

 Cycle  12  Pass 1  IDiag  1:
 E= -579.697818466662     Delta-E=       -0.000000037853 Rises=F Damp=F
 DIIS: error= 1.05D-06 at cycle  12 NSaved=  12.
 NSaved=12 IEnMin=12 EnMin= -579.697818466662     IErMin=12 ErrMin= 1.05D-06
 ErrMax= 1.05D-06  0.00D+00 EMaxC= 1.00D-01 BMatC= 3.06D-10 BMatP= 2.80D-09
 IDIUse=1 WtCom= 1.00D+00 WtEn= 0.00D+00
 Coeff-Com:  0.369D-03-0.280D-02 0.167D-03 0.402D-02 0.291D-01-0.379D-01
 Coeff-Com: -0.221D-01 0.234D-02 0.535D+00-0.642D+00-0.260D+00 0.139D+01
 Coeff:      0.369D-03-0.280D-02 0.167D-03 0.402D-02 0.291D-01-0.379D-01
 Coeff:     -0.221D-01 0.234D-02 0.535D+00-0.642D+00-0.260D+00 0.139D+01
 Gap=     0.117 Goal=   None    Shift=    0.000
 Gap=     0.201 Goal=   None    Shift=    0.000
 RMSDP=3.21D-06 MaxDP=4.75D-05 DE=-3.79D-08 OVMax= 2.32D-04

 Cycle  13  Pass 1  IDiag  1:
 E= -579.697818469391     Delta-E=       -0.000000002729 Rises=F Damp=F
 DIIS: error= 2.82D-07 at cycle  13 NSaved=  13.
 NSaved=13 IEnMin=13 EnMin= -579.697818469391     IErMin=13 ErrMin= 2.82D-07
 ErrMax= 2.82D-07  0.00D+00 EMaxC= 1.00D-01 BMatC= 1.76D-11 BMatP= 3.06D-10
 IDIUse=1 WtCom= 1.00D+00 WtEn= 0.00D+00
 Coeff-Com: -0.645D-04 0.941D-03-0.656D-03-0.271D-02-0.382D-02 0.144D-01
 Coeff-Com: -0.178D-02-0.514D-01-0.617D-02 0.132D+00-0.634D-01-0.322D+00
 Coeff-Com:  0.130D+01
 Coeff:     -0.645D-04 0.941D-03-0.656D-03-0.271D-02-0.382D-02 0.144D-01
 Coeff:     -0.178D-02-0.514D-01-0.617D-02 0.132D+00-0.634D-01-0.322D+00
 Coeff:      0.130D+01
 Gap=     0.117 Goal=   None    Shift=    0.000
 Gap=     0.201 Goal=   None    Shift=    0.000
 RMSDP=2.85D-07 MaxDP=4.82D-06 DE=-2.73D-09 OVMax= 1.87D-05

 Cycle  14  Pass 1  IDiag  1:
 E= -579.697818469444     Delta-E=       -0.000000000053 Rises=F Damp=F
 DIIS: error= 1.14D-07 at cycle  14 NSaved=  14.
 NSaved=14 IEnMin=14 EnMin= -579.697818469444     IErMin=14 ErrMin= 1.14D-07
 ErrMax= 1.14D-07  0.00D+00 EMaxC= 1.00D-01 BMatC= 2.07D-12 BMatP= 1.76D-11
 IDIUse=1 WtCom= 1.00D+00 WtEn= 0.00D+00
 Coeff-Com: -0.143D-04-0.196D-04 0.103D-03 0.491D-03-0.148D-02-0.123D-02
 Coeff-Com:  0.366D-02 0.141D-01-0.504D-01 0.191D-01 0.568D-01-0.624D-01
 Coeff-Com: -0.367D+00 0.139D+01
 Coeff:     -0.143D-04-0.196D-04 0.103D-03 0.491D-03-0.148D-02-0.123D-02
 Coeff:      0.366D-02 0.141D-01-0.504D-01 0.191D-01 0.568D-01-0.624D-01
 Coeff:     -0.367D+00 0.139D+01
 Gap=     0.117 Goal=   None    Shift=    0.000
 Gap=     0.201 Goal=   None    Shift=    0.000
 RMSDP=7.09D-08 MaxDP=1.13D-06 DE=-5.29D-11 OVMax= 3.79D-06

 Cycle  15  Pass 1  IDiag  1:
 E= -579.697818469450     Delta-E=       -0.000000000006 Rises=F Damp=F
 DIIS: error= 2.78D-08 at cycle  15 NSaved=  15.
 NSaved=15 IEnMin=15 EnMin= -579.697818469450     IErMin=15 ErrMin= 2.78D-08
 ErrMax= 2.78D-08  0.00D+00 EMaxC= 1.00D-01 BMatC= 1.44D-13 BMatP= 2.07D-12
 IDIUse=1 WtCom= 1.00D+00 WtEn= 0.00D+00
 Coeff-Com:  0.581D-05-0.688D-04 0.448D-04 0.147D-03 0.403D-03-0.104D-02
 Coeff-Com:  0.807D-04 0.138D-02 0.773D-02-0.134D-01-0.237D-02 0.351D-01
 Coeff-Com: -0.747D-01-0.119D+00 0.117D+01
 Coeff:      0.581D-05-0.688D-04 0.448D-04 0.147D-03 0.403D-03-0.104D-02
 Coeff:      0.807D-04 0.138D-02 0.773D-02-0.134D-01-0.237D-02 0.351D-01
 Coeff:     -0.747D-01-0.119D+00 0.117D+01
 Gap=     0.117 Goal=   None    Shift=    0.000
 Gap=     0.201 Goal=   None    Shift=    0.000
 RMSDP=1.98D-08 MaxDP=2.90D-07 DE=-5.57D-12 OVMax= 1.21D-06

 Cycle  16  Pass 1  IDiag  1:
 E= -579.697818469450     Delta-E=        0.000000000000 Rises=F Damp=F
 DIIS: error= 1.02D-08 at cycle  16 NSaved=  16.
 NSaved=16 IEnMin=15 EnMin= -579.697818469450     IErMin=16 ErrMin= 1.02D-08
 ErrMax= 1.02D-08  0.00D+00 EMaxC= 1.00D-01 BMatC= 2.75D-14 BMatP= 1.44D-13
 IDIUse=1 WtCom= 1.00D+00 WtEn= 0.00D+00
 Coeff-Com: -0.485D-07 0.229D-04-0.281D-04-0.801D-04 0.150D-04 0.481D-03
 Coeff-Com: -0.560D-03-0.158D-02 0.217D-02 0.272D-02-0.516D-02-0.519D-02
 Coeff-Com:  0.637D-01-0.129D+00-0.267D+00 0.134D+01
 Coeff:     -0.485D-07 0.229D-04-0.281D-04-0.801D-04 0.150D-04 0.481D-03
 Coeff:     -0.560D-03-0.158D-02 0.217D-02 0.272D-02-0.516D-02-0.519D-02
 Coeff:      0.637D-01-0.129D+00-0.267D+00 0.134D+01
 Gap=     0.117 Goal=   None    Shift=    0.000
 Gap=     0.201 Goal=   None    Shift=    0.000
 RMSDP=8.19D-09 MaxDP=1.52D-07 DE= 1.14D-13 OVMax= 5.48D-07

 SCF Done:  E(UM062X) =  -579.697818469     A.U. after   16 cycles
            NFock= 16  Conv=0.82D-08     -V/T= 2.0017
 <Sx>= 0.0000 <Sy>= 0.0000 <Sz>= 0.5000 <S**2>= 0.7586 S= 0.5043
 <L.S>=  0.00000000000    
 KE= 5.787319841211D+02 PE=-1.473201659580D+03 EE= 2.652736380527D+02
 Annihilation of the first spin contaminant:
 S**2 before annihilation     0.7586,   after     0.7500
 Leave Link  502 at Mon Apr 21 20:36:30 2025, MaxMem=   536870912 cpu:              67.9 elap:               9.0
 (Enter /home/szhao/Apps/g16/l701.exe)
 ... and contract with generalized density number  0.
 Compute integral first derivatives.
 Leave Link  701 at Mon Apr 21 20:36:30 2025, MaxMem=   536870912 cpu:               1.5 elap:               0.2
 (Enter /home/szhao/Apps/g16/l702.exe)
 L702 exits ... SP integral derivatives will be done elsewhere.
 Leave Link  702 at Mon Apr 21 20:36:31 2025, MaxMem=   536870912 cpu:               0.4 elap:               0.2
 (Enter /home/szhao/Apps/g16/l703.exe)
 Integral derivatives from FoFJK, PRISM(SPDF).
 Compute integral first derivatives, UseDBF=F ICtDFT=           0.
 Calling FoFJK, ICntrl=      2127 FMM=F ISym2X=0 I1Cent= 0 IOpClX= 1 NMat=1 NMatS=1 NMatT=0.
 FoFJK:  IHMeth= 1 ICntrl=    2127 DoSepK=F KAlg= 0 I1Cent=           0 FoldK=F
 IRaf=         0 NMat=       1 IRICut=       1 DoRegI=T DoRafI=F ISym2E= 0 IDoP0=0 IntGTp=1.
 FoFCou: FMM=F IPFlag=           0 FMFlag=      100000 FMFlg1=         800
         NFxFlg=           0 DoJE=F BraDBF=F KetDBF=F FulRan=T
         wScrn=  0.000000 ICntrl=      2127 IOpCl=  1 I1Cent=           0 NGrid=           0
         NMat0=    1 NMatS0=      1 NMatT0=    0 NMatD0=    1 NMtDS0=    0 NMtDT0=    0
 Symmetry not used in FoFCou.
 Leave Link  703 at Mon Apr 21 20:36:32 2025, MaxMem=   536870912 cpu:               8.9 elap:               1.2
 (Enter /home/szhao/Apps/g16/l716.exe)
 Dipole        =-4.64390845D-02-7.98158428D-02 1.25240110D-11
 -------------------------------------------------------------------
 Center     Atomic                   Forces (Hartrees/Bohr)
 Number     Number              X              Y              Z
 -------------------------------------------------------------------
      1       14          -0.000000000   -0.000000000   -0.000000000
      2       14          -0.000000000   -0.000000000   -0.000000000
      3        1           0.002676690   -0.000851384    0.000000000
      4        1           0.001045428   -0.001773727    0.000000000
 -------------------------------------------------------------------
 Cartesian Forces:  Max     0.002676690 RMS     0.001005342
 Leave Link  716 at Mon Apr 21 20:36:32 2025, MaxMem=   536870912 cpu:               0.8 elap:               0.1
 (Enter /home/szhao/Apps/g16/l103.exe)

 GradGradGradGradGradGradGradGradGradGradGradGradGradGradGradGradGradGrad
 Berny optimization.
 Using GEDIIS/GDIIS optimizer.
 FormGI is forming the generalized inverse of G from B-inverse, IUseBI=4.
 Internal  Forces:  Max     0.007982697 RMS     0.003117509
 Search for a local minimum.
 Step number   2 out of a maximum of   21
 All quantities printed in internal units (Hartrees-Bohrs-Radians)
 RMS Force = .43636D-02 SwitMx=.10000D-02 MixMth= 1
 Mixed Optimization -- RFO/linear search
 Update second derivatives using D2CorX and points    1    2
 DE= -7.01D-04 DEPred=-4.35D-04 R= 1.61D+00
 TightC=F SS=  1.41D+00  RLast= 7.22D-02 DXNew= 5.0454D-01 2.1668D-01
 Trust test= 1.61D+00 RLast= 7.22D-02 DXMaxT set to 3.00D-01
 The second derivative matrix:
                          X1        Y1        Z1        X2        Y2
           X1           0.50959
           Y1           0.03141   0.60288
           Z1           0.00000   0.00000   0.50000
           X2          -0.01744  -0.05712  -0.00000   0.53172
           Y2          -0.02896  -0.09485  -0.00000   0.05267   0.58746
           Z2           0.00000   0.00000   0.00000  -0.00000  -0.00000
           R1          -0.02895  -0.09481  -0.00000   0.05264   0.08742
           R2          -0.03066  -0.10041  -0.00000   0.05575   0.09258
           A1           0.00502   0.01644   0.00000  -0.00913  -0.01516
           A2           0.01222   0.04003   0.00000  -0.02222  -0.03690
           D1           0.00000   0.00000   0.00000  -0.00000  -0.00000
                          Z2        R1        R2        A1        A2
           Z2           0.50000
           R1          -0.00000   0.22921
           R2          -0.00000   0.06178   0.24567
           A1           0.00000   0.03876   0.03599   0.07143
           A2           0.00000  -0.05698  -0.05845   0.04038   0.16291
           D1           0.00000  -0.00000  -0.00000   0.00000   0.00000
                          D1
           D1           0.00230
 ITU=  1  0
 Use linear search instead of GDIIS.
     Eigenvalues ---    0.00230   0.03107   0.16125   0.17541   0.34149
     Eigenvalues --- 1000.000001000.000001000.000001000.000001000.00000
     Eigenvalues --- 1000.00000
 RFO step:  Lambda=-1.79368159D-03 EMin= 2.30000000D-03
 Quartic linear search produced a step of  1.67680.
 Iteration  1 RMS(Cart)=  0.18824828 RMS(Int)=  0.02411219
 Iteration  2 RMS(Cart)=  0.06094840 RMS(Int)=  0.00195062
 Iteration  3 RMS(Cart)=  0.00206474 RMS(Int)=  0.00000062
 Iteration  4 RMS(Cart)=  0.00000161 RMS(Int)=  0.00000000
 Iteration  5 RMS(Cart)=  0.00000000 RMS(Int)=  0.00000000
 ITry= 1 IFail=0 DXMaxC= 6.66D-01 DCOld= 1.00D+10 DXMaxT= 3.00D-01 DXLimC= 3.00D+00 Rises=F
 Variable       Old X    -DE/DX   Delta X   Delta X   Delta X     New X
                                 (Linear)    (Quad)   (Total)
    X1       -2.74572   0.00268   0.00000   0.00000   0.00000  -2.74572
    Y1        0.00000  -0.00129   0.00000   0.00000   0.00000   0.00000
    Z1        0.00000   0.00000   0.00000   0.00000   0.00000   0.00000
    X2        2.74572   0.00105   0.00000   0.00000   0.00000   2.74572
    Y2        0.00000  -0.00134   0.00000   0.00000   0.00000   0.00000
    Z2        0.00000   0.00000   0.00000   0.00000   0.00000   0.00000
    R1        2.84333  -0.00009   0.05057   0.00980   0.06037   2.90371
    R2        2.82680  -0.00059   0.04780   0.00191   0.04971   2.87651
    A1        1.90937  -0.00798  -0.09288  -0.14955  -0.24243   1.66694
    A2        2.32038   0.00558   0.03461   0.09788   0.13249   2.45287
    D1        3.14159   0.00000   0.00000   0.00000   0.00000   3.14159
         Item               Value     Threshold  Converged?
 Maximum Force            0.007983     0.000450     NO 
 RMS     Force            0.004364     0.000300     NO 
 Maximum Displacement     0.665647     0.001800     NO 
 RMS     Displacement     0.239604     0.001200     NO 
 Predicted change in Energy=-1.343483D-03
 Lowest energy point so far.  Saving SCF results.
 GradGradGradGradGradGradGradGradGradGradGradGradGradGradGradGradGradGrad

 Leave Link  103 at Mon Apr 21 20:36:32 2025, MaxMem=   536870912 cpu:               0.5 elap:               0.1
 (Enter /home/szhao/Apps/g16/l202.exe)
                          Input orientation:                          
 ---------------------------------------------------------------------
 Center     Atomic      Atomic             Coordinates (Angstroms)
 Number     Number       Type             X           Y           Z
 ---------------------------------------------------------------------
      1         14           0       -1.452975    0.000000    0.000000
      2         14           0        1.452975    0.000000    0.000000
      3          1           0       -1.600477   -1.529479    0.000000
      4          1           0        2.628195    0.967422    0.000000
 ---------------------------------------------------------------------
                    Distance matrix (angstroms):
                    1          2          3          4
     1  Si   0.000000
     2  Si   2.905949   0.000000
     3  H    1.536575   3.415095   0.000000
     4  H    4.194264   1.522186   4.910823   0.000000
 Symmetry turned off by external request.
 Stoichiometry    H2Si2(1+,2)
 Framework group  CS[SG(H2Si2)]
 Deg. of freedom     5
 Full point group                 CS      NOp   2
 Rotational constants (GHZ):         163.4788652           3.9527642           3.8594465
 Leave Link  202 at Mon Apr 21 20:36:33 2025, MaxMem=   536870912 cpu:               0.1 elap:               0.1
 (Enter /home/szhao/Apps/g16/l301.exe)
 Standard basis: 6-311+G(d,p) (5D, 7F)
 Ernie: Thresh=  0.10000D-02 Tol=  0.10000D-05 Strict=F.
    72 basis functions,   116 primitive gaussians,    74 cartesian basis functions
    15 alpha electrons       14 beta electrons
       nuclear repulsion energy        49.4237146410 Hartrees.
 IExCor= 4336 DFT=T Ex+Corr=M062X ExCW=0 ScaHFX=  0.540000
 ScaDFX=  1.000000  1.000000  1.000000  1.000000 ScalE2=  1.000000  1.000000
 IRadAn=      7 IRanWt=     -1 IRanGd=            0 ICorTp=0 IEmpDi=  4
 NAtoms=    4 NActive=    4 NUniq=    4 SFac= 1.00D+00 NAtFMM=   60 NAOKFM=F Big=F
 Integral buffers will be    131072 words long.
 Raffenetti 2 integral format.
 Two-electron integral symmetry is turned off.
 Leave Link  301 at Mon Apr 21 20:36:33 2025, MaxMem=   536870912 cpu:               0.5 elap:               0.1
 (Enter /home/szhao/Apps/g16/l302.exe)
 NPDir=0 NMtPBC=     1 NCelOv=     1 NCel=       1 NClECP=     1 NCelD=      1
         NCelK=      1 NCelE2=     1 NClLst=     1 CellRange=     0.0.
 One-electron integrals computed using PRISM.
 NBasis=    72 RedAO= T EigKep=  4.34D-03  NBF=    72
 NBsUse=    72 1.00D-06 EigRej= -1.00D+00 NBFU=    72
 Precomputing XC quadrature grid using
 IXCGrd= 4 IRadAn=           7 IRanWt=          -1 IRanGd=           0 AccXCQ= 0.00D+00.
 Generated NRdTot=       0 NPtTot=           0 NUsed=           0 NTot=          32
 NSgBfM=    72    72    72    72    72 MxSgAt=     4 MxSgA2=     4.
 Leave Link  302 at Mon Apr 21 20:36:33 2025, MaxMem=   536870912 cpu:               1.6 elap:               0.2
 (Enter /home/szhao/Apps/g16/l303.exe)
 DipDrv:  MaxL=1.
 Leave Link  303 at Mon Apr 21 20:36:33 2025, MaxMem=   536870912 cpu:               0.7 elap:               0.1
 (Enter /home/szhao/Apps/g16/l401.exe)
 Initial guess from the checkpoint file:  "opt.chk"
 B after Tr=     0.031952   -0.015082    0.000000
         Rot=    0.999999   -0.000000    0.000000   -0.001583 Ang=  -0.18 deg.
 Guess basis will be translated and rotated to current coordinates.
 JPrj=2 DoOrth=T DoCkMO=T.
 Initial guess <Sx>= 0.0000 <Sy>= 0.0000 <Sz>= 0.5000 <S**2>= 0.7584 S= 0.5042
 Generating alternative initial guess.
 ExpMin= 3.31D-02 ExpMax= 6.94D+04 ExpMxC= 2.33D+03 IAcc=3 IRadAn=         5 AccDes= 0.00D+00
 Harris functional with IExCor= 1009 and IRadAn=       5 diagonalized for initial guess.
 HarFok:  IExCor= 1009 AccDes= 0.00D+00 IRadAn=         5 IDoV= 1 UseB2=F ITyADJ=14
 ICtDFT=  3500011 ScaDFX=  1.000000  1.000000  1.000000  1.000000
 FoFCou: FMM=F IPFlag=           0 FMFlag=      100000 FMFlg1=           0
         NFxFlg=           0 DoJE=T BraDBF=F KetDBF=T FulRan=T
         wScrn=  0.000000 ICntrl=       500 IOpCl=  0 I1Cent=   200000004 NGrid=           0
         NMat0=    1 NMatS0=      1 NMatT0=    0 NMatD0=    1 NMtDS0=    0 NMtDT0=    0
 Symmetry not used in FoFCou.
 Harris En= -579.481093658535    
 Leave Link  401 at Mon Apr 21 20:36:34 2025, MaxMem=   536870912 cpu:               3.2 elap:               0.5
 (Enter /home/szhao/Apps/g16/l502.exe)
 Keep R1 and R2 ints in memory in canonical form, NReq=14118010.
 FoFCou: FMM=F IPFlag=           0 FMFlag=           0 FMFlg1=           0
         NFxFlg=           0 DoJE=F BraDBF=F KetDBF=F FulRan=T
         wScrn=  0.000000 ICntrl=       600 IOpCl=  0 I1Cent=           0 NGrid=           0
         NMat0=    1 NMatS0=   2628 NMatT0=    0 NMatD0=    1 NMtDS0=    0 NMtDT0=    0
 Symmetry not used in FoFCou.
 Two-electron integral symmetry not used.
 UHF open shell SCF:
 Using DIIS extrapolation, IDIIS=  1040.
 NGot=   536870912 LenX=   529949706 LenY=   529943789
 Requested convergence on RMS density matrix=1.00D-08 within 128 cycles.
 Requested convergence on MAX density matrix=1.00D-06.
 Requested convergence on             energy=1.00D-06.
 No special actions if energy rises.

 Cycle   1  Pass 1  IDiag  1:
 E= -579.691519773757    
 DIIS: error= 5.52D-03 at cycle   1 NSaved=   1.
 NSaved= 1 IEnMin= 1 EnMin= -579.691519773757     IErMin= 1 ErrMin= 5.52D-03
 ErrMax= 5.52D-03  0.00D+00 EMaxC= 1.00D-01 BMatC= 6.72D-03 BMatP= 6.72D-03
 IDIUse=3 WtCom= 9.45D-01 WtEn= 5.52D-02
 Coeff-Com:  0.100D+01
 Coeff-En:   0.100D+01
 Coeff:      0.100D+01
 Gap=     0.372 Goal=   None    Shift=    0.000
 Gap=     0.450 Goal=   None    Shift=    0.000
 GapD=    0.372 DampG=1.000 DampE=1.000 DampFc=1.0000 IDamp=-1.
 RMSDP=1.16D-03 MaxDP=1.48D-02              OVMax= 6.80D-02

 Cycle   2  Pass 1  IDiag  1:
 E= -579.697921403020     Delta-E=       -0.006401629263 Rises=F Damp=F
 DIIS: error= 1.88D-03 at cycle   2 NSaved=   2.
 NSaved= 2 IEnMin= 2 EnMin= -579.697921403020     IErMin= 2 ErrMin= 1.88D-03
 ErrMax= 1.88D-03  0.00D+00 EMaxC= 1.00D-01 BMatC= 8.65D-04 BMatP= 6.72D-03
 IDIUse=3 WtCom= 9.81D-01 WtEn= 1.88D-02
 Coeff-Com: -0.171D+00 0.117D+01
 Coeff-En:   0.000D+00 0.100D+01
 Coeff:     -0.168D+00 0.117D+01
 Gap=     0.118 Goal=   None    Shift=    0.000
 Gap=     0.206 Goal=   None    Shift=    0.000
 RMSDP=6.74D-04 MaxDP=1.66D-02 DE=-6.40D-03 OVMax= 4.44D-02

 Cycle   3  Pass 1  IDiag  1:
 E= -579.699061995225     Delta-E=       -0.001140592204 Rises=F Damp=F
 DIIS: error= 1.24D-03 at cycle   3 NSaved=   3.
 NSaved= 3 IEnMin= 3 EnMin= -579.699061995225     IErMin= 3 ErrMin= 1.24D-03
 ErrMax= 1.24D-03  0.00D+00 EMaxC= 1.00D-01 BMatC= 5.69D-04 BMatP= 8.65D-04
 IDIUse=3 WtCom= 9.88D-01 WtEn= 1.24D-02
 Coeff-Com: -0.147D+00 0.573D+00 0.574D+00
 Coeff-En:   0.000D+00 0.000D+00 0.100D+01
 Coeff:     -0.145D+00 0.566D+00 0.579D+00
 Gap=     0.118 Goal=   None    Shift=    0.000
 Gap=     0.209 Goal=   None    Shift=    0.000
 RMSDP=3.61D-04 MaxDP=8.64D-03 DE=-1.14D-03 OVMax= 2.25D-02

 Cycle   4  Pass 1  IDiag  1:
 E= -579.699507619418     Delta-E=       -0.000445624194 Rises=F Damp=F
 DIIS: error= 9.66D-04 at cycle   4 NSaved=   4.
 NSaved= 4 IEnMin= 4 EnMin= -579.699507619418     IErMin= 4 ErrMin= 9.66D-04
 ErrMax= 9.66D-04  0.00D+00 EMaxC= 1.00D-01 BMatC= 7.07D-05 BMatP= 5.69D-04
 IDIUse=3 WtCom= 9.90D-01 WtEn= 9.66D-03
 Coeff-Com:  0.280D-01-0.299D+00 0.450D-01 0.123D+01
 Coeff-En:   0.000D+00 0.000D+00 0.000D+00 0.100D+01
 Coeff:      0.277D-01-0.297D+00 0.446D-01 0.122D+01
 Gap=     0.118 Goal=   None    Shift=    0.000
 Gap=     0.209 Goal=   None    Shift=    0.000
 RMSDP=2.71D-04 MaxDP=7.14D-03 DE=-4.46D-04 OVMax= 2.23D-02

 Cycle   5  Pass 1  IDiag  1:
 E= -579.699697411261     Delta-E=       -0.000189791843 Rises=F Damp=F
 DIIS: error= 4.38D-04 at cycle   5 NSaved=   5.
 NSaved= 5 IEnMin= 5 EnMin= -579.699697411261     IErMin= 5 ErrMin= 4.38D-04
 ErrMax= 4.38D-04  0.00D+00 EMaxC= 1.00D-01 BMatC= 1.24D-05 BMatP= 7.07D-05
 IDIUse=3 WtCom= 9.96D-01 WtEn= 4.38D-03
 Coeff-Com:  0.695D-02 0.498D-03-0.102D+00-0.128D+00 0.122D+01
 Coeff-En:   0.000D+00 0.000D+00 0.000D+00 0.000D+00 0.100D+01
 Coeff:      0.692D-02 0.496D-03-0.102D+00-0.128D+00 0.122D+01
 Gap=     0.119 Goal=   None    Shift=    0.000
 Gap=     0.209 Goal=   None    Shift=    0.000
 RMSDP=1.48D-04 MaxDP=4.40D-03 DE=-1.90D-04 OVMax= 1.44D-02

 Cycle   6  Pass 1  IDiag  1:
 E= -579.699750982271     Delta-E=       -0.000053571010 Rises=F Damp=F
 DIIS: error= 1.89D-04 at cycle   6 NSaved=   6.
 NSaved= 6 IEnMin= 6 EnMin= -579.699750982271     IErMin= 6 ErrMin= 1.89D-04
 ErrMax= 1.89D-04  0.00D+00 EMaxC= 1.00D-01 BMatC= 9.01D-06 BMatP= 1.24D-05
 IDIUse=3 WtCom= 9.98D-01 WtEn= 1.89D-03
 Coeff-Com: -0.183D-01 0.172D+00-0.101D+00-0.401D+00-0.580D+00 0.193D+01
 Coeff-En:   0.000D+00 0.000D+00 0.000D+00 0.000D+00 0.000D+00 0.100D+01
 Coeff:     -0.183D-01 0.171D+00-0.101D+00-0.400D+00-0.579D+00 0.193D+01
 Gap=     0.119 Goal=   None    Shift=    0.000
 Gap=     0.210 Goal=   None    Shift=    0.000
 RMSDP=2.01D-04 MaxDP=5.28D-03 DE=-5.36D-05 OVMax= 1.79D-02

 Cycle   7  Pass 1  IDiag  1:
 E= -579.699790483659     Delta-E=       -0.000039501388 Rises=F Damp=F
 DIIS: error= 7.57D-05 at cycle   7 NSaved=   7.
 NSaved= 7 IEnMin= 7 EnMin= -579.699790483659     IErMin= 7 ErrMin= 7.57D-05
 ErrMax= 7.57D-05  0.00D+00 EMaxC= 1.00D-01 BMatC= 9.82D-07 BMatP= 9.01D-06
 IDIUse=1 WtCom= 1.00D+00 WtEn= 0.00D+00
 Coeff-Com: -0.636D-03-0.507D-02 0.994D-02 0.687D-01-0.230D+00-0.206D+00
 Coeff-Com:  0.136D+01
 Coeff:     -0.636D-03-0.507D-02 0.994D-02 0.687D-01-0.230D+00-0.206D+00
 Coeff:      0.136D+01
 Gap=     0.120 Goal=   None    Shift=    0.000
 Gap=     0.210 Goal=   None    Shift=    0.000
 RMSDP=8.45D-05 MaxDP=2.26D-03 DE=-3.95D-05 OVMax= 7.62D-03

 Cycle   8  Pass 1  IDiag  1:
 E= -579.699795263818     Delta-E=       -0.000004780159 Rises=F Damp=F
 DIIS: error= 2.27D-05 at cycle   8 NSaved=   8.
 NSaved= 8 IEnMin= 8 EnMin= -579.699795263818     IErMin= 8 ErrMin= 2.27D-05
 ErrMax= 2.27D-05  0.00D+00 EMaxC= 1.00D-01 BMatC= 8.79D-08 BMatP= 9.82D-07
 IDIUse=1 WtCom= 1.00D+00 WtEn= 0.00D+00
 Coeff-Com:  0.156D-02-0.143D-01 0.114D-01 0.363D-01 0.367D-01-0.170D+00
 Coeff-Com:  0.555D-01 0.104D+01
 Coeff:      0.156D-02-0.143D-01 0.114D-01 0.363D-01 0.367D-01-0.170D+00
 Coeff:      0.555D-01 0.104D+01
 Gap=     0.120 Goal=   None    Shift=    0.000
 Gap=     0.210 Goal=   None    Shift=    0.000
 RMSDP=1.25D-05 MaxDP=3.04D-04 DE=-4.78D-06 OVMax= 9.36D-04

 Cycle   9  Pass 1  IDiag  1:
 E= -579.699795565813     Delta-E=       -0.000000301994 Rises=F Damp=F
 DIIS: error= 1.65D-05 at cycle   9 NSaved=   9.
 NSaved= 9 IEnMin= 9 EnMin= -579.699795565813     IErMin= 9 ErrMin= 1.65D-05
 ErrMax= 1.65D-05  0.00D+00 EMaxC= 1.00D-01 BMatC= 4.33D-08 BMatP= 8.79D-08
 IDIUse=1 WtCom= 1.00D+00 WtEn= 0.00D+00
 Coeff-Com: -0.616D-03 0.694D-02-0.688D-02-0.244D-01 0.218D-01 0.100D+00
 Coeff-Com: -0.249D+00-0.292D+00 0.144D+01
 Coeff:     -0.616D-03 0.694D-02-0.688D-02-0.244D-01 0.218D-01 0.100D+00
 Coeff:     -0.249D+00-0.292D+00 0.144D+01
 Gap=     0.120 Goal=   None    Shift=    0.000
 Gap=     0.210 Goal=   None    Shift=    0.000
 RMSDP=9.42D-06 MaxDP=1.36D-04 DE=-3.02D-07 OVMax= 6.46D-04

 Cycle  10  Pass 1  IDiag  1:
 E= -579.699795768314     Delta-E=       -0.000000202501 Rises=F Damp=F
 DIIS: error= 1.24D-05 at cycle  10 NSaved=  10.
 NSaved=10 IEnMin=10 EnMin= -579.699795768314     IErMin=10 ErrMin= 1.24D-05
 ErrMax= 1.24D-05  0.00D+00 EMaxC= 1.00D-01 BMatC= 2.42D-08 BMatP= 4.33D-08
 IDIUse=1 WtCom= 1.00D+00 WtEn= 0.00D+00
 Coeff-Com: -0.302D-03 0.227D-02-0.176D-02-0.351D-03-0.301D-01-0.355D-02
 Coeff-Com:  0.195D+00-0.310D+00-0.100D+01 0.215D+01
 Coeff:     -0.302D-03 0.227D-02-0.176D-02-0.351D-03-0.301D-01-0.355D-02
 Coeff:      0.195D+00-0.310D+00-0.100D+01 0.215D+01
 Gap=     0.120 Goal=   None    Shift=    0.000
 Gap=     0.210 Goal=   None    Shift=    0.000
 RMSDP=1.26D-05 MaxDP=1.86D-04 DE=-2.03D-07 OVMax= 8.87D-04

 Cycle  11  Pass 1  IDiag  1:
 E= -579.699795953835     Delta-E=       -0.000000185521 Rises=F Damp=F
 DIIS: error= 6.44D-06 at cycle  11 NSaved=  11.
 NSaved=11 IEnMin=11 EnMin= -579.699795953835     IErMin=11 ErrMin= 6.44D-06
 ErrMax= 6.44D-06  0.00D+00 EMaxC= 1.00D-01 BMatC= 8.69D-09 BMatP= 2.42D-08
 IDIUse=1 WtCom= 1.00D+00 WtEn= 0.00D+00
 Coeff-Com:  0.289D-03-0.353D-02 0.429D-02 0.117D-01-0.843D-02-0.611D-01
 Coeff-Com:  0.135D+00 0.190D+00-0.727D+00-0.288D+00 0.175D+01
 Coeff:      0.289D-03-0.353D-02 0.429D-02 0.117D-01-0.843D-02-0.611D-01
 Coeff:      0.135D+00 0.190D+00-0.727D+00-0.288D+00 0.175D+01
 Gap=     0.120 Goal=   None    Shift=    0.000
 Gap=     0.210 Goal=   None    Shift=    0.000
 RMSDP=1.18D-05 MaxDP=1.74D-04 DE=-1.86D-07 OVMax= 8.26D-04

 Cycle  12  Pass 1  IDiag  1:
 E= -579.699796034110     Delta-E=       -0.000000080275 Rises=F Damp=F
 DIIS: error= 1.86D-06 at cycle  12 NSaved=  12.
 NSaved=12 IEnMin=12 EnMin= -579.699796034110     IErMin=12 ErrMin= 1.86D-06
 ErrMax= 1.86D-06  0.00D+00 EMaxC= 1.00D-01 BMatC= 1.21D-09 BMatP= 8.69D-09
 IDIUse=1 WtCom= 1.00D+00 WtEn= 0.00D+00
 Coeff-Com:  0.623D-04-0.399D-03 0.123D-03 0.725D-03 0.657D-02 0.106D-02
 Coeff-Com: -0.500D-01 0.593D-01 0.288D+00-0.421D+00-0.262D+00 0.138D+01
 Coeff:      0.623D-04-0.399D-03 0.123D-03 0.725D-03 0.657D-02 0.106D-02
 Coeff:     -0.500D-01 0.593D-01 0.288D+00-0.421D+00-0.262D+00 0.138D+01
 Gap=     0.120 Goal=   None    Shift=    0.000
 Gap=     0.210 Goal=   None    Shift=    0.000
 RMSDP=3.70D-06 MaxDP=5.98D-05 DE=-8.03D-08 OVMax= 2.53D-04

 Cycle  13  Pass 1  IDiag  1:
 E= -579.699796041116     Delta-E=       -0.000000007007 Rises=F Damp=F
 DIIS: error= 6.77D-07 at cycle  13 NSaved=  13.
 NSaved=13 IEnMin=13 EnMin= -579.699796041116     IErMin=13 ErrMin= 6.77D-07
 ErrMax= 6.77D-07  0.00D+00 EMaxC= 1.00D-01 BMatC= 1.23D-10 BMatP= 1.21D-09
 IDIUse=1 WtCom= 1.00D+00 WtEn= 0.00D+00
 Coeff-Com: -0.620D-04 0.665D-03-0.718D-03-0.212D-02 0.395D-03 0.840D-02
 Coeff-Com: -0.104D-01-0.286D-01 0.503D-01 0.853D-01-0.171D+00-0.217D+00
 Coeff-Com:  0.128D+01
 Coeff:     -0.620D-04 0.665D-03-0.718D-03-0.212D-02 0.395D-03 0.840D-02
 Coeff:     -0.104D-01-0.286D-01 0.503D-01 0.853D-01-0.171D+00-0.217D+00
 Coeff:      0.128D+01
 Gap=     0.120 Goal=   None    Shift=    0.000
 Gap=     0.210 Goal=   None    Shift=    0.000
 RMSDP=6.97D-07 MaxDP=1.34D-05 DE=-7.01D-09 OVMax= 4.49D-05

 Cycle  14  Pass 1  IDiag  1:
[...]
 E= -579.705062769637     Delta-E=       -0.000000000001 Rises=F Damp=F
 DIIS: error= 7.59D-09 at cycle  10 NSaved=  10.
 NSaved=10 IEnMin=10 EnMin= -579.705062769637     IErMin=10 ErrMin= 7.59D-09
 ErrMax= 7.59D-09  0.00D+00 EMaxC= 1.00D-01 BMatC= 1.27D-14 BMatP= 8.41D-14
 IDIUse=1 WtCom= 1.00D+00 WtEn= 0.00D+00
 Coeff-Com: -0.539D-04 0.608D-03-0.922D-03-0.283D-02-0.169D-02 0.321D-01
 Coeff-Com:  0.814D-01-0.197D+00-0.202D+00 0.129D+01
 Coeff:     -0.539D-04 0.608D-03-0.922D-03-0.283D-02-0.169D-02 0.321D-01
 Coeff:      0.814D-01-0.197D+00-0.202D+00 0.129D+01
 Gap=     0.149 Goal=   None    Shift=    0.000
 Gap=     0.229 Goal=   None    Shift=    0.000
 RMSDP=5.45D-09 MaxDP=1.20D-07 DE=-6.82D-13 OVMax= 4.40D-07

 SCF Done:  E(UM062X) =  -579.705062770     A.U. after   10 cycles
            NFock= 10  Conv=0.55D-08     -V/T= 2.0017
 <Sx>= 0.0000 <Sy>= 0.0000 <Sz>= 0.5000 <S**2>= 0.7547 S= 0.5024
 <L.S>=  0.00000000000    
 KE= 5.787492776625D+02 PE=-1.473891388149D+03 EE= 2.656338953544D+02
 Annihilation of the first spin contaminant:
 S**2 before annihilation     0.7547,   after     0.7500
 Leave Link  502 at Mon Apr 21 20:38:16 2025, MaxMem=   536870912 cpu:              43.8 elap:               5.9
 (Enter /home/szhao/Apps/g16/l701.exe)
 ... and contract with generalized density number  0.
 Compute integral first derivatives.
 Leave Link  701 at Mon Apr 21 20:38:16 2025, MaxMem=   536870912 cpu:               1.4 elap:               0.3
 (Enter /home/szhao/Apps/g16/l702.exe)
 L702 exits ... SP integral derivatives will be done elsewhere.
 Leave Link  702 at Mon Apr 21 20:38:17 2025, MaxMem=   536870912 cpu:               0.4 elap:               0.2
 (Enter /home/szhao/Apps/g16/l703.exe)
 Integral derivatives from FoFJK, PRISM(SPDF).
 Compute integral first derivatives, UseDBF=F ICtDFT=           0.
 Calling FoFJK, ICntrl=      2127 FMM=F ISym2X=0 I1Cent= 0 IOpClX= 1 NMat=1 NMatS=1 NMatT=0.
 FoFJK:  IHMeth= 1 ICntrl=    2127 DoSepK=F KAlg= 0 I1Cent=           0 FoldK=F
 IRaf=         0 NMat=       1 IRICut=       1 DoRegI=T DoRafI=F ISym2E= 0 IDoP0=0 IntGTp=1.
 FoFCou: FMM=F IPFlag=           0 FMFlag=      100000 FMFlg1=         800
         NFxFlg=           0 DoJE=F BraDBF=F KetDBF=F FulRan=T
         wScrn=  0.000000 ICntrl=      2127 IOpCl=  1 I1Cent=           0 NGrid=           0
         NMat0=    1 NMatS0=      1 NMatT0=    0 NMatD0=    1 NMtDS0=    0 NMtDT0=    0
 Symmetry not used in FoFCou.
 Leave Link  703 at Mon Apr 21 20:38:18 2025, MaxMem=   536870912 cpu:               6.9 elap:               0.9
 (Enter /home/szhao/Apps/g16/l716.exe)
 Dipole        = 9.86016991D-02-1.61216983D-01 5.82229499D-06
 -------------------------------------------------------------------
 Center     Atomic                   Forces (Hartrees/Bohr)
 Number     Number              X              Y              Z
 -------------------------------------------------------------------
      1       14          -0.000000000   -0.000000000   -0.000000000
      2       14          -0.000000000   -0.000000000   -0.000000000
      3        1           0.000004886   -0.000042002    0.000000004
      4        1           0.000038268   -0.000003586    0.000000091
 -------------------------------------------------------------------
 Cartesian Forces:  Max     0.000042002 RMS     0.000016496
 Leave Link  716 at Mon Apr 21 20:38:18 2025, MaxMem=   536870912 cpu:               0.5 elap:               0.1
 (Enter /home/szhao/Apps/g16/l103.exe)

 GradGradGradGradGradGradGradGradGradGradGradGradGradGradGradGradGradGrad
 Berny optimization.
 Using GEDIIS/GDIIS optimizer.
 FormGI is forming the generalized inverse of G from B-inverse, IUseBI=4.
 Internal  Forces:  Max     0.000042226 RMS     0.000024306
 Search for a local minimum.
 Step number  10 out of a maximum of   21
 All quantities printed in internal units (Hartrees-Bohrs-Radians)
 RMS Force = .26478D-04 SwitMx=.10000D-02 MixMth= 2
 Mixed Optimization -- En-DIIS/RFO-DIIS
 Swapping is turned off.
 Update second derivatives using D2CorX and points    4    5    6    7    8
                                                      9   10
 DE= -3.15D-07 DEPred=-2.92D-07 R= 1.08D+00
 Trust test= 1.08D+00 RLast= 3.23D-03 DXMaxT set to 8.44D-01
 The second derivative matrix:
                          X1        Y1        Z1        X2        Y2
           X1           0.51315
           Y1          -0.01942   0.58325
           Z1           0.00000  -0.00000   0.50000
           X2           0.00825  -0.06299   0.00000   0.55342
           Y2           0.01996  -0.03611   0.00000   0.01732   0.53317
           Z2          -0.00000   0.00000  -0.00000  -0.00000  -0.00000
           R1           0.01782  -0.08394   0.00000   0.06075   0.03805
           R2           0.01864  -0.09094   0.00000   0.06837   0.04162
           A1          -0.02797   0.01031   0.00000   0.00955  -0.03609
           A2          -0.00650   0.01142  -0.00000  -0.01150  -0.00148
           D1          -0.00000   0.00000  -0.00000  -0.00000  -0.00000
                          Z2        R1        R2        A1        A2
           Z2           0.50000
           R1          -0.00000   0.18475
           R2          -0.00000   0.01575   0.19802
           A1          -0.00000   0.00337  -0.00002   0.08045
           A2           0.00000   0.00751   0.01024   0.02351   0.03880
           D1           0.00000  -0.00000  -0.00000  -0.00000   0.00000
                          D1
           D1           0.00230
 ITU=  0  1  1  1  1  1  1  1  1  0
     Eigenvalues ---    0.00230   0.02757   0.09055   0.17439   0.20952
     Eigenvalues --- 1000.000001000.000001000.000001000.000001000.00000
     Eigenvalues --- 1000.00000
 En-DIIS/RFO-DIIS/Sim-DIIS IScMMF=       -3 using points:    10    9    8
 RFO step:  Lambda=-1.46101338D-08.
 NNeg= 0 NGDIIS= 3 SimSw=  2.50D-01 Rises=F DC= -3.15D-07 SmlDif=  1.00D-05
 NRisDI= 0 DoIntr=F SqrtH=F CThrHd= 10.0 CDAdj=  3.0
 RMS Error=  0.1259293775D-03 NUsed= 3 OKEnD=F EnDIS=F
 InvSVX:  RCond= 6.54D-07 Info=           0 Equed=N FErr=  1.75D-15 BErr=  5.55D-17
 DidBck=F Rises=F RFO-DIIS coefs:    0.96088    0.03731    0.00181
 Iteration  1 RMS(Cart)=  0.00029283 RMS(Int)=  0.00000005
 Iteration  2 RMS(Cart)=  0.00000006 RMS(Int)=  0.00000000
 ITry= 1 IFail=0 DXMaxC= 9.25D-04 DCOld= 1.00D+10 DXMaxT= 8.44D-01 DXLimC= 3.00D+00 Rises=F
 Variable       Old X    -DE/DX   Delta X   Delta X   Delta X     New X
                                 (Linear)    (Quad)   (Total)
    X1       -2.74572   0.00000   0.00000   0.00000   0.00000  -2.74572
    Y1        0.00000  -0.00004   0.00000   0.00000   0.00000   0.00000
    Z1        0.00000  -0.00000   0.00000   0.00000   0.00000   0.00000
    X2        2.74572   0.00004   0.00000   0.00000   0.00000   2.74572
    Y2        0.00000  -0.00001   0.00000   0.00000   0.00000   0.00000
    Z2        0.00000   0.00000   0.00000   0.00000   0.00000   0.00000
    R1        2.86120   0.00004  -0.00004   0.00024   0.00020   2.86140
    R2        2.81258   0.00004  -0.00004   0.00020   0.00016   2.81274
    A1        1.40211   0.00001  -0.00010   0.00008  -0.00003   1.40208
    A2        3.09309   0.00002   0.00011   0.00022   0.00033   3.09342
    D1       -3.14151   0.00000  -0.00000   0.00001   0.00001  -3.14151
         Item               Value     Threshold  Converged?
 Maximum Force            0.000042     0.000450     YES
 RMS     Force            0.000026     0.000300     YES
 Maximum Displacement     0.000925     0.001800     YES
 RMS     Displacement     0.000293     0.001200     YES
 Predicted change in Energy=-9.722925D-09
 Optimization completed.
    -- Stationary point found.
                           ----------------------------
                           !   Optimized Parameters   !
                           ! (Angstroms and Degrees)  !
 --------------------------                            --------------------------
 ! Name  Definition              Value          Derivative Info.                !
 --------------------------------------------------------------------------------
 ! X1    R(1,-1)                -1.453          -DE/DX =    0.0                 !
 ! Y1    R(1,-2)                 0.0            -DE/DX =    0.0                 !
 ! Z1    R(1,-3)                 0.0            -DE/DX =    0.0                 !
 ! X2    R(2,-1)                 1.453          -DE/DX =    0.0                 !
 ! Y2    R(2,-2)                 0.0            -DE/DX =    0.0                 !
 ! Z2    R(2,-3)                 0.0            -DE/DX =    0.0                 !
 ! R1    R(1,3)                  1.5141         -DE/DX =    0.0                 !
 ! R2    R(2,4)                  1.4884         -DE/DX =    0.0                 !
 ! A1    A(2,1,3)               80.3349         -DE/DX =    0.0                 !
 ! A2    A(1,2,4)              177.2208         -DE/DX =    0.0                 !
 ! D1    D(3,1,2,4)           -179.9954         -DE/DX =    0.0                 !
 --------------------------------------------------------------------------------
 Lowest energy point so far.  Saving SCF results.
 Largest change from initial coordinates is atom    4       1.147 Angstoms.
 GradGradGradGradGradGradGradGradGradGradGradGradGradGradGradGradGradGrad

 Leave Link  103 at Mon Apr 21 20:38:18 2025, MaxMem=   536870912 cpu:               0.3 elap:               0.1
 (Enter /home/szhao/Apps/g16/l202.exe)
                          Input orientation:                          
 ---------------------------------------------------------------------
 Center     Atomic      Atomic             Coordinates (Angstroms)
 Number     Number       Type             X           Y           Z
 ---------------------------------------------------------------------
      1         14           0       -1.452975    0.000000    0.000000
      2         14           0        1.452975    0.000000    0.000000
      3          1           0       -1.198778   -1.492591    0.000034
      4          1           0        2.939579    0.072165    0.000004
 ---------------------------------------------------------------------
                    Distance matrix (angstroms):
                    1          2          3          4
     1  Si   0.000000
     2  Si   2.905949   0.000000
     3  H    1.514082   3.042963   0.000000
     4  H    4.393146   1.488355   4.424303   0.000000
 Symmetry turned off by external request.
 Stoichiometry    H2Si2(1+,2)
 Framework group  C1[X(H2Si2)]
 Deg. of freedom     6
 Full point group                 C1      NOp   1
 Rotational constants (GHZ):         231.6681480           3.9401535           3.8742610
 Leave Link  202 at Mon Apr 21 20:38:18 2025, MaxMem=   536870912 cpu:               0.1 elap:               0.1
 (Enter /home/szhao/Apps/g16/l601.exe)
 Copying SCF densities to generalized density rwf, IOpCl= 1 IROHF=0.

 **********************************************************************

            Population analysis using the SCF density.

 **********************************************************************

 Alpha  occ. eigenvalues --  -67.28714 -67.27544  -5.82860  -5.81756  -4.13860
 Alpha  occ. eigenvalues --   -4.13681  -4.13214  -4.13167  -4.12964  -4.12282
 Alpha  occ. eigenvalues --   -0.80087  -0.75585  -0.56791  -0.53127  -0.44094
 Alpha virt. eigenvalues --   -0.29172  -0.28899  -0.26783  -0.12787  -0.10160
 Alpha virt. eigenvalues --   -0.09336  -0.08441  -0.07915  -0.06997  -0.05621
 Alpha virt. eigenvalues --   -0.05582  -0.02992  -0.00192   0.12289   0.13177
 Alpha virt. eigenvalues --    0.13578   0.15283   0.16051   0.16993   0.20940
 Alpha virt. eigenvalues --    0.23610   0.27992   0.32546   0.34649   0.35218
 Alpha virt. eigenvalues --    0.36644   0.37713   0.38165   0.41395   0.42160
 Alpha virt. eigenvalues --    0.46572   0.62954   0.67699   0.97876   0.98434
 Alpha virt. eigenvalues --    1.01684   1.03555   1.03630   1.07501   1.27196
 Alpha virt. eigenvalues --    1.27442   1.27577   1.31348   1.75680   1.80130
 Alpha virt. eigenvalues --    2.41574   2.41748   5.23474   5.26568  11.17322
 Alpha virt. eigenvalues --   11.19810  11.20654  11.22063  11.27445  11.32959
 Alpha virt. eigenvalues --  140.79080 140.82933
  Beta  occ. eigenvalues --  -67.28646 -67.27057  -5.82851  -5.81577  -4.13703
  Beta  occ. eigenvalues --   -4.13652  -4.13201  -4.12833  -4.12108  -4.11801
  Beta  occ. eigenvalues --   -0.78190  -0.73903  -0.55815  -0.52749
  Beta virt. eigenvalues --   -0.29815  -0.28082  -0.26007  -0.24575  -0.14428
  Beta virt. eigenvalues --   -0.10505  -0.10083  -0.08284  -0.07586  -0.07502
  Beta virt. eigenvalues --   -0.05224  -0.04315  -0.04053  -0.00319   0.11419
  Beta virt. eigenvalues --    0.11474   0.12178   0.13545   0.13720   0.14372
  Beta virt. eigenvalues --    0.21969   0.23364   0.27559   0.32882   0.36260
  Beta virt. eigenvalues --    0.37479   0.38317   0.42223   0.42836   0.43254
  Beta virt. eigenvalues --    0.43848   0.47034   0.63063   0.69321   0.97558
  Beta virt. eigenvalues --    0.99134   1.01380   1.03423   1.03788   1.07618
  Beta virt. eigenvalues --    1.27735   1.28089   1.28812   1.31395   1.75883
  Beta virt. eigenvalues --    1.81853   2.41691   2.42525   5.24144   5.27854
  Beta virt. eigenvalues --   11.19032  11.20493  11.22098  11.22940  11.27600
  Beta virt. eigenvalues --   11.33825 140.79376 140.83598
          Condensed to atoms (all electrons):
               1          2          3          4
     1  Si  13.014954   0.057665   0.200490   0.002907
     2  Si   0.057665  13.269881   0.009930   0.344749
     3  H    0.200490   0.009930   0.879001   0.000058
     4  H    0.002907   0.344749   0.000058   0.604568
          Atomic-Atomic Spin Densities.
               1          2          3          4
     1  Si   0.122870   0.048512  -0.006141   0.000292
     2  Si   0.048512   0.815106   0.000222  -0.007904
     3  H   -0.006141   0.000222   0.000110  -0.000004
     4  H    0.000292  -0.007904  -0.000004  -0.008038
 Mulliken charges and spin densities:
               1          2
     1  Si   0.723985   0.165533
     2  Si   0.317775   0.855935
     3  H   -0.089478  -0.005814
     4  H    0.047718  -0.015655
 Sum of Mulliken charges =   1.00000   1.00000
 Mulliken charges and spin densities with hydrogens summed into heavy atoms:
               1          2
     1  Si   0.634507   0.159719
     2  Si   0.365493   0.840281
 Electronic spatial extent (au):  <R**2>=            296.2022
 Charge=              1.0000 electrons
 Dipole moment (field-independent basis, Debye):
    X=              0.2506    Y=             -0.4098    Z=              0.0000  Tot=              0.4803
 Quadrupole moment (field-independent basis, Debye-Ang):
   XX=             -8.1562   YY=            -23.4105   ZZ=            -23.7760
   XY=              1.2454   XZ=             -0.0000   YZ=             -0.0000
 Traceless Quadrupole moment (field-independent basis, Debye-Ang):
   XX=             10.2914   YY=             -4.9629   ZZ=             -5.3284
   XY=              1.2454   XZ=             -0.0000   YZ=             -0.0000
 Octapole moment (field-independent basis, Debye-Ang**2):
  XXX=             -4.3758  YYY=              4.1863  ZZZ=             -0.0001  XYY=              3.7466
  XXY=             -1.9770  XXZ=              0.0001  XZZ=             -5.1020  YZZ=              0.8112
  YYZ=             -0.0001  XYZ=             -0.0002
 Hexadecapole moment (field-independent basis, Debye-Ang**3):
 XXXX=           -297.3179 YYYY=            -48.5482 ZZZZ=            -38.7485 XXXY=              2.3721
 XXXZ=             -0.0001 YYYX=             -4.5578 YYYZ=              0.0001 ZZZX=              0.0000
 ZZZY=              0.0001 XXYY=            -65.1525 XXZZ=            -64.4768 YYZZ=            -14.5427
 XXYZ=              0.0000 YYXZ=              0.0001 ZZXY=             -0.7215
 N-N= 4.980315236269D+01 E-N=-1.473891388154D+03  KE= 5.787492776625D+02
                          Isotropic Fermi Contact Couplings
        Atom                 a.u.       MegaHertz       Gauss      10(-4) cm-1
     1  Si(29)            -0.01134      10.07377       3.59457       3.36025
     2  Si(29)             0.08294     -73.71397     -26.30298     -24.58833
     3  H(1)              -0.00146      -6.51890      -2.32611      -2.17447
     4  H(1)              -0.00573     -25.59802      -9.13401      -8.53858
 --------------------------------------------------------
       Center         ----  Spin Dipole Couplings  ----
                      3XX-RR        3YY-RR        3ZZ-RR
 --------------------------------------------------------
     1   Atom       -0.213708     -0.135358      0.349066
     2   Atom       -0.848912     -0.911231      1.760143
     3   Atom       -0.000462      0.000726     -0.000265
     4   Atom        0.016567     -0.020750      0.004183
 --------------------------------------------------------
                        XY            XZ            YZ
 --------------------------------------------------------
     1   Atom        0.021321      0.000005      0.000010
     2   Atom        0.018135     -0.000006      0.000064
     3   Atom        0.005337     -0.000000     -0.000000
     4   Atom        0.001738      0.000000      0.000001
 --------------------------------------------------------


 ---------------------------------------------------------------------------------
              Anisotropic Spin Dipole Couplings in Principal Axis System
 ---------------------------------------------------------------------------------

       Atom             a.u.   MegaHertz   Gauss  10(-4) cm-1        Axes

              Baa    -0.2191    23.247     8.295     7.754  0.9691 -0.2466 -0.0000
     1 Si(29) Bbb    -0.1299    13.784     4.918     4.598  0.2466  0.9691 -0.0000
              Bcc     0.3491   -37.030   -13.213   -12.352  0.0000  0.0000  1.0000
 
              Baa    -0.9161    97.186    34.678    32.418 -0.2605  0.9655 -0.0000
     2 Si(29) Bbb    -0.8440    89.537    31.949    29.866  0.9655  0.2605 -0.0000
              Bcc     1.7601  -186.723   -66.627   -62.284 -0.0000  0.0000  1.0000
 
              Baa    -0.0052    -2.795    -0.997    -0.932  0.7452 -0.6668  0.0000
     3 H(1)   Bbb    -0.0003    -0.141    -0.050    -0.047  0.0000  0.0000  1.0000
              Bcc     0.0055     2.936     1.048     0.979  0.6668  0.7452 -0.0000
 
              Baa    -0.0208   -11.114    -3.966    -3.707 -0.0464  0.9989 -0.0000
     4 H(1)   Bbb     0.0042     2.232     0.796     0.744 -0.0000  0.0000  1.0000
              Bcc     0.0166     8.883     3.170     2.963  0.9989  0.0464  0.0000
 

 ---------------------------------------------------------------------------------

 No NMR shielding tensors so no spin-rotation constants.
 Leave Link  601 at Mon Apr 21 20:38:19 2025, MaxMem=   536870912 cpu:               2.3 elap:               0.4
 (Enter /home/szhao/Apps/g16/l9999.exe)
 1\1\GINC-NODE06\FOpt\UM062X\6-311+G(d,p)\H2Si2(1+,2)\SZHAO\21-Apr-2025
 \0\\#p opt UM062X/6-311+G** nosymm int=superfine\\Title Card Required\
 \1,2\Si,-1.45297457,0.,0.\Si,1.45297457,0.,0.\H,-1.1987782431,-1.49259
 10086,0.0000338264\H,2.9395785257,0.072165476,0.0000041358\\Version=ES
 64L-G16RevA.03\HF=-579.7050628\S2=0.754719\S2-1=0.\S2A=0.750008\RMSD=5
 .454e-09\RMSF=1.650e-05\Dipole=-0.0110528,-0.0717431,0.0000034\Quadrup
 ole=7.651384,-3.6898256,-3.9615584,0.9259241,-0.0000184,-0.0000098\PG=
 C01 [X(H2Si2)]\\@


       THE DEATH-KNELL OF THE ATOM

 SO THE ATOMS IN TURN, WE NOW CLEARLY DISCERN,
 FLY TO BITS WITH THE UTMOST FACILITY;
 THEY WEND ON THEIR WAY, AND, IN SPLITTING, DISPLAY
 AN ABSOLUTE LACK OF STABILITY.

          SIR WM. RAMSAY, 1905
 Job cpu time:       0 days  0 hours 13 minutes 52.8 seconds.
 Elapsed time:       0 days  0 hours  1 minutes 57.7 seconds.
 File lengths (MBytes):  RWF=     22 Int=      0 D2E=      0 Chk=      2 Scr=      2
 Normal termination of Gaussian 16 at Mon Apr 21 20:38:19 2025.
