Title Card Required                                                     
FOpt      UM062X                                                      6-311+G(d,p)        
Number of atoms                            I                4
Info1-9                                    I   N=           9
          13          13           0           0           0         110
           2          18        -502
Full Title                                 C   N=           2
Title Card Required     
Route                                      C   N=           4
#p opt UM062X/6-311+G** nosymm int=superfine    
Charge                                     I                1
Multiplicity                               I                2
Number of electrons                        I               13
Number of alpha electrons                  I                7
Number of beta electrons                   I                6
Number of basis functions                  I               56
Number of independent functions            I               56
Number of point charges in /Mol/           I                0
Number of translation vectors              I                0
Atomic numbers                             I   N=           4
           6           6           1           1
Nuclear charges                            R   N=           4
  6.00000000E+00  6.00000000E+00  1.00000000E+00  1.00000000E+00
Current cartesian coordinates              R   N=          12
 -4.31265737E+00  0.00000000E+00  0.00000000E+00  4.31265737E+00  0.00000000E+00
  0.00000000E+00 -6.42444417E+00  4.53939372E-13  1.50806257E-13  6.42444256E+00
 -3.84632341E-14  1.93286157E-13
Number of symbols in /Mol/                 I                0
Force Field                                I                0
Atom Types                                 C   N=           4
                                                
Int Atom Types                             I   N=           4
           0           0           0           0
MM charges                                 R   N=           4
  0.00000000E+00  0.00000000E+00  0.00000000E+00  0.00000000E+00
Integer atomic weights                     I   N=           4
          12          12           1           1
Real atomic weights                        R   N=           4
  1.20000000E+01  1.20000000E+01  1.00782504E+00  1.00782504E+00
Atom fragment info                         I   N=           4
           0           0           0           0
Atom residue num                           I   N=           4
           0           0           0           0
Nuclear spins                              I   N=           4
           0           0           1           1
Nuclear ZEff                               R   N=           4
 -3.60000000E+00 -3.60000000E+00 -1.00000000E+00 -1.00000000E+00
Nuclear ZNuc                               R   N=           4
  6.00000000E+00  6.00000000E+00  1.00000000E+00  1.00000000E+00
Nuclear QMom                               R   N=           4
  0.00000000E+00  0.00000000E+00  0.00000000E+00  0.00000000E+00
Nuclear GFac                               R   N=           4
  0.00000000E+00  0.00000000E+00  2.79284600E+00  2.79284600E+00
MicOpt                                     I   N=           4
          -2          -2          -1          -1
Number of residues                         I                0
Number of secondary structures             I                0
Redundant internal dimensions              I   N=           4
          12           8           4           0
Redundant internal coordinate indices      I   N=          48
           1          -1           0           0           1          -2
           0           0           1          -3           0           0
           2          -1           0           0           2          -2
           0           0           2          -3           0           0
           1           3           0           0           2           4
           0           0           2           1           3          -4
           1           2           4          -4           2           1
           3          -8           1           2           4          -8
Redundant internal coordinates             R   N=          12
 -4.31265737E+00  0.00000000E+00  0.00000000E+00  4.31265737E+00  0.00000000E+00
  0.00000000E+00  2.11178679E+00  2.11178519E+00  3.14159265E+00  3.14159265E+00
  3.14159265E+00  3.14159265E+00
ZRed-IntVec                                I   N=          12
          -1          -1          -1          -1          -1          -1
           0           0           0           0           0           0
ZRed-FPVec                                 R   N=          12
  0.00000000E+00  0.00000000E+00  0.00000000E+00  0.00000000E+00  0.00000000E+00
  0.00000000E+00  0.00000000E+00  0.00000000E+00  0.00000000E+00  0.00000000E+00
  0.00000000E+00  0.00000000E+00
ZRed-Constraint1                           R   N=          12
 -4.31265737E+00  0.00000000E+00  0.00000000E+00  4.31265737E+00  0.00000000E+00
  0.00000000E+00  2.08057524E+00  2.08053366E+00  3.14159265E+00  3.14159265E+00
  3.14159265E+00  3.14159265E+00
ZRed-Constraint2                           R   N=          12
 -4.31265737E+00  0.00000000E+00  0.00000000E+00  4.31265737E+00  0.00000000E+00
  0.00000000E+00  0.00000000E+00  0.00000000E+00  0.00000000E+00  0.00000000E+00
  0.00000000E+00  0.00000000E+00
Number of contracted shells                I               20
Number of primitive shells                 I               38
Pure/Cartesian d shells                    I                0
Pure/Cartesian f shells                    I                0
Highest angular momentum                   I                2
Largest degree of contraction              I                6
Shell types                                I   N=          20
           0          -1          -1          -1          -1          -2
           0          -1          -1          -1          -1          -2
           0           0           0           1           0           0
           0           1
Number of primitives per shell             I   N=          20
           6           3           1           1           1           1
           6           3           1           1           1           1
           3           1           1           1           3           1
           1           1
Shell to atom map                          I   N=          20
           1           1           1           1           1           1
           2           2           2           2           2           2
           3           3           3           3           4           4
           4           4
Primitive exponents                        R   N=          38
  4.56324000E+03  6.82024000E+02  1.54973000E+02  4.44553000E+01  1.30290000E+01
  1.82773000E+00  2.09642000E+01  4.80331000E+00  1.45933000E+00  4.83456000E-01
  1.45585000E-01  4.38000000E-02  6.26000000E-01  4.56324000E+03  6.82024000E+02
  1.54973000E+02  4.44553000E+01  1.30290000E+01  1.82773000E+00  2.09642000E+01
  4.80331000E+00  1.45933000E+00  4.83456000E-01  1.45585000E-01  4.38000000E-02
  6.26000000E-01  3.38650000E+01  5.09479000E+00  1.15879000E+00  3.25840000E-01
  1.02741000E-01  7.50000000E-01  3.38650000E+01  5.09479000E+00  1.15879000E+00
  3.25840000E-01  1.02741000E-01  7.50000000E-01
Contraction coefficients                   R   N=          38
  1.96665025E-03  1.52306019E-02  7.61269097E-02  2.60801033E-01  6.16462078E-01
  2.21006028E-01  1.14660081E-01  9.19999648E-01 -3.03068213E-03  1.00000000E+00
  1.00000000E+00  1.00000000E+00  1.00000000E+00  1.96665025E-03  1.52306019E-02
  7.61269097E-02  2.60801033E-01  6.16462078E-01  2.21006028E-01  1.14660081E-01
  9.19999648E-01 -3.03068213E-03  1.00000000E+00  1.00000000E+00  1.00000000E+00
  1.00000000E+00  2.54938145E-02  1.90373109E-01  8.52161486E-01  1.00000000E+00
  1.00000000E+00  1.00000000E+00  2.54938145E-02  1.90373109E-01  8.52161486E-01
  1.00000000E+00  1.00000000E+00  1.00000000E+00
P(S=P) Contraction coefficients            R   N=          38
  0.00000000E+00  0.00000000E+00  0.00000000E+00  0.00000000E+00  0.00000000E+00
  0.00000000E+00  4.02486927E-02  2.37593957E-01  8.15853851E-01  1.00000000E+00
  1.00000000E+00  1.00000000E+00  0.00000000E+00  0.00000000E+00  0.00000000E+00
  0.00000000E+00  0.00000000E+00  0.00000000E+00  0.00000000E+00  4.02486927E-02
  2.37593957E-01  8.15853851E-01  1.00000000E+00  1.00000000E+00  1.00000000E+00
  0.00000000E+00  0.00000000E+00  0.00000000E+00  0.00000000E+00  0.00000000E+00
  0.00000000E+00  0.00000000E+00  0.00000000E+00  0.00000000E+00  0.00000000E+00
  0.00000000E+00  0.00000000E+00  0.00000000E+00
Coordinates of each shell                  R   N=          60
 -4.31265737E+00  0.00000000E+00  0.00000000E+00 -4.31265737E+00  0.00000000E+00
  0.00000000E+00 -4.31265737E+00  0.00000000E+00  0.00000000E+00 -4.31265737E+00
  0.00000000E+00  0.00000000E+00 -4.31265737E+00  0.00000000E+00  0.00000000E+00
 -4.31265737E+00  0.00000000E+00  0.00000000E+00  4.31265737E+00  0.00000000E+00
  0.00000000E+00  4.31265737E+00  0.00000000E+00  0.00000000E+00  4.31265737E+00
  0.00000000E+00  0.00000000E+00  4.31265737E+00  0.00000000E+00  0.00000000E+00
  4.31265737E+00  0.00000000E+00  0.00000000E+00  4.31265737E+00  0.00000000E+00
  0.00000000E+00 -6.42444417E+00  4.53939372E-13  1.50806257E-13 -6.42444417E+00
  4.53939372E-13  1.50806257E-13 -6.42444417E+00  4.53939372E-13  1.50806257E-13
 -6.42444417E+00  4.53939372E-13  1.50806257E-13  6.42444256E+00 -3.84632341E-14
  1.93286157E-13  6.42444256E+00 -3.84632341E-14  1.93286157E-13  6.42444256E+00
 -3.84632341E-14  1.93286157E-13  6.42444256E+00 -3.84632341E-14  1.93286157E-13
Num ILSW                                   I              100
ILSW                                       I   N=         100
           1           0           0           0           2           0
           0           0           0           0        4336          -1
           7           0           0           0           2           0
           0           0           0           0           1           0
           1           1           0           0           0           0
           0           0      100000           0          -1           0
           0           0           0           0           0           0
           0           0           0           1           0           0
           0 -2000000000           1           0           0           0
           0           0           4          52           0           0
           0           0          55           0           0           0
           0           0           0           4           0           1
           0           0           0           0           0           0
           0           0           0           0           0           0
           0           0           0           0           0           0
           0           0           0           0           0           0
           0           0           0           0
Num RLSW                                   I               52
RLSW                                       R   N=          52
  1.00000000E+00  1.00000000E+00  1.00000000E+00  1.00000000E+00  5.40000000E-01
  0.00000000E+00  0.00000000E+00  1.00000000E+00  0.00000000E+00  0.00000000E+00
  0.00000000E+00  0.00000000E+00  1.00000000E+00  0.00000000E+00  0.00000000E+00
  0.00000000E+00  0.00000000E+00  1.00000000E+00  0.00000000E+00  0.00000000E+00
  0.00000000E+00  0.00000000E+00  1.00000000E+00  0.00000000E+00  0.00000000E+00
  0.00000000E+00  0.00000000E+00  1.00000000E+00  0.00000000E+00  0.00000000E+00
  0.00000000E+00  0.00000000E+00  1.00000000E+00  0.00000000E+00  0.00000000E+00
  0.00000000E+00  0.00000000E+00  0.00000000E+00  1.00000000E+00  1.00000000E+00
  0.00000000E+00  1.00000000E+00  0.00000000E+00  0.00000000E+00  0.00000000E+00
  0.00000000E+00  0.00000000E+00  0.00000000E+00  0.00000000E+00  0.00000000E+00
  0.00000000E+00  0.00000000E+00
MxBond                                     I                2
NBond                                      I   N=           4
           2           2           1           1
IBond                                      I   N=           8
           2           3           1           4           1           0
           2           0
RBond                                      R   N=           8
  1.00000000E-01  1.00000000E+00  1.00000000E-01  1.00000000E+00  1.00000000E+00
  0.00000000E+00  1.00000000E+00  0.00000000E+00
Virial Ratio                               R      2.002852608763674E+00
SCF Energy                                 R     -7.658379993969662E+01
Total Energy                               R     -7.658379993969662E+01
S**2                                       R      7.513402204327653E-01
S**2 after annihilation                    R      7.500012953158247E-01
RMS Force                                  R      1.209990441237008E-04
RMS Density                                R      4.885660530052207E-09
Job Status                                 I                1
Nuclear derivative order                   I                1
External E-field                           R   N=          35
  0.00000000E+00  0.00000000E+00  0.00000000E+00  0.00000000E+00  0.00000000E+00
  0.00000000E+00  0.00000000E+00  0.00000000E+00  0.00000000E+00  0.00000000E+00
  0.00000000E+00  0.00000000E+00  0.00000000E+00  0.00000000E+00  0.00000000E+00
  0.00000000E+00  0.00000000E+00  0.00000000E+00  0.00000000E+00  0.00000000E+00
  0.00000000E+00  0.00000000E+00  0.00000000E+00  0.00000000E+00  0.00000000E+00
  0.00000000E+00  0.00000000E+00  0.00000000E+00  0.00000000E+00  0.00000000E+00
  0.00000000E+00  0.00000000E+00  0.00000000E+00  0.00000000E+00  0.00000000E+00
IOpCl                                      I                1
IROHF                                      I                0
Alpha Orbital Energies                     R   N=          56
 -1.09378436E+01 -1.09378406E+01 -9.74889917E-01 -9.74386675E-01 -6.28782102E-01
 -6.25222025E-01 -4.67676428E-01 -4.06197883E-01 -3.25554622E-01 -3.24418642E-01
 -1.17594825E-01 -1.10189690E-01 -7.27964983E-02 -6.99640626E-02 -6.28938307E-02
 -4.56685184E-02 -4.26939047E-02 -1.54937612E-02 -3.77892088E-04  5.13800109E-02
  2.79819241E-01  2.94348398E-01  3.72693919E-01  3.80668899E-01  3.81377001E-01
  3.90058370E-01  3.92999835E-01  4.23652166E-01  5.07450632E-01  5.89812137E-01
  9.00506004E-01  9.02040570E-01  9.02825595E-01  9.03812396E-01  1.08410411E+00
  1.08443432E+00  1.09460094E+00  1.09492830E+00  1.36273783E+00  1.36467988E+00
  1.63446292E+00  1.63543132E+00  1.63730185E+00  1.63836775E+00  2.16020409E+00
  2.18464311E+00  2.29149335E+00  2.29158946E+00  2.44416075E+00  2.45126773E+00
  2.45834010E+00  2.46558872E+00  2.94907263E+00  2.95501891E+00  2.32532115E+01
  2.32759039E+01
Beta Orbital Energies                      R   N=          56
 -1.09336932E+01 -1.09336909E+01 -9.51007162E-01 -9.50934184E-01 -6.15083316E-01
 -6.11293732E-01 -3.06818277E-01 -3.05342709E-01 -2.90638156E-01 -2.88887741E-01
 -1.21536072E-01 -1.09635767E-01 -6.52675737E-02 -6.51099858E-02 -5.62481193E-02
 -3.75816637E-02 -2.80238146E-02 -1.77955081E-02  1.61146460E-02  6.91259521E-02
  2.71875023E-01  2.87133929E-01  3.75497227E-01  3.78599598E-01  3.88394498E-01
  3.89776625E-01  4.30531148E-01  4.49727140E-01  5.24409133E-01  6.15007652E-01
  9.73089691E-01  9.74818209E-01  9.82183062E-01  9.83858125E-01  1.11700009E+00
  1.11700290E+00  1.11710493E+00  1.11710505E+00  1.36728819E+00  1.36847459E+00
  1.65219825E+00  1.65311365E+00  1.65888636E+00  1.65983284E+00  2.32275686E+00
  2.32761900E+00  2.33630768E+00  2.35630049E+00  2.47001578E+00  2.47744465E+00
  2.49348086E+00  2.50092009E+00  3.05216508E+00  3.05391484E+00  2.32664783E+01
  2.32891947E+01
Alpha MO coefficients                      R   N=        3136
  4.06748821E-01  3.35093411E-01 -1.44297581E-03 -5.88391093E-14  1.17097198E-14
  6.79336410E-03 -8.29783367E-04  7.41870403E-14 -2.34610656E-14 -2.91738793E-03
 -2.03222806E-04 -8.50661513E-14  5.09581086E-14  1.55333234E-04  5.68985070E-04
  5.00882816E-14 -2.75013199E-14 -3.42556058E-04  3.80974681E-14  4.43446734E-09
  6.20206330E-04 -7.21974841E-15  3.90743848E-01  3.21908861E-01  1.38649425E-03
  7.81489612E-14  2.31904459E-15  6.51751929E-03  7.97301793E-04 -4.53133710E-14
 -4.92417459E-14 -2.76140596E-03  2.06619870E-04  7.05975339E-14  6.13544108E-14
  1.19360850E-04 -5.07546433E-04 -4.11920473E-14 -1.83980868E-14 -3.30235703E-04
 -8.87679691E-15  4.22818867E-09  5.97616016E-04 -4.10042427E-14  2.93412837E-04
 -2.04517534E-03  1.76545265E-03 -1.33789458E-03  5.02863974E-15  2.17593281E-14
  2.81841880E-04 -1.97017112E-03  1.66460833E-03  1.28844323E-03  2.46752438E-15
 -1.29158008E-14 -3.90745272E-01 -3.21887016E-01  1.37878948E-03  5.43815753E-14
 -1.85533185E-15 -6.73899544E-03  7.93120481E-04 -6.86831656E-14 -1.18239308E-15
  3.82911023E-03 -8.87509761E-05  7.24547108E-14 -7.48735048E-15 -8.93386417E-04
 -1.51989972E-03 -3.41037137E-14 -1.71129258E-14  3.00249372E-04 -3.66635628E-14
 -5.05165990E-09 -5.50681963E-04  8.86511445E-15  4.06750189E-01  3.35072423E-01
  1.43557429E-03  7.99211145E-14 -1.80889051E-15  7.00613902E-03  8.25782401E-04
 -4.47985126E-14 -3.43124510E-14 -3.94307788E-03 -8.05262706E-05  6.63858362E-14
  2.61809714E-14  8.98896661E-04 -1.54150559E-03 -2.87903372E-14  2.16369328E-14
 -3.13753664E-04 -1.00379824E-14  5.22548455E-09  5.75125904E-04 -4.28963888E-14
 -2.82475318E-04  1.82864126E-03 -2.47816426E-03  1.20583191E-03 -2.92005806E-15
 -2.15900974E-14  2.94018823E-04 -1.90923588E-03  2.54700861E-03  1.25854618E-03
  2.02758999E-15 -1.15576641E-14 -7.99343016E-02 -1.30495883E-01 -5.57909231E-02
 -1.25444657E-12  6.51244146E-13  3.84829105E-01 -8.59316232E-02 -2.07060745E-12
  1.55341138E-12  2.43146813E-01 -2.94583550E-02 -7.89675968E-13 -1.88065738E-13
 -3.85780721E-03 -2.20279044E-03 -1.74182036E-14  3.56587943E-13 -4.52567797E-03
 -2.87148483E-14 -1.48016536E-07  6.93729064E-03 -1.98852333E-13 -7.99649225E-02
 -1.30545830E-01  5.58125309E-02  2.75304889E-12  3.88952302E-12  3.84975684E-01
  8.59648259E-02  3.50745744E-12  7.14129165E-12  2.43244306E-01  2.94706666E-02
  2.46304377E-12  1.73314174E-12 -3.86255846E-03  2.20875122E-03 -5.38703035E-13
 -4.16081579E-13 -4.52747095E-03 -2.33476344E-13 -1.48056128E-07  6.94015152E-03
 -1.90797228E-13  9.79877085E-02  1.22583762E-01 -3.15022529E-03  1.70158539E-02
  2.99902065E-13 -2.95957046E-13  9.80254546E-02  1.22630774E-01 -3.15541676E-03
 -1.70221878E-02 -6.06686195E-13 -4.94696158E-13 -7.99059492E-02 -1.30346300E-01
 -5.61229243E-02 -1.02903138E-12  6.86661554E-13  3.82645439E-01 -8.63711646E-02
 -1.79096250E-12  1.39184875E-12  2.54772855E-01 -3.20967234E-02 -3.26106596E-13
  2.23524131E-13 -1.24304792E-02 -1.55687609E-02 -2.85750485E-13 -1.55072277E-14
 -4.64579246E-03 -3.03489325E-14 -1.02972740E-07  7.41903883E-03 -2.02132515E-13
  7.98752719E-02  1.30296214E-01 -5.61016141E-02 -2.66148277E-12 -3.92036825E-12
 -3.82497693E-01 -8.63382931E-02 -3.33207724E-12 -6.94326350E-12 -2.54679415E-01
 -3.20854339E-02 -2.39289161E-12 -2.15638572E-12  1.24289933E-02 -1.55679135E-02
  5.34992022E-13  6.49302389E-13  4.64406897E-03  2.34614061E-13  1.02916064E-07
 -7.41639557E-03  1.87530090E-13  9.81295311E-02  1.22401478E-01 -1.35195104E-02
  1.64978596E-02  3.09985738E-13 -3.06073469E-13 -9.80920676E-02 -1.22354530E-01
  1.35183160E-02  1.64913398E-02  6.16628983E-13  5.13427152E-13 -4.16803650E-02
 -6.94310772E-02  1.66436588E-01 -9.49867055E-12  3.27718084E-12  2.14370856E-01
  2.45491862E-01 -1.47422796E-11  5.67988940E-12  2.56245976E-01  1.48624825E-01
 -1.05081385E-11  2.39986584E-12  1.82568448E-02 -2.16631494E-03 -2.32066904E-13
  1.33167305E-12  1.45726637E-02 -1.99683065E-14 -2.48514637E-08 -2.53916011E-02
  7.47635527E-14 -4.16806347E-02 -6.94315283E-02 -1.66437566E-01  1.70741591E-11
  1.69054768E-11  2.14372244E-01 -2.45493266E-01  2.48285033E-11  2.67510512E-11
  2.56247754E-01 -1.48625581E-01  2.00487135E-11  1.76860891E-11  1.82569609E-02
  2.16633338E-03 -5.90328378E-13  4.61040972E-13  1.45727531E-02  3.54410629E-13
 -2.48515284E-08 -2.53917565E-02  2.98068334E-14 -9.53523485E-02 -1.67151802E-01
 -7.13865329E-02 -8.01335139E-03 -5.56045764E-13  2.58066148E-13 -9.53528718E-02
 -1.67152706E-01 -7.13869551E-02  8.01338649E-03  1.01326395E-12  9.06557333E-13
 -4.25819828E-02 -7.10108369E-02  1.67423324E-01 -8.79827459E-12  3.42628230E-12
  2.20292302E-01  2.47982027E-01 -1.36922441E-11  5.46274364E-12  2.59937024E-01
  1.44558303E-01 -9.32578059E-12  3.39555509E-12  1.69511427E-02 -5.12121663E-04
 -5.53535430E-13  5.24019265E-13  1.49182192E-02 -7.75116992E-14  2.38830146E-08
 -2.56940226E-02  3.75682852E-14  4.25817673E-02  7.10104795E-02  1.67422382E-01
 -1.67516694E-11 -1.72316968E-11 -2.20291189E-01  2.47980594E-01 -2.42187063E-11
 -2.67962096E-11 -2.59935823E-01  1.44557371E-01 -1.97252812E-11 -1.90833028E-11
 -1.69510633E-02 -5.12111188E-04  8.54054853E-13  6.67472347E-13 -1.49181391E-02
 -4.31586635E-13 -2.38829046E-08  2.56938846E-02 -3.57781837E-15 -9.55632886E-02
 -1.70639354E-01 -7.22061471E-02 -7.91445930E-03 -5.10979590E-13  2.18986186E-13
  9.55627134E-02  1.70638317E-01  7.22057349E-02 -7.91440231E-03 -9.78855475E-13
 -8.72392571E-13 -1.84235421E-12 -2.89311953E-12  5.65156296E-12  2.08016595E-01
 -3.42314415E-05  7.21842580E-12  9.69677193E-12  3.27361425E-01 -5.38784879E-05
  1.71800938E-11  5.31607786E-12  2.96651496E-01 -4.87964191E-05  5.86722989E-12
 -6.31756274E-12  2.36477868E-02 -3.93115116E-06  1.08605507E-12  2.83484529E-06
  3.40595363E-13 -3.16020580E-13 -1.72288476E-02  3.32857741E-12  5.34107980E-12
  9.59772892E-12  2.08016615E-01 -3.42313091E-05 -1.32712032E-11  1.69044761E-11
  3.27361468E-01 -5.38782873E-05 -3.04740229E-11  6.58378958E-12  2.96651539E-01
 -4.87962138E-05 -8.45078277E-12 -4.15523601E-12  2.36477897E-02 -3.93117059E-06
 -1.93593455E-12 -2.83483684E-06  1.55714260E-12  2.70492341E-13  1.72288656E-02
 -3.52805015E-12 -2.66446555E-12 -1.61343342E-11  2.01556383E-13  1.56709598E-02
 -2.57959582E-06  6.16994492E-12  7.95511723E-12  2.29884698E-11  2.12416556E-13
  1.56709740E-02 -2.57958839E-06 -1.84830458E-12 -2.92082475E-12  5.58724741E-12
  2.08331506E-01 -3.42829523E-05  7.60042122E-12  9.61393343E-12  3.28345418E-01
 -5.40433212E-05  1.50212370E-11  4.69467624E-12  2.96003410E-01 -4.86794508E-05
  7.88565610E-12 -1.87984822E-12  2.65121751E-02 -4.42670668E-06  1.09971251E-12
  3.18681770E-06  3.30792605E-13 -3.92732695E-13 -1.93674408E-02 -3.57700010E-12
 -5.77137600E-12 -1.00001176E-11 -2.08331467E-01  3.42828087E-05  1.48914752E-11
 -1.73116416E-11 -3.28345366E-01  5.40431018E-05  3.09148169E-11 -6.89834490E-12
 -2.96003368E-01  4.86792337E-05  8.93414242E-12  3.22554477E-12 -2.65121699E-02
  4.42671330E-06  2.02295091E-12  3.18680698E-06 -1.56574201E-12 -4.76771027E-13
 -1.93674531E-02 -3.59898693E-12 -3.42961746E-12 -1.38875546E-11  2.55053245E-13
  1.65562033E-02 -2.72555602E-06 -6.41695685E-12 -9.14287980E-12 -2.23558722E-11
 -2.89073691E-13 -1.65562126E-02  2.72554711E-06  5.41571242E-13  6.38712351E-13
 -1.47593515E-12  3.20917408E-05  1.94953527E-01 -5.47003570E-13 -5.23496801E-12
  5.17887502E-05  3.14733921E-01 -5.78173492E-12  4.45660691E-14  4.97100509E-05
  3.01660394E-01 -5.38448062E-12 -2.77359044E-13  9.11384845E-06  5.60134731E-02
  2.62709907E-13 -1.68582211E-02 -8.72169285E-13  9.56734040E-13 -2.77555763E-06
  3.51645125E-12  5.04413202E-12  9.61899674E-12  3.20907922E-05  1.94948518E-01
 -1.04697791E-11  1.68816982E-11  5.17872030E-05  3.14725822E-01 -3.15900891E-11
  8.64759067E-12  4.97086305E-05  3.01652712E-01 -1.48381459E-11 -1.65117710E-12
  9.11349046E-06  5.60119742E-02  3.20550801E-12  1.68577931E-02  1.59759544E-12
  1.68845007E-12  2.77547625E-06  1.50275486E-12 -2.94685794E-12  9.14855323E-12
 -1.09163920E-12  2.77530380E-06  1.68711885E-02  5.40074225E-12  7.28311488E-12
  2.05414369E-11  1.61466952E-13  2.77522203E-06  1.68707647E-02 -8.01089160E-13
 -1.13911605E-12  2.12889543E-12 -3.22833532E-05 -1.96107081E-01  3.52802635E-12
  6.22478428E-12 -5.22001646E-05 -3.17257755E-01 -1.26839588E-14  3.83525414E-12
 -4.97506855E-05 -3.01768074E-01  9.29042719E-12  7.61044487E-13 -9.58527711E-06
 -5.92005164E-02  7.55449974E-14  1.72207325E-02  8.58027049E-13 -1.56097913E-12
  2.83508403E-06  3.60275956E-12  5.28167740E-12  9.99836583E-12  3.22840473E-05
  1.96112036E-01 -1.27440614E-11  1.63867546E-11  5.22012737E-05  3.17265758E-01
 -2.25612906E-11  1.31456338E-11  4.97517943E-05  3.01775768E-01 -1.11193369E-11
  6.32564550E-12  9.58541894E-06  5.92019534E-02  3.09992079E-12  1.72211728E-02
  1.60198982E-12  1.96502683E-12  2.83514616E-06 -1.78022146E-12  4.54777053E-12
 -6.02861617E-12  1.63667572E-12 -2.80958745E-06 -1.70828704E-02  5.09279902E-12
  8.37356761E-12  4.44885743E-12  4.24911262E-13  2.80964850E-06  1.70833117E-02
  2.94010346E-02  4.94483548E-02  2.94755089E-02  2.18443370E-13 -2.03265346E-13
 -1.48489339E-01  7.86008408E-02  1.22359887E-13 -2.96306902E-12 -5.52322547E-01
  8.37038393E-02  1.20125230E-13  9.90202117E-13  9.70741711E-01 -2.04573697E-01
 -3.55874041E-12  6.07811970E-12  2.10967941E-03  4.30617122E-13 -6.71026361E-07
 -7.72941153E-03 -1.83946082E-13  2.94008930E-02  4.94481173E-02 -2.94750223E-02
 -1.05941855E-12 -5.77291532E-13 -1.48488583E-01 -7.86001156E-02  5.41413821E-13
 -7.94921727E-13 -5.52320327E-01 -8.37023859E-02 -2.73261587E-12 -5.63402554E-12
  9.70738351E-01  2.04570075E-01  9.00457157E-12  2.64995884E-11  2.10967925E-03
 -9.62697487E-13 -6.71021067E-07 -7.72939414E-03 -8.35695048E-13  6.43212923E-03
  1.44338699E-01 -6.73173654E-02 -1.97447376E-03 -2.71716833E-13  3.23679341E-13
  6.43203564E-03  1.44337821E-01 -6.73173234E-02  1.97436498E-03  4.39136022E-13
  8.62172055E-13 -2.25971360E-02 -3.88696783E-02 -5.86478164E-02 -4.73299290E-13
 -2.20936634E-12  1.33067135E-01 -1.05298792E-01 -3.82978077E-13 -2.79205158E-13
  3.26079915E-01 -1.65157308E-01 -1.36748130E-12 -1.23520608E-11 -7.14082276E-01
  7.05133450E-01  4.95080451E-12  2.30870931E-11 -4.31585325E-03  2.09751973E-13
  5.02387681E-07  1.05263114E-02  2.79696462E-13  2.25972884E-02  3.88699394E-02
 -5.86478060E-02 -1.83566610E-12  4.83300128E-13 -1.33067981E-01 -1.05299061E-01
 -7.57254448E-14  7.78684988E-13 -3.26082486E-01 -1.65157078E-01 -8.97551068E-12
 -1.18239091E-12  7.14088571E-01  7.05134797E-01  1.94134201E-11  7.53203627E-12
  4.31588341E-03 -4.53735217E-13 -5.02389711E-07 -1.05263879E-02 -9.50851238E-13
  3.96466705E-03 -1.39048216E-01  2.16931983E-01  9.75441284E-03  1.61996043E-13
 -2.75769438E-13 -3.96475985E-03  1.39048811E-01 -2.16933671E-01  9.75438099E-03
  4.67280771E-13  3.52809300E-13 -4.39746904E-13 -3.84774197E-13  4.36189490E-12
 -3.55754135E-06 -8.64476910E-02 -5.24210964E-12  5.80186157E-12 -6.24114964E-06
 -9.98427556E-02  3.96216783E-11  1.78630532E-12 -9.54958410E-06 -2.95339335E-01
  7.63011481E-12 -6.62373831E-11  2.12615133E-05  7.63233911E-01  1.10368630E-13
  9.16190386E-03  2.56070470E-13 -7.71860719E-13  3.66776743E-07 -1.91004369E-12
 -2.90143541E-12 -6.29608796E-12 -3.55688292E-06 -8.64476331E-02  8.52722515E-12
 -5.14276344E-12 -6.24071057E-06 -9.98426951E-02  1.24287575E-11 -3.11851238E-11
 -9.54650089E-06 -2.95339141E-01 -5.86913622E-11  1.61391124E-11  2.12532418E-05
  7.63233303E-01 -5.55538744E-13 -9.16190975E-03 -5.93179610E-13 -1.37543987E-12
 -3.66749268E-07 -2.65842399E-12 -2.09483043E-12 -4.60395248E-11 -1.18338156E-12
 -2.02075648E-07  9.60526228E-04 -3.59465464E-13 -3.29489054E-12  5.03780758E-11
 -6.02304564E-13 -2.02137815E-07  9.60511855E-04  7.93324269E-13  1.33686313E-12
 -2.97897106E-12 -7.89590224E-02  1.21857863E-06 -4.76919762E-12 -2.27908763E-12
 -7.75226197E-02 -1.11870121E-06 -6.03530796E-12 -1.66869147E-11 -2.83152946E-01
  7.12219206E-06  1.81219888E-11  2.63651130E-11  7.66708919E-01 -2.27712467E-05
 -4.92409737E-13 -1.40213255E-07 -6.53027208E-14  4.58520455E-13  8.42076484E-03
 -4.18945195E-13 -6.59718724E-13  3.67293764E-12 -7.89589820E-02  1.21946658E-06
  1.75752525E-12  5.24407983E-12 -7.75225818E-02 -1.11788695E-06  6.91300134E-12
  5.81547264E-12 -2.83152825E-01  7.12599324E-06 -2.30609446E-11 -3.25626905E-11
  7.66708526E-01 -2.27813674E-05 -3.20831306E-14  1.40256535E-07 -6.10970636E-13
  8.74067820E-13 -8.42077190E-03  6.71694622E-13 -1.24455270E-12 -8.04586627E-12
 -5.81730623E-14  2.56318693E-03 -3.02668558E-07  6.75338977E-13 -6.22159772E-13
  5.44461912E-12 -1.10647326E-12  2.56317403E-03 -3.02726402E-07  8.34730417E-03
  1.43462982E-02 -8.32624111E-02  2.83442777E-12 -5.91029008E-12 -5.28737861E-02
 -9.43413836E-02  3.68150051E-12 -7.23787751E-12 -2.98779238E-02 -3.02081144E-01
  6.38499622E-12 -2.02556273E-11  3.65595373E-02  7.02020160E-01 -2.34156680E-11
  5.60900560E-11 -9.23079344E-03  8.36502216E-13 -1.35680986E-07  1.51639258E-02
 -1.12826639E-13  8.34730330E-03  1.43462962E-02  8.32623051E-02  4.36504995E-12
 -3.15523062E-12 -5.28737553E-02  9.43412519E-02  3.80836884E-12 -2.78031060E-12
 -2.98780057E-02  3.02080684E-01  1.93120519E-11 -1.17041474E-11  3.65585010E-02
 -7.02020164E-01 -3.95538244E-11  4.17571021E-11 -9.23080470E-03 -4.47223425E-13
 -1.35679923E-07  1.51639491E-02  9.73343946E-13  1.72132347E-02 -2.92051235E-02
 -6.34474904E-02  1.00631710E-02 -9.31472776E-14  1.42225405E-13  1.72133290E-02
 -2.92049869E-02 -6.34466585E-02 -1.00631586E-02 -2.03716569E-13  1.06108479E-13
  2.05282620E-13  4.73299145E-13  3.50594730E-12  1.88996478E-06 -8.77503339E-02
 -5.32106649E-12  3.24782344E-12 -1.21461536E-06 -9.79649281E-02  1.38944263E-11
  2.07791981E-12  1.10972933E-05 -3.24672028E-01 -1.23860620E-11 -2.45494580E-11
 -3.56664988E-05  9.55990291E-01 -7.73359471E-13  3.92167442E-03  2.72908042E-13