 Entering Gaussian System, Link 0=g16
 Initial command:
 /home/szhao/Apps/g16/l1.exe "/home/szhao/tmp/Gau-110669.inp" -scrdir="/home/szhao/tmp/"
 Default is to use a total of  16 processors:
                               16 via shared-memory
                                1 via Linda
 Entering Link 1 = /home/szhao/Apps/g16/l1.exe PID=    110671.
  
 Copyright (c) 1988,1990,1992,1993,1995,1998,2003,2009,2016,
            Gaussian, Inc.  All Rights Reserved.
  
 This is part of the Gaussian(R) 16 program.  It is based on
 the Gaussian(R) 09 system (copyright 2009, Gaussian, Inc.),
 the Gaussian(R) 03 system (copyright 2003, Gaussian, Inc.),
 the Gaussian(R) 98 system (copyright 1998, Gaussian, Inc.),
 the Gaussian(R) 94 system (copyright 1995, Gaussian, Inc.),
 the Gaussian 92(TM) system (copyright 1992, Gaussian, Inc.),
 the Gaussian 90(TM) system (copyright 1990, Gaussian, Inc.),
 the Gaussian 88(TM) system (copyright 1988, Gaussian, Inc.),
 the Gaussian 86(TM) system (copyright 1986, Carnegie Mellon
 University), and the Gaussian 82(TM) system (copyright 1983,
 Carnegie Mellon University). Gaussian is a federally registered
 trademark of Gaussian, Inc.
  
 This software contains proprietary and confidential information,
 including trade secrets, belonging to Gaussian, Inc.
  
 This software is provided under written license and may be
 used, copied, transmitted, or stored only in accord with that
 written license.
  
 The following legend is applicable only to US Government
 contracts under FAR:
  
                    RESTRICTED RIGHTS LEGEND
  
 Use, reproduction and disclosure by the US Government is
 subject to restrictions as set forth in subparagraphs (a)
 and (c) of the Commercial Computer Software - Restricted
 Rights clause in FAR 52.227-19.
  
 Gaussian, Inc.
 340 Quinnipiac St., Bldg. 40, Wallingford CT 06492
  
  
 ---------------------------------------------------------------
 Warning -- This program may not be used in any manner that
 competes with the business of Gaussian, Inc. or will provide
 assistance to any competitor of Gaussian, Inc.  The licensee
 of this program is prohibited from giving any competitor of
 Gaussian, Inc. access to this program.  By using this program,
 the user acknowledges that Gaussian, Inc. is engaged in the
 business of creating and licensing software in the field of
 computational chemistry and represents and warrants to the
 licensee that it is not a competitor of Gaussian, Inc. and that
 it will not use this program in any manner prohibited above.
 ---------------------------------------------------------------
  

 Cite this work as:
 Gaussian 16, Revision A.03,
 M. J. Frisch, G. W. Trucks, H. B. Schlegel, G. E. Scuseria, 
 M. A. Robb, J. R. Cheeseman, G. Scalmani, V. Barone, 
 G. A. Petersson, H. Nakatsuji, X. Li, M. Caricato, A. V. Marenich, 
 J. Bloino, B. G. Janesko, R. Gomperts, B. Mennucci, H. P. Hratchian, 
 J. V. Ortiz, A. F. Izmaylov, J. L. Sonnenberg, D. Williams-Young, 
 F. Ding, F. Lipparini, F. Egidi, J. Goings, B. Peng, A. Petrone, 
 T. Henderson, D. Ranasinghe, V. G. Zakrzewski, J. Gao, N. Rega, 
 G. Zheng, W. Liang, M. Hada, M. Ehara, K. Toyota, R. Fukuda, 
 J. Hasegawa, M. Ishida, T. Nakajima, Y. Honda, O. Kitao, H. Nakai, 
 T. Vreven, K. Throssell, J. A. Montgomery, Jr., J. E. Peralta, 
 F. Ogliaro, M. J. Bearpark, J. J. Heyd, E. N. Brothers, K. N. Kudin, 
 V. N. Staroverov, T. A. Keith, R. Kobayashi, J. Normand, 
 K. Raghavachari, A. P. Rendell, J. C. Burant, S. S. Iyengar, 
 J. Tomasi, M. Cossi, J. M. Millam, M. Klene, C. Adamo, R. Cammi, 
 J. W. Ochterski, R. L. Martin, K. Morokuma, O. Farkas, 
 J. B. Foresman, and D. J. Fox, Gaussian, Inc., Wallingford CT, 2016.
 
 ******************************************
 Gaussian 16:  ES64L-G16RevA.03 25-Dec-2016
                 3-Dec-2024 
 ******************************************
 %chk=opt.chk
 %mem=16GB
 %nprocshared=24
 Will use up to   24 processors via shared memory.
 --------------------------------------------
 #p opt UM062X/6-311+G** nosymm int=superfine
 --------------------------------------------
 1/18=20,19=15,26=5,38=1/1,3;
 2/9=110,12=2,15=1,17=6,18=5,40=1/2;
 3/5=4,6=6,7=111,11=2,25=1,30=1,71=1,74=-55,75=-7,116=2/1,2,3;
 4//1;
 5/5=2,38=5/2;
 6/7=2,8=2,9=2,10=2,28=1/1;
 7/30=1/1,2,3,16;
 1/18=20,19=15,26=5/3(2);
 2/9=110,15=1/2;
 99//99;
 2/9=110,15=1/2;
 3/5=4,6=6,7=111,11=2,25=1,30=1,71=1,74=-55,75=-7,116=2/1,2,3;
 4/5=5,16=3,69=1/1;
 5/5=2,38=5/2;
 7/30=1/1,2,3,16;
 1/18=20,19=15,26=5/3(-5);
 2/9=110,15=1/2;
 6/7=2,8=2,9=2,10=2,19=2,28=1/1;
 99/9=1/99;
 Leave Link    1 at Tue Dec  3 11:37:02 2024, MaxMem=  2147483648 cpu:               0.9 elap:               0.0
 (Enter /home/szhao/Apps/g16/l101.exe)
 -------------------
 Title Card Required
 -------------------
 Symbolic Z-matrix:
 Charge =  1 Multiplicity = 2
 C                    -1   -2.28216   0.        0. 
 C                    -1    2.28216   0.        0. 
 H                    0    -3.38315   0.        0. 
 H                    0     3.38313   0.        0. 
 
 Add virtual bond connecting atoms C2         and C1         Dist= 8.63D+00.
 ITRead=  2  2  0  0
 MicOpt= -2 -2 -1 -1
 NAtoms=      4 NQM=        2 NQMF=       2 NMMI=      0 NMMIF=      0
                NMic=       0 NMicF=      0.
                    Isotopes and Nuclear Properties:
 (Nuclear quadrupole moments (NQMom) in fm**2, nuclear magnetic moments (NMagM)
  in nuclear magnetons)

  Atom         1           2           3           4
 IAtWgt=          12          12           1           1
 AtmWgt=  12.0000000  12.0000000   1.0078250   1.0078250
 NucSpn=           0           0           1           1
 AtZEff=  -0.0000000  -0.0000000  -0.0000000  -0.0000000
 NQMom=    0.0000000   0.0000000   0.0000000   0.0000000
 NMagM=    0.0000000   0.0000000   2.7928460   2.7928460
 AtZNuc=   6.0000000   6.0000000   1.0000000   1.0000000
 Leave Link  101 at Tue Dec  3 11:37:03 2024, MaxMem=  2147483648 cpu:              16.3 elap:               0.7
 (Enter /home/szhao/Apps/g16/l103.exe)

 GradGradGradGradGradGradGradGradGradGradGradGradGradGradGradGradGradGrad
 Berny optimization.
 Initialization pass.
                           ----------------------------
                           !    Initial Parameters    !
                           ! (Angstroms and Degrees)  !
 --------------------------                            --------------------------
 ! Name  Definition              Value          Derivative Info.                !
 --------------------------------------------------------------------------------
 ! X1    R(1,-1)                -2.2822         Frozen                          !
 ! Y1    R(1,-2)                 0.0            Frozen                          !
 ! Z1    R(1,-3)                 0.0            Frozen                          !
 ! X2    R(2,-1)                 2.2822         Frozen                          !
 ! Y2    R(2,-2)                 0.0            Frozen                          !
 ! Z2    R(2,-3)                 0.0            Frozen                          !
 ! R1    R(1,3)                  1.101          estimate D2E/DX2                !
 ! R2    R(2,4)                  1.101          estimate D2E/DX2                !
 ! A1    L(2,1,3,-2,-1)        180.0            estimate D2E/DX2                !
 ! A2    L(1,2,4,-2,-1)        180.0            estimate D2E/DX2                !
 ! A3    L(2,1,3,-3,-2)        180.0            estimate D2E/DX2                !
 ! A4    L(1,2,4,-3,-2)        180.0            estimate D2E/DX2                !
 --------------------------------------------------------------------------------
 Trust Radius=3.00D-01 FncErr=1.00D-07 GrdErr=1.00D-07 EigMax=2.50D+02 EigMin=1.00D-04
 Number of steps in this run=     22 maximum allowed number of steps=    100.
 GradGradGradGradGradGradGradGradGradGradGradGradGradGradGradGradGradGrad

 Leave Link  103 at Tue Dec  3 11:37:03 2024, MaxMem=  2147483648 cpu:               0.2 elap:               0.0
 (Enter /home/szhao/Apps/g16/l202.exe)
                          Input orientation:                          
 ---------------------------------------------------------------------
 Center     Atomic      Atomic             Coordinates (Angstroms)
 Number     Number       Type             X           Y           Z
 ---------------------------------------------------------------------
      1          6           0       -2.282160    0.000000    0.000000
      2          6           0        2.282160    0.000000    0.000000
      3          1           0       -3.383153    0.000000    0.000000
      4          1           0        3.383131    0.000000    0.000000
 ---------------------------------------------------------------------
                    Distance matrix (angstroms):
                    1          2          3          4
     1  C    0.000000
     2  C    4.564320   0.000000
     3  H    1.100993   5.665313   0.000000
     4  H    5.665291   1.100971   6.766284   0.000000
 Symmetry turned off by external request.
 Stoichiometry    C2H2(1+,2)
 Framework group  C*V[C*(HCCH)]
 Deg. of freedom     3
 Full point group                 C*V     NOp   4
 Rotational constants (GHZ):           0.0000000           3.4131427           3.4131427
 Leave Link  202 at Tue Dec  3 11:37:03 2024, MaxMem=  2147483648 cpu:               0.1 elap:               0.0
 (Enter /home/szhao/Apps/g16/l301.exe)
 Standard basis: 6-311+G(d,p) (5D, 7F)
 Ernie: Thresh=  0.10000D-02 Tol=  0.10000D-05 Strict=F.
    56 basis functions,    88 primitive gaussians,    58 cartesian basis functions
     7 alpha electrons        6 beta electrons
       nuclear repulsion energy        11.1405425085 Hartrees.
 IExCor= 4336 DFT=T Ex+Corr=M062X ExCW=0 ScaHFX=  0.540000
 ScaDFX=  1.000000  1.000000  1.000000  1.000000 ScalE2=  1.000000  1.000000
 IRadAn=      7 IRanWt=     -1 IRanGd=            0 ICorTp=0 IEmpDi=  4
 NAtoms=    4 NActive=    4 NUniq=    4 SFac= 1.00D+00 NAtFMM=   60 NAOKFM=F Big=F
 Integral buffers will be    131072 words long.
 Raffenetti 2 integral format.
 Two-electron integral symmetry is turned off.
 Leave Link  301 at Tue Dec  3 11:37:03 2024, MaxMem=  2147483648 cpu:               1.0 elap:               0.0
 (Enter /home/szhao/Apps/g16/l302.exe)
 NPDir=0 NMtPBC=     1 NCelOv=     1 NCel=       1 NClECP=     1 NCelD=      1
         NCelK=      1 NCelE2=     1 NClLst=     1 CellRange=     0.0.
 One-electron integrals computed using PRISM.
 NBasis=    56 RedAO= T EigKep=  1.68D-02  NBF=    56
 NBsUse=    56 1.00D-06 EigRej= -1.00D+00 NBFU=    56
 Precomputing XC quadrature grid using
 IXCGrd= 4 IRadAn=           7 IRanWt=          -1 IRanGd=           0 AccXCQ= 0.00D+00.
 Generated NRdTot=       0 NPtTot=           0 NUsed=           0 NTot=          32
 NSgBfM=    58    58    58    58    58 MxSgAt=     4 MxSgA2=     4.
 Leave Link  302 at Tue Dec  3 11:37:03 2024, MaxMem=  2147483648 cpu:               3.3 elap:               0.1
 (Enter /home/szhao/Apps/g16/l303.exe)
 DipDrv:  MaxL=1.
 Leave Link  303 at Tue Dec  3 11:37:04 2024, MaxMem=  2147483648 cpu:               0.8 elap:               0.0
 (Enter /home/szhao/Apps/g16/l401.exe)
 ExpMin= 4.38D-02 ExpMax= 4.56D+03 ExpMxC= 6.82D+02 IAcc=3 IRadAn=         7 AccDes= 0.00D+00
 Harris functional with IExCor= 1009 and IRadAn=       7 diagonalized for initial guess.
 HarFok:  IExCor= 1009 AccDes= 0.00D+00 IRadAn=         7 IDoV= 1 UseB2=F ITyADJ=14
 ICtDFT=  3500011 ScaDFX=  1.000000  1.000000  1.000000  1.000000
 FoFCou: FMM=F IPFlag=           0 FMFlag=      100000 FMFlg1=           0
         NFxFlg=           0 DoJE=T BraDBF=F KetDBF=T FulRan=T
         wScrn=  0.000000 ICntrl=       500 IOpCl=  0 I1Cent=   200000004 NGrid=           0
         NMat0=    1 NMatS0=      1 NMatT0=    0 NMatD0=    1 NMtDS0=    0 NMtDT0=    0
 Symmetry not used in FoFCou.
 Harris En= -76.6180785325574    
 JPrj=0 DoOrth=F DoCkMO=F.
 Initial guess <Sx>= 0.0000 <Sy>= 0.0000 <Sz>= 0.5000 <S**2>= 0.7500 S= 0.5000
 Leave Link  401 at Tue Dec  3 11:37:04 2024, MaxMem=  2147483648 cpu:               4.2 elap:               0.2
 (Enter /home/szhao/Apps/g16/l502.exe)
 Keep R1 and R2 ints in memory in canonical form, NReq=23774294.
 FoFCou: FMM=F IPFlag=           0 FMFlag=           0 FMFlg1=           0
         NFxFlg=           0 DoJE=F BraDBF=F KetDBF=F FulRan=T
         wScrn=  0.000000 ICntrl=       600 IOpCl=  0 I1Cent=           0 NGrid=           0
         NMat0=    1 NMatS0=   1596 NMatT0=    0 NMatD0=    1 NMtDS0=    0 NMtDT0=    0
 Symmetry not used in FoFCou.
 Two-electron integral symmetry not used.
 UHF open shell SCF:
 Using DIIS extrapolation, IDIIS=  1040.
 NGot=  2147483648 LenX=  2144926146 LenY=  2144922341
 Requested convergence on RMS density matrix=1.00D-08 within 128 cycles.
 Requested convergence on MAX density matrix=1.00D-06.
 Requested convergence on             energy=1.00D-06.
 No special actions if energy rises.

 Cycle   1  Pass 1  IDiag  1:
 E= -76.5625967074692    
 DIIS: error= 1.66D-02 at cycle   1 NSaved=   1.
 NSaved= 1 IEnMin= 1 EnMin= -76.5625967074692     IErMin= 1 ErrMin= 1.66D-02
 ErrMax= 1.66D-02  0.00D+00 EMaxC= 1.00D-01 BMatC= 8.52D-02 BMatP= 8.52D-02
 IDIUse=3 WtCom= 8.34D-01 WtEn= 1.66D-01
 Coeff-Com:  0.100D+01
 Coeff-En:   0.100D+01
 Coeff:      0.100D+01
 Gap=     0.139 Goal=   None    Shift=    0.000
 Gap=     0.312 Goal=   None    Shift=    0.000
 GapD=    0.139 DampG=1.000 DampE=0.500 DampFc=0.5000 IDamp=-1.
 Damping current iteration by 5.00D-01
 RMSDP=3.44D-03 MaxDP=8.26D-02              OVMax= 7.76D-02

 Cycle   2  Pass 1  IDiag  1:
 E= -76.5737222133029     Delta-E=       -0.011125505834 Rises=F Damp=T
 DIIS: error= 8.55D-03 at cycle   2 NSaved=   2.
 NSaved= 2 IEnMin= 2 EnMin= -76.5737222133029     IErMin= 2 ErrMin= 8.55D-03
 ErrMax= 8.55D-03  0.00D+00 EMaxC= 1.00D-01 BMatC= 1.53D-02 BMatP= 8.52D-02
 IDIUse=3 WtCom= 9.14D-01 WtEn= 8.55D-02
 Coeff-Com: -0.578D+00 0.158D+01
 Coeff-En:   0.000D+00 0.100D+01
 Coeff:     -0.528D+00 0.153D+01
 Gap=     0.062 Goal=   None    Shift=    0.000
 Gap=     0.305 Goal=   None    Shift=    0.000
 RMSDP=9.20D-04 MaxDP=2.07D-02 DE=-1.11D-02 OVMax= 2.23D-02

 Cycle   3  Pass 1  IDiag  1:
 E= -76.5834099718659     Delta-E=       -0.009687758563 Rises=F Damp=F
 DIIS: error= 8.54D-04 at cycle   3 NSaved=   3.
 NSaved= 3 IEnMin= 3 EnMin= -76.5834099718659     IErMin= 3 ErrMin= 8.54D-04
 ErrMax= 8.54D-04  0.00D+00 EMaxC= 1.00D-01 BMatC= 1.70D-04 BMatP= 1.53D-02
 IDIUse=3 WtCom= 9.91D-01 WtEn= 8.54D-03
 Coeff-Com: -0.716D-01 0.118D+00 0.953D+00
 Coeff-En:   0.000D+00 0.000D+00 0.100D+01
 Coeff:     -0.710D-01 0.117D+00 0.954D+00
 Gap=     0.061 Goal=   None    Shift=    0.000
 Gap=     0.307 Goal=   None    Shift=    0.000
 RMSDP=2.00D-04 MaxDP=4.38D-03 DE=-9.69D-03 OVMax= 1.66D-02

 Cycle   4  Pass 1  IDiag  1:
 E= -76.5834157988050     Delta-E=       -0.000005826939 Rises=F Damp=F
 DIIS: error= 1.19D-03 at cycle   4 NSaved=   4.
 NSaved= 4 IEnMin= 4 EnMin= -76.5834157988050     IErMin= 3 ErrMin= 8.54D-04
 ErrMax= 1.19D-03  0.00D+00 EMaxC= 1.00D-01 BMatC= 1.13D-04 BMatP= 1.70D-04
 IDIUse=3 WtCom= 9.88D-01 WtEn= 1.19D-02
 Coeff-Com: -0.335D-01 0.480D-01 0.533D+00 0.453D+00
 Coeff-En:   0.000D+00 0.000D+00 0.459D+00 0.541D+00
 Coeff:     -0.331D-01 0.474D-01 0.532D+00 0.454D+00
 Gap=     0.061 Goal=   None    Shift=    0.000
 Gap=     0.308 Goal=   None    Shift=    0.000
 RMSDP=2.10D-04 MaxDP=4.72D-03 DE=-5.83D-06 OVMax= 2.33D-02

 Cycle   5  Pass 1  IDiag  1:
 E= -76.5834275938619     Delta-E=       -0.000011795057 Rises=F Damp=F
 DIIS: error= 1.06D-03 at cycle   5 NSaved=   5.
 NSaved= 5 IEnMin= 5 EnMin= -76.5834275938619     IErMin= 3 ErrMin= 8.54D-04
 ErrMax= 1.06D-03  0.00D+00 EMaxC= 1.00D-01 BMatC= 8.69D-05 BMatP= 1.13D-04
 IDIUse=3 WtCom= 9.89D-01 WtEn= 1.06D-02
 Coeff-Com:  0.168D-01-0.367D-01-0.125D+00 0.515D+00 0.631D+00
 Coeff-En:   0.000D+00 0.000D+00 0.000D+00 0.456D+00 0.544D+00
 Coeff:      0.166D-01-0.364D-01-0.124D+00 0.514D+00 0.630D+00
 Gap=     0.061 Goal=   None    Shift=    0.000
 Gap=     0.306 Goal=   None    Shift=    0.000
 RMSDP=1.03D-04 MaxDP=2.28D-03 DE=-1.18D-05 OVMax= 1.12D-02

 Cycle   6  Pass 1  IDiag  1:
 E= -76.5834672533723     Delta-E=       -0.000039659510 Rises=F Damp=F
 DIIS: error= 3.82D-05 at cycle   6 NSaved=   6.
 NSaved= 6 IEnMin= 6 EnMin= -76.5834672533723     IErMin= 6 ErrMin= 3.82D-05
 ErrMax= 3.82D-05  0.00D+00 EMaxC= 1.00D-01 BMatC= 1.73D-07 BMatP= 8.69D-05
 IDIUse=1 WtCom= 1.00D+00 WtEn= 0.00D+00
 Coeff-Com:  0.853D-03-0.711D-03-0.227D-01-0.501D-01-0.252D-01 0.110D+01
 Coeff:      0.853D-03-0.711D-03-0.227D-01-0.501D-01-0.252D-01 0.110D+01
 Gap=     0.061 Goal=   None    Shift=    0.000
 Gap=     0.306 Goal=   None    Shift=    0.000
 RMSDP=6.75D-06 MaxDP=1.98D-04 DE=-3.97D-05 OVMax= 2.24D-04

 Cycle   7  Pass 1  IDiag  1:
 E= -76.5834673428342     Delta-E=       -0.000000089462 Rises=F Damp=F
 DIIS: error= 5.46D-06 at cycle   7 NSaved=   7.
 NSaved= 7 IEnMin= 7 EnMin= -76.5834673428342     IErMin= 7 ErrMin= 5.46D-06
 ErrMax= 5.46D-06  0.00D+00 EMaxC= 1.00D-01 BMatC= 3.63D-09 BMatP= 1.73D-07
 IDIUse=1 WtCom= 1.00D+00 WtEn= 0.00D+00
 Coeff-Com: -0.382D-03 0.620D-03 0.666D-02-0.233D-02-0.965D-02-0.224D+00
 Coeff-Com:  0.123D+01
 Coeff:     -0.382D-03 0.620D-03 0.666D-02-0.233D-02-0.965D-02-0.224D+00
 Coeff:      0.123D+01
 Gap=     0.061 Goal=   None    Shift=    0.000
 Gap=     0.306 Goal=   None    Shift=    0.000
 RMSDP=1.27D-06 MaxDP=2.92D-05 DE=-8.95D-08 OVMax= 3.22D-05

 Cycle   8  Pass 1  IDiag  1:
 E= -76.5834673453252     Delta-E=       -0.000000002491 Rises=F Damp=F
 DIIS: error= 1.14D-06 at cycle   8 NSaved=   8.
 NSaved= 8 IEnMin= 8 EnMin= -76.5834673453252     IErMin= 8 ErrMin= 1.14D-06
 ErrMax= 1.14D-06  0.00D+00 EMaxC= 1.00D-01 BMatC= 1.17D-10 BMatP= 3.63D-09
 IDIUse=1 WtCom= 1.00D+00 WtEn= 0.00D+00
 Coeff-Com:  0.121D-03-0.214D-03-0.202D-02 0.166D-02 0.374D-02 0.519D-01
 Coeff-Com: -0.362D+00 0.131D+01
 Coeff:      0.121D-03-0.214D-03-0.202D-02 0.166D-02 0.374D-02 0.519D-01
 Coeff:     -0.362D+00 0.131D+01
 Gap=     0.061 Goal=   None    Shift=    0.000
 Gap=     0.306 Goal=   None    Shift=    0.000
 RMSDP=2.20D-07 MaxDP=3.94D-06 DE=-2.49D-09 OVMax= 6.26D-06

 Cycle   9  Pass 1  IDiag  1:
 E= -76.5834673454230     Delta-E=       -0.000000000098 Rises=F Damp=F
 DIIS: error= 2.45D-07 at cycle   9 NSaved=   9.
 NSaved= 9 IEnMin= 9 EnMin= -76.5834673454230     IErMin= 9 ErrMin= 2.45D-07
 ErrMax= 2.45D-07  0.00D+00 EMaxC= 1.00D-01 BMatC= 1.05D-11 BMatP= 1.17D-10
 IDIUse=1 WtCom= 1.00D+00 WtEn= 0.00D+00
 Coeff-Com: -0.257D-04 0.489D-04 0.393D-03-0.655D-03-0.974D-03-0.382D-02
 Coeff-Com:  0.557D-01-0.476D+00 0.143D+01
 Coeff:     -0.257D-04 0.489D-04 0.393D-03-0.655D-03-0.974D-03-0.382D-02
 Coeff:      0.557D-01-0.476D+00 0.143D+01
 Gap=     0.061 Goal=   None    Shift=    0.000
 Gap=     0.306 Goal=   None    Shift=    0.000
 RMSDP=8.22D-08 MaxDP=1.08D-06 DE=-9.78D-11 OVMax= 5.40D-06

 Cycle  10  Pass 1  IDiag  1:
 E= -76.5834673454366     Delta-E=       -0.000000000014 Rises=F Damp=F
 DIIS: error= 2.21D-07 at cycle  10 NSaved=  10.
 NSaved=10 IEnMin=10 EnMin= -76.5834673454366     IErMin=10 ErrMin= 2.21D-07
 ErrMax= 2.21D-07  0.00D+00 EMaxC= 1.00D-01 BMatC= 9.24D-13 BMatP= 1.05D-11
 IDIUse=1 WtCom= 1.00D+00 WtEn= 0.00D+00
 Coeff-Com: -0.910D-06 0.126D-05-0.667D-05 0.242D-04 0.660D-05-0.129D-02
 Coeff-Com:  0.678D-02 0.413D-01-0.329D+00 0.128D+01
 Coeff:     -0.910D-06 0.126D-05-0.667D-05 0.242D-04 0.660D-05-0.129D-02
 Coeff:      0.678D-02 0.413D-01-0.329D+00 0.128D+01
 Gap=     0.061 Goal=   None    Shift=    0.000
 Gap=     0.306 Goal=   None    Shift=    0.000
 RMSDP=4.28D-08 MaxDP=4.19D-07 DE=-1.37D-11 OVMax= 4.87D-06

 Cycle  11  Pass 1  IDiag  1:
 E= -76.5834673454418     Delta-E=       -0.000000000005 Rises=F Damp=F
 DIIS: error= 2.21D-07 at cycle  11 NSaved=  11.
 NSaved=11 IEnMin=11 EnMin= -76.5834673454418     IErMin=10 ErrMin= 2.21D-07
 ErrMax= 2.21D-07  0.00D+00 EMaxC= 1.00D-01 BMatC= 5.92D-13 BMatP= 9.24D-13
 IDIUse=1 WtCom= 1.00D+00 WtEn= 0.00D+00
 Coeff-Com:  0.606D-06-0.112D-05-0.411D-05 0.711D-05 0.126D-04 0.202D-03
 Coeff-Com: -0.175D-02 0.201D-02 0.240D-01-0.222D+00 0.120D+01
 Coeff:      0.606D-06-0.112D-05-0.411D-05 0.711D-05 0.126D-04 0.202D-03
 Coeff:     -0.175D-02 0.201D-02 0.240D-01-0.222D+00 0.120D+01
 Gap=     0.061 Goal=   None    Shift=    0.000
 Gap=     0.306 Goal=   None    Shift=    0.000
 RMSDP=3.78D-08 MaxDP=3.75D-07 DE=-5.20D-12 OVMax= 4.42D-06

 Cycle  12  Pass 1  IDiag  1:
 E= -76.5834673454464     Delta-E=       -0.000000000005 Rises=F Damp=F
 DIIS: error= 2.21D-07 at cycle  12 NSaved=  12.
 NSaved=12 IEnMin=12 EnMin= -76.5834673454464     IErMin=10 ErrMin= 2.21D-07
 ErrMax= 2.21D-07  0.00D+00 EMaxC= 1.00D-01 BMatC= 5.88D-13 BMatP= 5.92D-13
 IDIUse=1 WtCom= 1.00D+00 WtEn= 0.00D+00
 Coeff-Com: -0.456D-07 0.881D-07 0.334D-06-0.221D-06-0.501D-06-0.112D-04
 Coeff-Com:  0.959D-04-0.336D-03-0.165D-03 0.149D-01-0.153D+00 0.114D+01
 Coeff:     -0.456D-07 0.881D-07 0.334D-06-0.221D-06-0.501D-06-0.112D-04
 Coeff:      0.959D-04-0.336D-03-0.165D-03 0.149D-01-0.153D+00 0.114D+01
 Gap=     0.061 Goal=   None    Shift=    0.000
 Gap=     0.306 Goal=   None    Shift=    0.000
 RMSDP=3.53D-08 MaxDP=3.50D-07 DE=-4.52D-12 OVMax= 4.12D-06

 Cycle  13  Pass 1  IDiag  1:
 E= -76.5834673454507     Delta-E=       -0.000000000004 Rises=F Damp=F
 DIIS: error= 2.21D-07 at cycle  13 NSaved=  13.
 NSaved=13 IEnMin=13 EnMin= -76.5834673454507     IErMin=10 ErrMin= 2.21D-07
 ErrMax= 2.21D-07  0.00D+00 EMaxC= 1.00D-01 BMatC= 5.88D-13 BMatP= 5.88D-13
 IDIUse=1 WtCom= 1.00D+00 WtEn= 0.00D+00
 Coeff-Com: -0.420D-07 0.813D-07 0.309D-06-0.203D-06-0.466D-06-0.104D-04
 Coeff-Com:  0.890D-04-0.313D-03-0.148D-03 0.138D-01-0.142D+00 0.106D+01
 Coeff-Com:  0.707D-01
 Coeff:     -0.420D-07 0.813D-07 0.309D-06-0.203D-06-0.466D-06-0.104D-04
 Coeff:      0.890D-04-0.313D-03-0.148D-03 0.138D-01-0.142D+00 0.106D+01
 Coeff:      0.707D-01
 Gap=     0.061 Goal=   None    Shift=    0.000
 Gap=     0.306 Goal=   None    Shift=    0.000
 RMSDP=2.17D-09 MaxDP=2.15D-08 DE=-4.32D-12 OVMax= 2.53D-07

 SCF Done:  E(UM062X) =  -76.5834673455     A.U. after   13 cycles
            NFock= 13  Conv=0.22D-08     -V/T= 2.0023
 <Sx>= 0.0000 <Sy>= 0.0000 <Sz>= 0.5000 <S**2>= 0.7513 S= 0.5007
 <L.S>=  0.00000000000    
 KE= 7.640530062015D+01 PE=-1.970079202034D+02 EE= 3.287860972929D+01
 Annihilation of the first spin contaminant:
 S**2 before annihilation     0.7513,   after     0.7500
 Leave Link  502 at Tue Dec  3 11:37:06 2024, MaxMem=  2147483648 cpu:              52.7 elap:               2.3
 (Enter /home/szhao/Apps/g16/l601.exe)
 Copying SCF densities to generalized density rwf, IOpCl= 1 IROHF=0.

 **********************************************************************

            Population analysis using the SCF density.

 **********************************************************************

 Alpha  occ. eigenvalues --  -10.93652 -10.93651  -0.97944  -0.97895  -0.62982
 Alpha  occ. eigenvalues --   -0.62624  -0.46789
 Alpha virt. eigenvalues --   -0.40643  -0.32565  -0.32452  -0.11706  -0.10982
 Alpha virt. eigenvalues --   -0.07272  -0.06994  -0.06291  -0.04560  -0.04270
 Alpha virt. eigenvalues --   -0.01382   0.00390   0.05460   0.27890   0.29162
 Alpha virt. eigenvalues --    0.37295   0.38089   0.38160   0.39026   0.39876
 Alpha virt. eigenvalues --    0.42705   0.51044   0.59358   0.90151   0.90301
 Alpha virt. eigenvalues --    0.90386   0.90481   1.08389   1.08422   1.09453
 Alpha virt. eigenvalues --    1.09486   1.36990   1.37180   1.64616   1.64717
 Alpha virt. eigenvalues --    1.64898   1.65009   2.17377   2.18964   2.29050
 Alpha virt. eigenvalues --    2.29997   2.44563   2.45271   2.45960   2.46682
 Alpha virt. eigenvalues --    2.95859   2.96425  23.27857  23.30024
  Beta  occ. eigenvalues --  -10.93236 -10.93236  -0.95585  -0.95579  -0.61596
  Beta  occ. eigenvalues --   -0.61216
  Beta virt. eigenvalues --   -0.30648  -0.30500  -0.29027  -0.28851  -0.12109
  Beta virt. eigenvalues --   -0.10940  -0.06533  -0.06498  -0.05608  -0.03743
  Beta virt. eigenvalues --   -0.02780  -0.01666   0.02068   0.07319   0.27036
  Beta virt. eigenvalues --    0.28348   0.37576   0.37889   0.38869   0.39010
  Beta virt. eigenvalues --    0.43626   0.45380   0.53082   0.62116   0.97711
  Beta virt. eigenvalues --    0.97883   0.98636   0.98803   1.11699   1.11699
  Beta virt. eigenvalues --    1.11710   1.11710   1.37348   1.37458   1.66432
  Beta virt. eigenvalues --    1.66527   1.67104   1.67202   2.31745   2.32409
  Beta virt. eigenvalues --    2.35855   2.39113   2.47104   2.47845   2.49448
  Beta virt. eigenvalues --    2.50190   3.07818   3.07929  23.29275  23.31444
          Condensed to atoms (all electrons):
               1          2          3          4
     1  C    5.467351   0.003417   0.249298   0.000136
     2  C    0.003417   5.467355   0.000136   0.249297
     3  H    0.249298   0.000136   0.530361  -0.000000
     4  H    0.000136   0.249297  -0.000000   0.530362
          Atomic-Atomic Spin Densities.
               1          2          3          4
     1  C    0.519759   0.002237  -0.005894  -0.000033
     2  C    0.002237   0.519763  -0.000033  -0.005894
     3  H   -0.005894  -0.000033  -0.010145  -0.000000
     4  H   -0.000033  -0.005894  -0.000000  -0.010144
 Mulliken charges and spin densities:
               1          2
     1  C    0.279797   0.516069
     2  C    0.279794   0.516073
     3  H    0.220205  -0.016071
     4  H    0.220204  -0.016071
 Sum of Mulliken charges =   1.00000   1.00000
 Mulliken charges and spin densities with hydrogens summed into heavy atoms:
               1          2
     1  C    0.500002   0.499998
     2  C    0.499998   0.500002
 Electronic spatial extent (au):  <R**2>=            296.0855
 Charge=              1.0000 electrons
 Dipole moment (field-independent basis, Debye):
    X=             -0.0000    Y=             -0.0000    Z=             -0.0000  Tot=              0.0000
 Quadrupole moment (field-independent basis, Debye-Ang):
   XX=             32.7829   YY=            -11.2296   ZZ=             -9.6511
   XY=             -0.0000   XZ=             -0.0000   YZ=             -0.6070
 Traceless Quadrupole moment (field-independent basis, Debye-Ang):
   XX=             28.8155   YY=            -15.1970   ZZ=            -13.6185
   XY=             -0.0000   XZ=             -0.0000   YZ=             -0.6070
 Octapole moment (field-independent basis, Debye-Ang**2):
  XXX=             -0.0004  YYY=             -0.0000  ZZZ=             -0.0000  XYY=              0.0001
  XXY=             -0.0000  XXZ=             -0.0000  XZZ=              0.0001  YZZ=             -0.0000
  YYZ=             -0.0000  XYZ=             -0.0000
 Hexadecapole moment (field-independent basis, Debye-Ang**3):
 XXXX=            -21.3222 YYYY=            -12.0218 ZZZZ=             -8.6679 XXXY=             -0.0000
 XXXZ=             -0.0000 YYYX=              0.0000 YYYZ=             -0.6449 ZZZX=              0.0000
 ZZZY=             -0.6448 XXYY=            -66.3862 XXZZ=            -57.5197 YYZZ=             -3.4483
 XXYZ=             -3.4094 YYXZ=              0.0000 ZZXY=              0.0000
 N-N= 1.114054250853D+01 E-N=-1.970079202034D+02  KE= 7.640530062015D+01
                          Isotropic Fermi Contact Couplings
        Atom                 a.u.       MegaHertz       Gauss      10(-4) cm-1
     1  C(13)              0.07842      88.15583      31.45619      29.40562
     2  C(13)              0.07842      88.15635      31.45638      29.40579
     3  H(1)              -0.00381     -17.01790      -6.07241      -5.67656
     4  H(1)              -0.00381     -17.01601      -6.07173      -5.67593
 --------------------------------------------------------
       Center         ----  Spin Dipole Couplings  ----
                      3XX-RR        3YY-RR        3ZZ-RR
 --------------------------------------------------------
     1   Atom       -0.322959      0.564263     -0.241304
     2   Atom       -0.322963      0.564268     -0.241304
     3   Atom        0.042902     -0.007039     -0.035863
     4   Atom        0.042903     -0.007039     -0.035864
 --------------------------------------------------------
                        XY            XZ            YZ
 --------------------------------------------------------
     1   Atom        0.000000      0.000000      0.309759
     2   Atom       -0.000000      0.000000      0.309761
     3   Atom       -0.000000     -0.000000      0.011083
     4   Atom       -0.000000      0.000000      0.011084
 --------------------------------------------------------


 ---------------------------------------------------------------------------------
              Anisotropic Spin Dipole Couplings in Principal Axis System
 ---------------------------------------------------------------------------------

       Atom             a.u.   MegaHertz   Gauss  10(-4) cm-1        Axes

              Baa    -0.3466   -46.516   -16.598   -15.516  0.0000 -0.3220  0.9468
     1 C(13)  Bbb    -0.3230   -43.338   -15.464   -14.456  1.0000  0.0000 -0.0000
              Bcc     0.6696    89.854    32.062    29.972  0.0000  0.9468  0.3220
 
              Baa    -0.3466   -46.516   -16.598   -15.516 -0.0000 -0.3220  0.9468
     2 C(13)  Bbb    -0.3230   -43.339   -15.464   -14.456  1.0000 -0.0000  0.0000
              Bcc     0.6696    89.854    32.062    29.972  0.0000  0.9468  0.3220
 
              Baa    -0.0396   -21.145    -7.545    -7.053 -0.0000 -0.3220  0.9468
     3 H(1)   Bbb    -0.0033    -1.745    -0.623    -0.582  0.0000  0.9468  0.3220
              Bcc     0.0429    22.890     8.168     7.635  1.0000 -0.0000 -0.0000
 
              Baa    -0.0396   -21.146    -7.546    -7.054 -0.0000 -0.3220  0.9468
     4 H(1)   Bbb    -0.0033    -1.744    -0.622    -0.582  0.0000  0.9468  0.3220
              Bcc     0.0429    22.891     8.168     7.636  1.0000 -0.0000 -0.0000
 

 ---------------------------------------------------------------------------------

 No NMR shielding tensors so no spin-rotation constants.
 Leave Link  601 at Tue Dec  3 11:37:06 2024, MaxMem=  2147483648 cpu:               4.0 elap:               0.2
 (Enter /home/szhao/Apps/g16/l701.exe)
 ... and contract with generalized density number  0.
 Compute integral first derivatives.
 Leave Link  701 at Tue Dec  3 11:37:06 2024, MaxMem=  2147483648 cpu:               2.7 elap:               0.1
 (Enter /home/szhao/Apps/g16/l702.exe)
 L702 exits ... SP integral derivatives will be done elsewhere.
 Leave Link  702 at Tue Dec  3 11:37:06 2024, MaxMem=  2147483648 cpu:               0.7 elap:               0.0
 (Enter /home/szhao/Apps/g16/l703.exe)
 Integral derivatives from FoFJK, PRISM(SPDF).
 Compute integral first derivatives, UseDBF=F ICtDFT=           0.
 Calling FoFJK, ICntrl=      2127 FMM=F ISym2X=0 I1Cent= 0 IOpClX= 1 NMat=1 NMatS=1 NMatT=0.
 FoFJK:  IHMeth= 1 ICntrl=    2127 DoSepK=F KAlg= 0 I1Cent=           0 FoldK=F
 IRaf=         0 NMat=       1 IRICut=       1 DoRegI=T DoRafI=F ISym2E= 0 IDoP0=0 IntGTp=1.
 FoFCou: FMM=F IPFlag=           0 FMFlag=      100000 FMFlg1=         800
         NFxFlg=           0 DoJE=F BraDBF=F KetDBF=F FulRan=T
         wScrn=  0.000000 ICntrl=      2127 IOpCl=  1 I1Cent=           0 NGrid=           0
         NMat0=    1 NMatS0=      1 NMatT0=    0 NMatD0=    1 NMtDS0=    0 NMtDT0=    0
 Symmetry not used in FoFCou.
 Leave Link  703 at Tue Dec  3 11:37:07 2024, MaxMem=  2147483648 cpu:               9.5 elap:               0.4
 (Enter /home/szhao/Apps/g16/l716.exe)
 Dipole        =-1.38041881D-05-3.30261192D-16-8.55737095D-16
 -------------------------------------------------------------------
 Center     Atomic                   Forces (Hartrees/Bohr)
 Number     Number              X              Y              Z
 -------------------------------------------------------------------
      1        6          -0.000000000   -0.000000000   -0.000000000
      2        6          -0.000000000   -0.000000000   -0.000000000
      3        1          -0.010498996    0.000000000   -0.000000000
      4        1           0.010513198   -0.000000000    0.000000000
 -------------------------------------------------------------------
 Cartesian Forces:  Max     0.010513198 RMS     0.004289097
 Leave Link  716 at Tue Dec  3 11:37:07 2024, MaxMem=  2147483648 cpu:               0.7 elap:               0.0
 (Enter /home/szhao/Apps/g16/l103.exe)

 GradGradGradGradGradGradGradGradGradGradGradGradGradGradGradGradGradGrad
 Berny optimization.
 FormGI is forming the generalized inverse of G from B-inverse, IUseBI=4.
 Internal  Forces:  Max     0.010513198 RMS     0.006065699
 Search for a local minimum.
 Step number   1 out of a maximum of   22
 All quantities printed in internal units (Hartrees-Bohrs-Radians)
 RMS Force = .60657D-02 SwitMx=.10000D-02 MixMth= 1
 Mixed Optimization -- RFO/linear search
 Second derivative matrix not updated -- first step.
 The second derivative matrix:
                          X1        Y1        Z1        X2        Y2
           X1           0.50000
           Y1           0.00000   0.50000
           Z1           0.00000   0.00000   0.50000
           X2           0.00000   0.00000   0.00000   0.50000
           Y2           0.00000   0.00000   0.00000   0.00000   0.50000
           Z2           0.00000   0.00000   0.00000   0.00000   0.00000
           R1           0.00000   0.00000   0.00000   0.00000   0.00000
           R2           0.00000   0.00000   0.00000   0.00000   0.00000
           A1           0.00000   0.00000   0.00000   0.00000   0.00000
           A2           0.00000   0.00000   0.00000   0.00000   0.00000
           A3           0.00000   0.00000   0.00000   0.00000   0.00000
           A4           0.00000   0.00000   0.00000   0.00000   0.00000
                          Z2        R1        R2        A1        A2
           Z2           0.50000
           R1           0.00000   0.33573
           R2           0.00000   0.00000   0.33575
           A1           0.00000   0.00000   0.00000   0.00230
           A2           0.00000   0.00000   0.00000   0.00000   0.00230
           A3           0.00000   0.00000   0.00000   0.00000   0.00000
           A4           0.00000   0.00000   0.00000   0.00000   0.00000
                          A3        A4
           A3           0.00230
           A4           0.00000   0.00230
 ITU=  0
     Eigenvalues ---    0.00230   0.00230   0.00230   0.33573   0.33575
     Eigenvalues --- 1000.000001000.000001000.000001000.000001000.00000
     Eigenvalues --- 1000.000001000.00000
 RFO step:  Lambda=-6.56241024D-04 EMin= 2.30000000D-03
 Linear search not attempted -- first point.
 Iteration  1 RMS(Cart)=  0.01275023 RMS(Int)=  0.00000000
 Iteration  2 RMS(Cart)=  0.00000000 RMS(Int)=  0.00000000
 ITry= 1 IFail=0 DXMaxC= 3.13D-02 DCOld= 1.00D+10 DXMaxT= 3.00D-01 DXLimC= 3.00D+00 Rises=F
 Variable       Old X    -DE/DX   Delta X   Delta X   Delta X     New X
                                 (Linear)    (Quad)   (Total)
    X1       -4.31266  -0.01050   0.00000   0.00000   0.00000  -4.31266
    Y1        0.00000   0.00000   0.00000   0.00000   0.00000   0.00000
    Z1        0.00000  -0.00000   0.00000   0.00000   0.00000   0.00000
    X2        4.31266   0.01051   0.00000   0.00000   0.00000   4.31266
    Y2        0.00000  -0.00000   0.00000   0.00000   0.00000   0.00000
    Z2        0.00000  -0.00000   0.00000   0.00000   0.00000   0.00000
    R1        2.08058   0.01050   0.00000   0.03121   0.03121   2.11179
    R2        2.08053   0.01051   0.00000   0.03125   0.03125   2.11179
    A1        3.14159   0.00000   0.00000  -0.00000   0.00000   3.14159
    A2        3.14159  -0.00000   0.00000   0.00000   0.00000   3.14159
    A3        3.14159   0.00000   0.00000   0.00000   0.00000   3.14159
    A4        3.14159   0.00000   0.00000   0.00000   0.00000   3.14159
         Item               Value     Threshold  Converged?
 Maximum Force            0.010513     0.000450     NO 
 RMS     Force            0.006066     0.000300     NO 
 Maximum Displacement     0.031252     0.001800     NO 
 RMS     Displacement     0.012750     0.001200     NO 
 Predicted change in Energy=-3.287619D-04
 Lowest energy point so far.  Saving SCF results.
 GradGradGradGradGradGradGradGradGradGradGradGradGradGradGradGradGradGrad

 Leave Link  103 at Tue Dec  3 11:37:07 2024, MaxMem=  2147483648 cpu:               0.1 elap:               0.0
 (Enter /home/szhao/Apps/g16/l202.exe)
                          Input orientation:                          
 ---------------------------------------------------------------------
 Center     Atomic      Atomic             Coordinates (Angstroms)
 Number     Number       Type             X           Y           Z
 ---------------------------------------------------------------------
      1          6           0       -2.282160    0.000000    0.000000
      2          6           0        2.282160    0.000000    0.000000
      3          1           0       -3.399669    0.000000    0.000000
      4          1           0        3.399669   -0.000000    0.000000
 ---------------------------------------------------------------------
                    Distance matrix (angstroms):
                    1          2          3          4
     1  C    0.000000
     2  C    4.564320   0.000000
     3  H    1.117509   5.681829   0.000000
     4  H    5.681829   1.117509   6.799338   0.000000
 Symmetry turned off by external request.
 Stoichiometry    C2H2(1+,2)
 Framework group  C*V[C*(HCCH)]
 Deg. of freedom     3
 Full point group                 C*V     NOp   4
 Rotational constants (GHZ):           0.0000000           3.4079421           3.4079421
 Leave Link  202 at Tue Dec  3 11:37:07 2024, MaxMem=  2147483648 cpu:               0.0 elap:               0.0
 (Enter /home/szhao/Apps/g16/l301.exe)
 Standard basis: 6-311+G(d,p) (5D, 7F)
 Ernie: Thresh=  0.10000D-02 Tol=  0.10000D-05 Strict=F.
    56 basis functions,    88 primitive gaussians,    58 cartesian basis functions
     7 alpha electrons        6 beta electrons
       nuclear repulsion energy        11.0516026041 Hartrees.
 IExCor= 4336 DFT=T Ex+Corr=M062X ExCW=0 ScaHFX=  0.540000
 ScaDFX=  1.000000  1.000000  1.000000  1.000000 ScalE2=  1.000000  1.000000
 IRadAn=      7 IRanWt=     -1 IRanGd=            0 ICorTp=0 IEmpDi=  4
 NAtoms=    4 NActive=    4 NUniq=    4 SFac= 1.00D+00 NAtFMM=   60 NAOKFM=F Big=F
 Integral buffers will be    131072 words long.
 Raffenetti 2 integral format.
 Two-electron integral symmetry is turned off.
 Leave Link  301 at Tue Dec  3 11:37:07 2024, MaxMem=  2147483648 cpu:               1.0 elap:               0.0
 (Enter /home/szhao/Apps/g16/l302.exe)
 NPDir=0 NMtPBC=     1 NCelOv=     1 NCel=       1 NClECP=     1 NCelD=      1
         NCelK=      1 NCelE2=     1 NClLst=     1 CellRange=     0.0.
 One-electron integrals computed using PRISM.
 NBasis=    56 RedAO= T EigKep=  1.71D-02  NBF=    56
 NBsUse=    56 1.00D-06 EigRej= -1.00D+00 NBFU=    56
 Precomputing XC quadrature grid using
 IXCGrd= 4 IRadAn=           7 IRanWt=          -1 IRanGd=           0 AccXCQ= 0.00D+00.
 Generated NRdTot=       0 NPtTot=           0 NUsed=           0 NTot=          32
 NSgBfM=    58    58    58    58    58 MxSgAt=     4 MxSgA2=     4.
 Leave Link  302 at Tue Dec  3 11:37:07 2024, MaxMem=  2147483648 cpu:               3.2 elap:               0.1
 (Enter /home/szhao/Apps/g16/l303.exe)
 DipDrv:  MaxL=1.
 Leave Link  303 at Tue Dec  3 11:37:07 2024, MaxMem=  2147483648 cpu:               1.5 elap:               0.1
 (Enter /home/szhao/Apps/g16/l401.exe)
 Initial guess from the checkpoint file:  "opt.chk"
 B after Tr=     0.000003    0.000000    0.000000
         Rot=    0.996300    0.085949    0.000000    0.000000 Ang=   9.86 deg.
 Guess basis will be translated and rotated to current coordinates.
 JPrj=2 DoOrth=T DoCkMO=T.
 Initial guess <Sx>= 0.0000 <Sy>= 0.0000 <Sz>= 0.5000 <S**2>= 0.7514 S= 0.5007
 Generating alternative initial guess.
 ExpMin= 4.38D-02 ExpMax= 4.56D+03 ExpMxC= 6.82D+02 IAcc=3 IRadAn=         5 AccDes= 0.00D+00
 Harris functional with IExCor= 1009 and IRadAn=       5 diagonalized for initial guess.
 HarFok:  IExCor= 1009 AccDes= 0.00D+00 IRadAn=         5 IDoV= 1 UseB2=F ITyADJ=14
 ICtDFT=  3500011 ScaDFX=  1.000000  1.000000  1.000000  1.000000
 FoFCou: FMM=F IPFlag=           0 FMFlag=      100000 FMFlg1=           0
         NFxFlg=           0 DoJE=T BraDBF=F KetDBF=T FulRan=T
         wScrn=  0.000000 ICntrl=       500 IOpCl=  0 I1Cent=   200000004 NGrid=           0
         NMat0=    1 NMatS0=      1 NMatT0=    0 NMatD0=    1 NMtDS0=    0 NMtDT0=    0
 Symmetry not used in FoFCou.
 Harris En= -76.6197195432227    
 Leave Link  401 at Tue Dec  3 11:37:07 2024, MaxMem=  2147483648 cpu:               4.6 elap:               0.2
 (Enter /home/szhao/Apps/g16/l502.exe)
 Keep R1 and R2 ints in memory in canonical form, NReq=23774294.
 FoFCou: FMM=F IPFlag=           0 FMFlag=           0 FMFlg1=           0
         NFxFlg=           0 DoJE=F BraDBF=F KetDBF=F FulRan=T
         wScrn=  0.000000 ICntrl=       600 IOpCl=  0 I1Cent=           0 NGrid=           0
         NMat0=    1 NMatS0=   1596 NMatT0=    0 NMatD0=    1 NMtDS0=    0 NMtDT0=    0
 Symmetry not used in FoFCou.
 Two-electron integral symmetry not used.
 UHF open shell SCF:
 Using DIIS extrapolation, IDIIS=  1040.
 NGot=  2147483648 LenX=  2144926146 LenY=  2144922341
 Requested convergence on RMS density matrix=1.00D-08 within 128 cycles.
 Requested convergence on MAX density matrix=1.00D-06.
 Requested convergence on             energy=1.00D-06.
 No special actions if energy rises.

 Cycle   1  Pass 1  IDiag  1:
 E= -76.5837093837415    
 DIIS: error= 1.56D-03 at cycle   1 NSaved=   1.
 NSaved= 1 IEnMin= 1 EnMin= -76.5837093837415     IErMin= 1 ErrMin= 1.56D-03
 ErrMax= 1.56D-03  0.00D+00 EMaxC= 1.00D-01 BMatC= 3.57D-04 BMatP= 3.57D-04
 IDIUse=3 WtCom= 9.84D-01 WtEn= 1.56D-02
 Coeff-Com:  0.100D+01
 Coeff-En:   0.100D+01
 Coeff:      0.100D+01
 Gap=     0.509 Goal=   None    Shift=    0.000
 Gap=     0.649 Goal=   None    Shift=    0.000
 GapD=    0.509 DampG=2.000 DampE=1.000 DampFc=2.0000 IDamp=-1.
 RMSDP=1.30D-04 MaxDP=1.47D-03              OVMax= 2.90D-03

 Cycle   2  Pass 1  IDiag  1:
 E= -76.5837966382873     Delta-E=       -0.000087254546 Rises=F Damp=F
 DIIS: error= 2.04D-04 at cycle   2 NSaved=   2.
 NSaved= 2 IEnMin= 2 EnMin= -76.5837966382873     IErMin= 2 ErrMin= 2.04D-04
 ErrMax= 2.04D-04  0.00D+00 EMaxC= 1.00D-01 BMatC= 7.48D-06 BMatP= 3.57D-04
 IDIUse=3 WtCom= 9.98D-01 WtEn= 2.04D-03
 Coeff-Com: -0.569D-02 0.101D+01
 Coeff-En:   0.000D+00 0.100D+01
 Coeff:     -0.568D-02 0.101D+01
 Gap=     0.061 Goal=   None    Shift=    0.000
 Gap=     0.305 Goal=   None    Shift=    0.000
 RMSDP=4.33D-05 MaxDP=1.16D-03 DE=-8.73D-05 OVMax= 7.46D-04

 Cycle   3  Pass 1  IDiag  1:
 E= -76.5837995634347     Delta-E=       -0.000002925147 Rises=F Damp=F
 DIIS: error= 7.58D-05 at cycle   3 NSaved=   3.
 NSaved= 3 IEnMin= 3 EnMin= -76.5837995634347     IErMin= 3 ErrMin= 7.58D-05
 ErrMax= 7.58D-05  0.00D+00 EMaxC= 1.00D-01 BMatC= 6.92D-07 BMatP= 7.48D-06
 IDIUse=1 WtCom= 1.00D+00 WtEn= 0.00D+00
 Coeff-Com: -0.160D-01 0.752D-01 0.941D+00
 Coeff:     -0.160D-01 0.752D-01 0.941D+00
 Gap=     0.061 Goal=   None    Shift=    0.000
 Gap=     0.305 Goal=   None    Shift=    0.000
 RMSDP=8.45D-06 MaxDP=1.32D-04 DE=-2.93D-06 OVMax= 2.96D-04

 Cycle   4  Pass 1  IDiag  1:
 E= -76.5837998316503     Delta-E=       -0.000000268216 Rises=F Damp=F
 DIIS: error= 2.48D-05 at cycle   4 NSaved=   4.
 NSaved= 4 IEnMin= 4 EnMin= -76.5837998316503     IErMin= 4 ErrMin= 2.48D-05
 ErrMax= 2.48D-05  0.00D+00 EMaxC= 1.00D-01 BMatC= 8.27D-08 BMatP= 6.92D-07
 IDIUse=1 WtCom= 1.00D+00 WtEn= 0.00D+00
 Coeff-Com:  0.412D-04-0.703D-01 0.301D-01 0.104D+01
 Coeff:      0.412D-04-0.703D-01 0.301D-01 0.104D+01
 Gap=     0.061 Goal=   None    Shift=    0.000
 Gap=     0.304 Goal=   None    Shift=    0.000
 RMSDP=5.42D-06 MaxDP=1.49D-04 DE=-2.68D-07 OVMax= 3.68D-04

 Cycle   5  Pass 1  IDiag  1:
 E= -76.5837998417759     Delta-E=       -0.000000010126 Rises=F Damp=F
 DIIS: error= 3.07D-05 at cycle   5 NSaved=   5.
 NSaved= 5 IEnMin= 5 EnMin= -76.5837998417759     IErMin= 4 ErrMin= 2.48D-05
 ErrMax= 3.07D-05  0.00D+00 EMaxC= 1.00D-01 BMatC= 5.87D-08 BMatP= 8.27D-08
 IDIUse=1 WtCom= 1.00D+00 WtEn= 0.00D+00
 Coeff-Com:  0.943D-03-0.433D-01-0.313D-01 0.590D+00 0.483D+00
 Coeff:      0.943D-03-0.433D-01-0.313D-01 0.590D+00 0.483D+00
 Gap=     0.061 Goal=   None    Shift=    0.000
 Gap=     0.304 Goal=   None    Shift=    0.000
 RMSDP=4.94D-06 MaxDP=1.21D-04 DE=-1.01D-08 OVMax= 5.46D-04

 Cycle   6  Pass 1  IDiag  1:
 E= -76.5837998451214     Delta-E=       -0.000000003346 Rises=F Damp=F
 DIIS: error= 2.95D-05 at cycle   6 NSaved=   6.
 NSaved= 6 IEnMin= 6 EnMin= -76.5837998451214     IErMin= 4 ErrMin= 2.48D-05
 ErrMax= 2.95D-05  0.00D+00 EMaxC= 1.00D-01 BMatC= 5.21D-08 BMatP= 5.87D-08
 IDIUse=1 WtCom= 1.00D+00 WtEn= 0.00D+00
 Coeff-Com:  0.101D-02-0.163D-02-0.500D-01-0.247D-01 0.524D+00 0.551D+00
 Coeff:      0.101D-02-0.163D-02-0.500D-01-0.247D-01 0.524D+00 0.551D+00
 Gap=     0.061 Goal=   None    Shift=    0.000
 Gap=     0.304 Goal=   None    Shift=    0.000
 RMSDP=2.51D-06 MaxDP=6.01D-05 DE=-3.35D-09 OVMax= 2.71D-04

 Cycle   7  Pass 1  IDiag  1:
 E= -76.5837998691518     Delta-E=       -0.000000024030 Rises=F Damp=F
 DIIS: error= 1.27D-06 at cycle   7 NSaved=   7.
 NSaved= 7 IEnMin= 7 EnMin= -76.5837998691518     IErMin= 7 ErrMin= 1.27D-06
 ErrMax= 1.27D-06  0.00D+00 EMaxC= 1.00D-01 BMatC= 1.79D-10 BMatP= 5.21D-08
 IDIUse=1 WtCom= 1.00D+00 WtEn= 0.00D+00
 Coeff-Com: -0.281D-03 0.373D-02 0.142D-01-0.438D-01-0.152D+00-0.126D+00
 Coeff-Com:  0.130D+01
 Coeff:     -0.281D-03 0.373D-02 0.142D-01-0.438D-01-0.152D+00-0.126D+00
 Coeff:      0.130D+01
 Gap=     0.061 Goal=   None    Shift=    0.000
 Gap=     0.304 Goal=   None    Shift=    0.000
 RMSDP=2.73D-07 MaxDP=3.08D-06 DE=-2.40D-08 OVMax= 8.03D-06

 Cycle   8  Pass 1  IDiag  1:
 E= -76.5837998693010     Delta-E=       -0.000000000149 Rises=F Damp=F
 DIIS: error= 2.88D-07 at cycle   8 NSaved=   8.
 NSaved= 8 IEnMin= 8 EnMin= -76.5837998693010     IErMin= 8 ErrMin= 2.88D-07
 ErrMax= 2.88D-07  0.00D+00 EMaxC= 1.00D-01 BMatC= 1.00D-11 BMatP= 1.79D-10
 IDIUse=1 WtCom= 1.00D+00 WtEn= 0.00D+00
 Coeff-Com:  0.355D-04-0.113D-02-0.208D-02 0.173D-01 0.142D-01 0.372D-02
 Coeff-Com: -0.403D+00 0.137D+01
 Coeff:      0.355D-04-0.113D-02-0.208D-02 0.173D-01 0.142D-01 0.372D-02
 Coeff:     -0.403D+00 0.137D+01
 Gap=     0.061 Goal=   None    Shift=    0.000
 Gap=     0.304 Goal=   None    Shift=    0.000
 RMSDP=7.59D-08 MaxDP=9.23D-07 DE=-1.49D-10 OVMax= 3.90D-06

 Cycle   9  Pass 1  IDiag  1:
 E= -76.5837998693125     Delta-E=       -0.000000000011 Rises=F Damp=F
 DIIS: error= 1.65D-07 at cycle   9 NSaved=   9.
 NSaved= 9 IEnMin= 9 EnMin= -76.5837998693125     IErMin= 9 ErrMin= 1.65D-07
 ErrMax= 1.65D-07  0.00D+00 EMaxC= 1.00D-01 BMatC= 6.81D-13 BMatP= 1.00D-11
 IDIUse=1 WtCom= 1.00D+00 WtEn= 0.00D+00
 Coeff-Com:  0.236D-05 0.151D-03 0.156D-03-0.319D-02 0.552D-03 0.260D-02
 Coeff-Com:  0.729D-01-0.422D+00 0.135D+01
 Coeff:      0.236D-05 0.151D-03 0.156D-03-0.319D-02 0.552D-03 0.260D-02
 Coeff:      0.729D-01-0.422D+00 0.135D+01
 Gap=     0.061 Goal=   None    Shift=    0.000
 Gap=     0.304 Goal=   None    Shift=    0.000
 RMSDP=3.37D-08 MaxDP=3.82D-07 DE=-1.15D-11 OVMax= 3.78D-06

 Cycle  10  Pass 1  IDiag  1:
 E= -76.5837998693157     Delta-E=       -0.000000000003 Rises=F Damp=F
 DIIS: error= 1.65D-07 at cycle  10 NSaved=  10.
 NSaved=10 IEnMin=10 EnMin= -76.5837998693157     IErMin=10 ErrMin= 1.65D-07
 ErrMax= 1.65D-07  0.00D+00 EMaxC= 1.00D-01 BMatC= 3.33D-13 BMatP= 6.81D-13
 IDIUse=1 WtCom= 1.00D+00 WtEn= 0.00D+00
 Coeff-Com: -0.116D-05 0.578D-05-0.180D-04 0.146D-03-0.432D-04-0.163D-03
 Coeff-Com: -0.479D-02 0.487D-01-0.252D+00 0.121D+01
 Coeff:     -0.116D-05 0.578D-05-0.180D-04 0.146D-03-0.432D-04-0.163D-03
 Coeff:     -0.479D-02 0.487D-01-0.252D+00 0.121D+01
 Gap=     0.061 Goal=   None    Shift=    0.000
 Gap=     0.304 Goal=   None    Shift=    0.000
 RMSDP=2.84D-08 MaxDP=3.37D-07 DE=-3.15D-12 OVMax= 3.31D-06

 Cycle  11  Pass 1  IDiag  1:
 E= -76.5837998693183     Delta-E=       -0.000000000003 Rises=F Damp=F
 DIIS: error= 1.65D-07 at cycle  11 NSaved=  11.
 NSaved=11 IEnMin=11 EnMin= -76.5837998693183     IErMin=11 ErrMin= 1.65D-07
 ErrMax= 1.65D-07  0.00D+00 EMaxC= 1.00D-01 BMatC= 3.28D-13 BMatP= 3.33D-13
 IDIUse=1 WtCom= 1.00D+00 WtEn= 0.00D+00
 Coeff-Com:  0.129D-06-0.143D-05 0.127D-05-0.201D-05 0.180D-04 0.216D-04
 Coeff-Com:  0.860D-04-0.356D-02 0.251D-01-0.174D+00 0.115D+01
 Coeff:      0.129D-06-0.143D-05 0.127D-05-0.201D-05 0.180D-04 0.216D-04
 Coeff:      0.860D-04-0.356D-02 0.251D-01-0.174D+00 0.115D+01
 Gap=     0.061 Goal=   None    Shift=    0.000
 Gap=     0.304 Goal=   None    Shift=    0.000
 RMSDP=2.67D-08 MaxDP=3.18D-07 DE=-2.66D-12 OVMax= 3.11D-06

 Cycle  12  Pass 1  IDiag  1:
 E= -76.5837998693207     Delta-E=       -0.000000000002 Rises=F Damp=F
 DIIS: error= 1.65D-07 at cycle  12 NSaved=  12.
 NSaved=12 IEnMin=12 EnMin= -76.5837998693207     IErMin=12 ErrMin= 1.65D-07
 ErrMax= 1.65D-07  0.00D+00 EMaxC= 1.00D-01 BMatC= 3.28D-13 BMatP= 3.28D-13
 IDIUse=1 WtCom= 1.00D+00 WtEn= 0.00D+00
 Coeff-Com: -0.498D-07 0.725D-06-0.276D-06-0.997D-06-0.117D-04-0.117D-04
 Coeff-Com:  0.476D-04 0.105D-02-0.932D-02 0.758D-01-0.697D+00 0.163D+01
 Coeff:     -0.498D-07 0.725D-06-0.276D-06-0.997D-06-0.117D-04-0.117D-04
 Coeff:      0.476D-04 0.105D-02-0.932D-02 0.758D-01-0.697D+00 0.163D+01
 Gap=     0.061 Goal=   None    Shift=    0.000
 Gap=     0.304 Goal=   None    Shift=    0.000
 RMSDP=3.80D-08 MaxDP=4.53D-07 DE=-2.39D-12 OVMax= 4.44D-06

 Cycle  13  Pass 1  IDiag  1:
 E= -76.5837998693241     Delta-E=       -0.000000000003 Rises=F Damp=F
 DIIS: error= 1.65D-07 at cycle  13 NSaved=  13.
 NSaved=13 IEnMin=13 EnMin= -76.5837998693241     IErMin=13 ErrMin= 1.65D-07
 ErrMax= 1.65D-07  0.00D+00 EMaxC= 1.00D-01 BMatC= 3.28D-13 BMatP= 3.28D-13
 IDIUse=1 WtCom= 1.00D+00 WtEn= 0.00D+00
 Large coefficients: NSaved= 13 BigCof=   24.27 CofMax=   10.00 Det=-1.05D-19
 Inversion failed.  Reducing to 12 matrices.
 Large coefficients: NSaved= 12 BigCof=   24.05 CofMax=   10.00 Det=-1.08D-19
 Inversion failed.  Reducing to 11 matrices.
 Large coefficients: NSaved= 11 BigCof=   21.12 CofMax=   10.00 Det=-1.24D-19
 Inversion failed.  Reducing to 10 matrices.
 Large coefficients: NSaved= 10 BigCof=   21.10 CofMax=   10.00 Det=-1.26D-19
 Inversion failed.  Reducing to  9 matrices.
 Large coefficients: NSaved=  9 BigCof=   19.41 CofMax=   10.00 Det=-1.38D-19
 Inversion failed.  Reducing to  8 matrices.
 Large coefficients: NSaved=  8 BigCof=   17.37 CofMax=   10.00 Det=-1.57D-19
 Inversion failed.  Reducing to  7 matrices.
 Large coefficients: NSaved=  7 BigCof=   17.15 CofMax=   10.00 Det=-1.59D-19
 Inversion failed.  Reducing to  6 matrices.
 Large coefficients: NSaved=  6 BigCof=   13.31 CofMax=   10.00 Det=-2.11D-19
 Inversion failed.  Reducing to  5 matrices.
 Large coefficients: NSaved=  5 BigCof=   11.89 CofMax=   10.00 Det=-2.33D-19
 Inversion failed.  Reducing to  4 matrices.
 Large coefficients: NSaved=  4 BigCof=   11.05 CofMax=   10.00 Det=-2.58D-19
 Inversion failed.  Reducing to  3 matrices.
 Large coefficients: NSaved=  3 BigCof=   10.06 CofMax=   10.00 Det=-3.03D-19
 Inversion failed.  Reducing to  2 matrices.
 Coeff-Com: -0.551D+01 0.651D+01
 Coeff:     -0.551D+01 0.651D+01
 Gap=     0.061 Goal=   None    Shift=    0.000
 Gap=     0.304 Goal=   None    Shift=    0.000
 RMSDP=2.33D-07 MaxDP=2.77D-06 DE=-3.40D-12 OVMax= 2.72D-05

 Cycle  14  Pass 1  IDiag  1:
 E= -76.5837998693451     Delta-E=       -0.000000000021 Rises=F Damp=F
 DIIS: error= 1.65D-07 at cycle  14 NSaved=   3.
 NSaved= 3 IEnMin= 3 EnMin= -76.5837998693451     IErMin= 3 ErrMin= 1.65D-07
 ErrMax= 1.65D-07  0.00D+00 EMaxC= 1.00D-01 BMatC= 3.28D-13 BMatP= 3.28D-13
 IDIUse=1 WtCom= 1.00D+00 WtEn= 0.00D+00
 Large coefficients: NSaved=  3 BigCof=   54.99 CofMax=   10.00 Det=-1.10D-19
 Inversion failed.  Reducing to  2 matrices.
 Large coefficients: NSaved=  2 BigCof=   12.67 CofMax=   10.00 Det=-1.85D-18
 Coeff-Com: -0.117D+02 0.127D+02
 Coeff:     -0.117D+02 0.127D+02
 Gap=     0.061 Goal=   None    Shift=    0.000
 Gap=     0.304 Goal=   None    Shift=    0.000
 RMSDP=2.74D-06 MaxDP=3.26D-05 DE=-2.10D-11 OVMax= 3.20D-04

 Cycle  15  Pass 1  IDiag  1:
 E= -76.5837998695918     Delta-E=       -0.000000000247 Rises=F Damp=F
 DIIS: error= 1.65D-07 at cycle  15 NSaved=   3.
 NSaved= 3 IEnMin= 3 EnMin= -76.5837998695918     IErMin= 3 ErrMin= 1.65D-07
 ErrMax= 1.65D-07  0.00D+00 EMaxC= 1.00D-01 BMatC= 3.28D-13 BMatP= 3.28D-13
 IDIUse=1 WtCom= 1.00D+00 WtEn= 0.00D+00
 Coeff-Com: -0.953D+01 0.865D+01 0.188D+01
 Coeff:     -0.953D+01 0.865D+01 0.188D+01
 Gap=     0.061 Goal=   None    Shift=    0.000
 Gap=     0.304 Goal=   None    Shift=    0.000
 RMSDP=4.65D-06 MaxDP=5.55D-05 DE=-2.47D-10 OVMax= 5.44D-04

 Cycle  16  Pass 1  IDiag  1:
 E= -76.5837998700108     Delta-E=       -0.000000000419 Rises=F Damp=F
 DIIS: error= 1.65D-07 at cycle  16 NSaved=   4.
 NSaved= 4 IEnMin= 4 EnMin= -76.5837998700108     IErMin= 4 ErrMin= 1.65D-07
 ErrMax= 1.65D-07  0.00D+00 EMaxC= 1.00D-01 BMatC= 3.30D-13 BMatP= 3.28D-13
 IDIUse=1 WtCom= 1.00D+00 WtEn= 0.00D+00
 Coeff-Com: -0.475D+01 0.291D+01 0.250D+01 0.345D+00
 Coeff:     -0.475D+01 0.291D+01 0.250D+01 0.345D+00
 Gap=     0.061 Goal=   None    Shift=    0.000
 Gap=     0.304 Goal=   None    Shift=    0.000
 RMSDP=3.11D-06 MaxDP=3.71D-05 DE=-4.19D-10 OVMax= 3.64D-04

 Cycle  17  Pass 1  IDiag  1:
 E= -76.5837998702908     Delta-E=       -0.000000000280 Rises=F Damp=F
 DIIS: error= 1.65D-07 at cycle  17 NSaved=   5.
 NSaved= 5 IEnMin= 5 EnMin= -76.5837998702908     IErMin= 5 ErrMin= 1.65D-07
 ErrMax= 1.65D-07  0.00D+00 EMaxC= 1.00D-01 BMatC= 3.30D-13 BMatP= 3.28D-13
 IDIUse=1 WtCom= 1.00D+00 WtEn= 0.00D+00
 Large coefficients: NSaved=  5 BigCof=   17.07 CofMax=   10.00 Det=-9.50D-19
 Inversion failed.  Reducing to  4 matrices.
 Coeff-Com: -0.754D+01 0.806D+01 0.216D+01-0.168D+01
 Coeff:     -0.754D+01 0.806D+01 0.216D+01-0.168D+01
 Gap=     0.061 Goal=   None    Shift=    0.000
 Gap=     0.304 Goal=   None    Shift=    0.000
 RMSDP=9.92D-06 MaxDP=1.18D-04 DE=-2.80D-10 OVMax= 1.16D-03

 Cycle  18  Pass 1  IDiag  1:
 E= -76.5837998711813     Delta-E=       -0.000000000890 Rises=F Damp=F
 DIIS: error= 1.64D-07 at cycle  18 NSaved=   5.
 NSaved= 5 IEnMin= 5 EnMin= -76.5837998711813     IErMin= 5 ErrMin= 1.64D-07
 ErrMax= 1.64D-07  0.00D+00 EMaxC= 1.00D-01 BMatC= 4.43D-13 BMatP= 3.28D-13
 IDIUse=1 WtCom= 1.00D+00 WtEn= 0.00D+00
 Large coefficients: NSaved=  5 BigCof=   38.66 CofMax=   10.00 Det=-7.02D-18
 Inversion failed.  Reducing to  4 matrices.
 Large coefficients: NSaved=  4 BigCof=   39.05 CofMax=   10.00 Det=-8.55D-18
 Inversion failed.  Reducing to  3 matrices.
 Coeff-Com: -0.957D+00 0.225D+01-0.298D+00
 Coeff:     -0.957D+00 0.225D+01-0.298D+00
 Gap=     0.061 Goal=   None    Shift=    0.000
 Gap=     0.304 Goal=   None    Shift=    0.000
 RMSDP=9.88D-06 MaxDP=1.18D-04 DE=-8.90D-10 OVMax= 1.15D-03

 Cycle  19  Pass 1  IDiag  1:
 E= -76.5837998702947     Delta-E=        0.000000000887 Rises=F Damp=F
 DIIS: error= 1.65D-07 at cycle  19 NSaved=   4.
 NSaved= 4 IEnMin= 3 EnMin= -76.5837998711813     IErMin= 3 ErrMin= 1.64D-07
 ErrMax= 1.65D-07  0.00D+00 EMaxC= 1.00D-01 BMatC= 3.27D-13 BMatP= 3.30D-13
 IDIUse=1 WtCom= 1.00D+00 WtEn= 0.00D+00
 Coeff-Com: -0.135D+01-0.109D+01 0.774D-02 0.343D+01
 Coeff:     -0.135D+01-0.109D+01 0.774D-02 0.343D+01
 Gap=     0.061 Goal=   None    Shift=    0.000
 Gap=     0.304 Goal=   None    Shift=    0.000
 RMSDP=4.40D-06 MaxDP=5.25D-05 DE= 8.87D-10 OVMax= 5.14D-04

 Cycle  20  Pass 1  IDiag  1:
 E= -76.5837998706897     Delta-E=       -0.000000000395 Rises=F Damp=F
 DIIS: error= 1.64D-07 at cycle  20 NSaved=   5.
 NSaved= 5 IEnMin= 3 EnMin= -76.5837998711813     IErMin= 3 ErrMin= 1.64D-07
 ErrMax= 1.64D-07  0.00D+00 EMaxC= 1.00D-01 BMatC= 3.26D-13 BMatP= 3.27D-13
 IDIUse=1 WtCom= 1.00D+00 WtEn= 0.00D+00
 Coeff-Com: -0.241D+01-0.336D+01 0.471D+00-0.172D+01 0.802D+01
 Coeff:     -0.241D+01-0.336D+01 0.471D+00-0.172D+01 0.802D+01
 Gap=     0.061 Goal=   None    Shift=    0.000
 Gap=     0.304 Goal=   None    Shift=    0.000
 RMSDP=4.33D-05 MaxDP=5.18D-04 DE=-3.95D-10 OVMax= 5.06D-03

 Cycle  21  Pass 1  IDiag  1:
 E= -76.5837998745487     Delta-E=       -0.000000003859 Rises=F Damp=F
 DIIS: error= 2.37D-07 at cycle  21 NSaved=   6.
 NSaved= 6 IEnMin= 6 EnMin= -76.5837998745487     IErMin= 3 ErrMin= 1.64D-07
 ErrMax= 2.37D-07  0.00D+00 EMaxC= 1.00D-01 BMatC= 3.17D-12 BMatP= 3.26D-13
 IDIUse=1 WtCom= 1.00D+00 WtEn= 0.00D+00
 Large coefficients: NSaved=  6 BigCof=   86.42 CofMax=   10.00 Det=-3.51D-18
 Inversion failed.  Reducing to  5 matrices.
 Large coefficients: NSaved=  5 BigCof=   29.33 CofMax=   10.00 Det=-1.62D-17
 Inversion failed.  Reducing to  4 matrices.
 Large coefficients: NSaved=  4 BigCof=   10.60 CofMax=   10.00 Det=-3.25D-17
 Inversion failed.  Reducing to  3 matrices.
 Coeff-Com: -0.658D-02 0.102D+01-0.988D-02
 Coeff:     -0.658D-02 0.102D+01-0.988D-02
 Gap=     0.061 Goal=   None    Shift=    0.000
 Gap=     0.304 Goal=   None    Shift=    0.000
 RMSDP=4.38D-05 MaxDP=5.23D-04 DE=-3.86D-09 OVMax= 5.11D-03

 Cycle  22  Pass 1  IDiag  1:
 E= -76.5837998706501     Delta-E=        0.000000003899 Rises=F Damp=F
 DIIS: error= 1.64D-07 at cycle  22 NSaved=   4.
 NSaved= 4 IEnMin= 3 EnMin= -76.5837998745487     IErMin= 1 ErrMin= 1.64D-07
 ErrMax= 1.64D-07  0.00D+00 EMaxC= 1.00D-01 BMatC= 3.32D-13 BMatP= 3.26D-13
 IDIUse=1 WtCom= 1.00D+00 WtEn= 0.00D+00
 Coeff-Com: -0.160D+01 0.167D+01 0.300D+00 0.628D+00
 Coeff:     -0.160D+01 0.167D+01 0.300D+00 0.628D+00
 Gap=     0.061 Goal=   None    Shift=    0.000
 Gap=     0.304 Goal=   None    Shift=    0.000
 RMSDP=4.41D-06 MaxDP=5.26D-05 DE= 3.90D-09 OVMax= 5.15D-04

 Cycle  23  Pass 1  IDiag  1:
 E= -76.5837998710455     Delta-E=       -0.000000000395 Rises=F Damp=F
 DIIS: error= 1.64D-07 at cycle  23 NSaved=   5.
 NSaved= 5 IEnMin= 3 EnMin= -76.5837998745487     IErMin= 1 ErrMin= 1.64D-07
 ErrMax= 1.64D-07  0.00D+00 EMaxC= 1.00D-01 BMatC= 4.83D-13 BMatP= 3.26D-13
 IDIUse=1 WtCom= 1.00D+00 WtEn= 0.00D+00
 Coeff-Com:  0.164D+01-0.694D+01 0.137D+01-0.180D+01 0.673D+01
 Coeff:      0.164D+01-0.694D+01 0.137D+01-0.180D+01 0.673D+01
 Gap=     0.061 Goal=   None    Shift=    0.000
 Gap=     0.304 Goal=   None    Shift=    0.000
 RMSDP=9.17D-05 MaxDP=1.10D-03 DE=-3.95D-10 OVMax= 1.07D-02

 Cycle  24  Pass 1  IDiag  1:
 E= -76.5837998791245     Delta-E=       -0.000000008079 Rises=F Damp=F
 DIIS: error= 6.09D-07 at cycle  24 NSaved=   6.
 NSaved= 6 IEnMin= 6 EnMin= -76.5837998791245     IErMin= 1 ErrMin= 1.64D-07
 ErrMax= 6.09D-07  0.00D+00 EMaxC= 1.00D-01 BMatC= 2.68D-11 BMatP= 3.26D-13
 IDIUse=1 WtCom= 1.00D+00 WtEn= 0.00D+00
 Large coefficients: NSaved=  6 BigCof=   14.95 CofMax=   10.00 Det=-1.37D-16
 Inversion failed.  Reducing to  5 matrices.
 Coeff-Com: -0.218D+01-0.132D+01-0.249D+01 0.559D+01 0.140D+01
 Coeff:     -0.218D+01-0.132D+01-0.249D+01 0.559D+01 0.140D+01
 Gap=     0.061 Goal=   None    Shift=    0.000
 Gap=     0.304 Goal=   None    Shift=    0.000
 RMSDP=5.93D-05 MaxDP=7.10D-04 DE=-8.08D-09 OVMax= 6.92D-03

 Cycle  25  Pass 1  IDiag  1:
 E= -76.5837998739259     Delta-E=        0.000000005199 Rises=F Damp=F
 DIIS: error= 7.24D-07 at cycle  25 NSaved=   6.
 NSaved= 6 IEnMin= 5 EnMin= -76.5837998791245     IErMin= 1 ErrMin= 1.64D-07
 ErrMax= 7.24D-07  0.00D+00 EMaxC= 1.00D-01 BMatC= 3.05D-11 BMatP= 3.26D-13
 IDIUse=1 WtCom= 1.00D+00 WtEn= 0.00D+00
 Large coefficients: NSaved=  6 BigCof=   14.98 CofMax=   10.00 Det=-2.17D-16
 Inversion failed.  Reducing to  5 matrices.
 Coeff-Com: -0.186D+00-0.292D+01 0.134D+01 0.194D+01 0.816D+00
 Coeff:     -0.186D+00-0.292D+01 0.134D+01 0.194D+01 0.816D+00
 Gap=     0.061 Goal=   None    Shift=    0.000
 Gap=     0.304 Goal=   None    Shift=    0.000
 RMSDP=5.73D-05 MaxDP=6.87D-04 DE= 5.20D-09 OVMax= 6.70D-03

 Cycle  26  Pass 1  IDiag  1:
 E= -76.5837998789631     Delta-E=       -0.000000005037 Rises=F Damp=F
 DIIS: error= 5.05D-07 at cycle  26 NSaved=   6.
 NSaved= 6 IEnMin= 4 EnMin= -76.5837998791245     IErMin= 1 ErrMin= 1.64D-07
 ErrMax= 5.05D-07  0.00D+00 EMaxC= 1.00D-01 BMatC= 1.41D-11 BMatP= 4.43D-13
 IDIUse=1 WtCom= 1.00D+00 WtEn= 0.00D+00
 Large coefficients: NSaved=  6 BigCof=   42.64 CofMax=   10.00 Det=-7.38D-17
 Inversion failed.  Reducing to  5 matrices.
 Coeff-Com: -0.238D+01-0.123D+01 0.253D+01 0.133D+01 0.759D+00
 Coeff:     -0.238D+01-0.123D+01 0.253D+01 0.133D+01 0.759D+00
 Gap=     0.061 Goal=   None    Shift=    0.000
 Gap=     0.304 Goal=   None    Shift=    0.000
 RMSDP=2.01D-04 MaxDP=2.43D-03 DE=-5.04D-09 OVMax= 2.35D-02

 Cycle  27  Pass 1  IDiag  1:
 E= -76.5837998947228     Delta-E=       -0.000000015760 Rises=F Damp=F
 DIIS: error= 5.81D-06 at cycle  27 NSaved=   6.
 NSaved= 6 IEnMin= 6 EnMin= -76.5837998947228     IErMin= 1 ErrMin= 1.64D-07
 ErrMax= 5.81D-06  0.00D+00 EMaxC= 1.00D-01 BMatC= 2.15D-09 BMatP= 4.43D-13
 IDIUse=1 WtCom= 1.00D+00 WtEn= 0.00D+00
 Coeff-Com: -0.245D+01-0.184D+01 0.307D+01 0.146D+01 0.779D+00-0.203D-01
 Coeff:     -0.245D+01-0.184D+01 0.307D+01 0.146D+01 0.779D+00-0.203D-01
 Gap=     0.062 Goal=   None    Shift=    0.000
 Gap=     0.304 Goal=   None    Shift=    0.000
 RMSDP=2.60D-05 MaxDP=3.16D-04 DE=-1.58D-08 OVMax= 3.03D-03

 Cycle  28  Pass 1  IDiag  1:
 E= -76.5837998962773     Delta-E=       -0.000000001554 Rises=F Damp=F
 DIIS: error= 7.21D-06 at cycle  28 NSaved=   7.
 NSaved= 7 IEnMin= 7 EnMin= -76.5837998962773     IErMin= 1 ErrMin= 1.64D-07
 ErrMax= 7.21D-06  0.00D+00 EMaxC= 1.00D-01 BMatC= 3.28D-09 BMatP= 4.43D-13
 IDIUse=1 WtCom= 1.00D+00 WtEn= 0.00D+00
 Large coefficients: NSaved=  7 BigCof=   13.43 CofMax=   10.00 Det=-3.13D-16
 Inversion failed.  Reducing to  6 matrices.
 Large coefficients: NSaved=  6 BigCof=   13.42 CofMax=   10.00 Det=-4.21D-16
 Inversion failed.  Reducing to  5 matrices.
 Coeff-Com:  0.103D+01-0.124D+00 0.236D+00-0.702D+00 0.565D+00
 Coeff:      0.103D+01-0.124D+00 0.236D+00-0.702D+00 0.565D+00
 Gap=     0.061 Goal=   None    Shift=    0.000
 Gap=     0.304 Goal=   None    Shift=    0.000
 RMSDP=2.92D-04 MaxDP=3.52D-03 DE=-1.55D-09 OVMax= 3.41D-02

 Cycle  29  Pass 1  IDiag  1:
 E= -76.5837998732636     Delta-E=        0.000000023014 Rises=F Damp=F
 DIIS: error= 1.64D-07 at cycle  29 NSaved=   6.
 NSaved= 6 IEnMin= 5 EnMin= -76.5837998962773     IErMin= 6 ErrMin= 1.64D-07
 ErrMax= 1.64D-07  0.00D+00 EMaxC= 1.00D-01 BMatC= 8.54D-13 BMatP= 3.17D-12
 IDIUse=1 WtCom= 1.00D+00 WtEn= 0.00D+00
 Large coefficients: NSaved=  6 BigCof=   10.82 CofMax=   10.00 Det=-4.40D-16
 Inversion failed.  Reducing to  5 matrices.
 Coeff-Com: -0.198D+01 0.123D+01 0.225D+01-0.157D+01 0.108D+01
 Coeff:     -0.198D+01 0.123D+01 0.225D+01-0.157D+01 0.108D+01
 Gap=     0.061 Goal=   None    Shift=    0.000
 Gap=     0.304 Goal=   None    Shift=    0.000
 RMSDP=8.50D-05 MaxDP=1.02D-03 DE= 2.30D-08 OVMax= 9.93D-03

 Cycle  30  Pass 1  IDiag  1:
 E= -76.5837998806531     Delta-E=       -0.000000007389 Rises=F Damp=F
 DIIS: error= 1.43D-06 at cycle  30 NSaved=   6.
 NSaved= 6 IEnMin= 4 EnMin= -76.5837998962773     IErMin= 5 ErrMin= 1.64D-07
 ErrMax= 1.43D-06  0.00D+00 EMaxC= 1.00D-01 BMatC= 1.24D-10 BMatP= 8.54D-13
 IDIUse=1 WtCom= 1.00D+00 WtEn= 0.00D+00
 Large coefficients: NSaved=  6 BigCof=   27.90 CofMax=   10.00 Det=-2.48D-16
 Inversion failed.  Reducing to  5 matrices.
 Large coefficients: NSaved=  5 BigCof=   27.58 CofMax=   10.00 Det=-2.49D-16
 Inversion failed.  Reducing to  4 matrices.
 Coeff-Com:  0.277D+01-0.192D+01-0.140D+01 0.155D+01
 Coeff:      0.277D+01-0.192D+01-0.140D+01 0.155D+01
 Gap=     0.061 Goal=   None    Shift=    0.000
 Gap=     0.304 Goal=   None    Shift=    0.000
 RMSDP=2.22D-04 MaxDP=2.69D-03 DE=-7.39D-09 OVMax= 2.59D-02

 Cycle  31  Pass 1  IDiag  1:
 E= -76.5837998981036     Delta-E=       -0.000000017451 Rises=F Damp=F
 DIIS: error= 5.16D-06 at cycle  31 NSaved=   5.
 NSaved= 5 IEnMin= 5 EnMin= -76.5837998981036     IErMin= 3 ErrMin= 1.64D-07
 ErrMax= 5.16D-06  0.00D+00 EMaxC= 1.00D-01 BMatC= 1.69D-09 BMatP= 8.54D-13
 IDIUse=1 WtCom= 1.00D+00 WtEn= 0.00D+00
 Large coefficients: NSaved=  5 BigCof=   18.03 CofMax=   10.00 Det=-7.37D-16
 Inversion failed.  Reducing to  4 matrices.
 Coeff-Com:  0.822D+00-0.446D+00 0.732D+00-0.108D+00
 Coeff:      0.822D+00-0.446D+00 0.732D+00-0.108D+00
 Gap=     0.061 Goal=   None    Shift=    0.000
 Gap=     0.304 Goal=   None    Shift=    0.000
 RMSDP=1.90D-04 MaxDP=2.30D-03 DE=-1.75D-08 OVMax= 2.21D-02

 Cycle  32  Pass 1  IDiag  1:
 E= -76.5837998834818     Delta-E=        0.000000014622 Rises=F Damp=F
 DIIS: error= 1.88D-07 at cycle  32 NSaved=   5.
 NSaved= 5 IEnMin= 4 EnMin= -76.5837998981036     IErMin= 5 ErrMin= 1.88D-07
 ErrMax= 1.88D-07  0.00D+00 EMaxC= 1.00D-01 BMatC= 1.62D-12 BMatP= 1.24D-10
 IDIUse=1 WtCom= 1.00D+00 WtEn= 0.00D+00
 Coeff-Com: -0.434D+01 0.978D+00-0.316D+01 0.281D+01 0.471D+01
 Coeff:     -0.434D+01 0.978D+00-0.316D+01 0.281D+01 0.471D+01
 Gap=     0.061 Goal=   None    Shift=    0.000
 Gap=     0.304 Goal=   None    Shift=    0.000
 RMSDP=1.62D-04 MaxDP=1.97D-03 DE= 1.46D-08 OVMax= 1.90D-02

 Cycle  33  Pass 1  IDiag  1:
 E= -76.5837998966922     Delta-E=       -0.000000013210 Rises=F Damp=F
 DIIS: error= 6.04D-07 at cycle  33 NSaved=   6.
 NSaved= 6 IEnMin= 4 EnMin= -76.5837998981036     IErMin= 5 ErrMin= 1.88D-07
 ErrMax= 6.04D-07  0.00D+00 EMaxC= 1.00D-01 BMatC= 2.00D-11 BMatP= 1.62D-12
 IDIUse=1 WtCom= 1.00D+00 WtEn= 0.00D+00
 Coeff-Com: -0.263D+01 0.113D+01-0.156D+01 0.133D+01-0.759D+00 0.349D+01
 Coeff:     -0.263D+01 0.113D+01-0.156D+01 0.133D+01-0.759D+00 0.349D+01
 Gap=     0.062 Goal=   None    Shift=    0.000
 Gap=     0.304 Goal=   None    Shift=    0.000
 RMSDP=5.09D-04 MaxDP=6.27D-03 DE=-1.32D-08 OVMax= 5.95D-02

 Cycle  34  Pass 1  IDiag  1:
 E= -76.5837998978261     Delta-E=       -0.000000001134 Rises=F Damp=F
 DIIS: error= 3.60D-05 at cycle  34 NSaved=   7.
 NSaved= 7 IEnMin= 4 EnMin= -76.5837998981036     IErMin= 5 ErrMin= 1.88D-07
 ErrMax= 3.60D-05  0.00D+00 EMaxC= 1.00D-01 BMatC= 7.46D-08 BMatP= 1.62D-12
 IDIUse=1 WtCom= 1.00D+00 WtEn= 0.00D+00
 Large coefficients: NSaved=  7 BigCof=   16.92 CofMax=   10.00 Det=-5.74D-17
 Inversion failed.  Reducing to  6 matrices.
 Large coefficients: NSaved=  6 BigCof=   16.47 CofMax=   10.00 Det=-5.75D-17
 Inversion failed.  Reducing to  5 matrices.
 Coeff-Com: -0.872D+01 0.683D+01 0.104D+01 0.193D+01-0.783D-01
 Coeff:     -0.872D+01 0.683D+01 0.104D+01 0.193D+01-0.783D-01
 Gap=     0.061 Goal=   None    Shift=    0.000
 Gap=     0.304 Goal=   None    Shift=    0.000
 RMSDP=3.17D-04 MaxDP=3.92D-03 DE=-1.13D-09 OVMax= 3.70D-02

 Cycle  35  Pass 1  IDiag  1:
 E= -76.5837999097792     Delta-E=       -0.000000011953 Rises=F Damp=F
 DIIS: error= 5.89D-06 at cycle  35 NSaved=   6.
 NSaved= 6 IEnMin= 6 EnMin= -76.5837999097792     IErMin= 4 ErrMin= 6.04D-07
 ErrMax= 5.89D-06  0.00D+00 EMaxC= 1.00D-01 BMatC= 2.12D-09 BMatP= 2.00D-11
 IDIUse=1 WtCom= 1.00D+00 WtEn= 0.00D+00
 Coeff-Com:  0.460D+01-0.497D+01-0.967D+00-0.740D+00-0.149D+00 0.323D+01
 Coeff:      0.460D+01-0.497D+01-0.967D+00-0.740D+00-0.149D+00 0.323D+01
 Gap=     0.062 Goal=   None    Shift=    0.000
 Gap=     0.304 Goal=   None    Shift=    0.000
 RMSDP=2.02D-04 MaxDP=2.49D-03 DE=-1.20D-08 OVMax= 2.36D-02

 Cycle  36  Pass 1  IDiag  1:
 E= -76.5837999213092     Delta-E=       -0.000000011530 Rises=F Damp=F
 DIIS: error= 7.90D-06 at cycle  36 NSaved=   7.
 NSaved= 7 IEnMin= 7 EnMin= -76.5837999213092     IErMin= 4 ErrMin= 6.04D-07
 ErrMax= 7.90D-06  0.00D+00 EMaxC= 1.00D-01 BMatC= 3.68D-09 BMatP= 2.00D-11
 IDIUse=1 WtCom= 1.00D+00 WtEn= 0.00D+00
 Large coefficients: NSaved=  7 BigCof=   18.13 CofMax=   10.00 Det=-9.81D-17
 Inversion failed.  Reducing to  6 matrices.
 Coeff-Com: -0.140D+00 0.917D-01-0.311D+00-0.480D+00-0.152D+01 0.336D+01
 Coeff:     -0.140D+00 0.917D-01-0.311D+00-0.480D+00-0.152D+01 0.336D+01
 Gap=     0.062 Goal=   None    Shift=    0.000
 Gap=     0.304 Goal=   None    Shift=    0.000
 RMSDP=3.92D-04 MaxDP=4.88D-03 DE=-1.15D-08 OVMax= 4.57D-02

 Cycle  37  Pass 1  IDiag  1:
 E= -76.5837999167827     Delta-E=        0.000000004526 Rises=F Damp=F
 DIIS: error= 3.01D-05 at cycle  37 NSaved=   7.
 NSaved= 7 IEnMin= 6 EnMin= -76.5837999213092     IErMin= 3 ErrMin= 6.04D-07
 ErrMax= 3.01D-05  0.00D+00 EMaxC= 1.00D-01 BMatC= 5.03D-08 BMatP= 2.00D-11
 IDIUse=1 WtCom= 1.00D+00 WtEn= 0.00D+00
 Coeff-Com:  0.660D+00-0.288D+00-0.926D+00-0.922D+00-0.162D+01 0.380D+01
 Coeff-Com:  0.294D+00
 Coeff:      0.660D+00-0.288D+00-0.926D+00-0.922D+00-0.162D+01 0.380D+01
 Coeff:      0.294D+00
 Gap=     0.062 Goal=   None    Shift=    0.000
 Gap=     0.304 Goal=   None    Shift=    0.000
 RMSDP=1.57D-04 MaxDP=1.97D-03 DE= 4.53D-09 OVMax= 1.84D-02

 Cycle  38  Pass 1  IDiag  1:
 E= -76.5837998920441     Delta-E=        0.000000024739 Rises=F Damp=F
 DIIS: error= 4.62D-05 at cycle  38 NSaved=   8.
 NSaved= 8 IEnMin= 6 EnMin= -76.5837999213092     IErMin= 3 ErrMin= 6.04D-07
 ErrMax= 4.62D-05  0.00D+00 EMaxC= 1.00D-01 BMatC= 1.16D-07 BMatP= 2.00D-11
 IDIUse=1 WtCom= 1.00D+00 WtEn= 0.00D+00
 Coeff-Com:  0.108D+01-0.408D+00-0.630D+00-0.108D+01-0.198D+01 0.313D+01
 Coeff-Com:  0.134D+01-0.448D+00
 Coeff:      0.108D+01-0.408D+00-0.630D+00-0.108D+01-0.198D+01 0.313D+01
 Coeff:      0.134D+01-0.448D+00
 Gap=     0.062 Goal=   None    Shift=    0.000
 Gap=     0.304 Goal=   None    Shift=    0.000
 RMSDP=1.15D-05 MaxDP=1.43D-04 DE= 2.47D-08 OVMax= 1.34D-03

 Cycle  39  Pass 1  IDiag  1:
 E= -76.5837999138931     Delta-E=       -0.000000021849 Rises=F Damp=F
 DIIS: error= 3.38D-05 at cycle  39 NSaved=   9.
 NSaved= 9 IEnMin= 6 EnMin= -76.5837999213092     IErMin= 3 ErrMin= 6.04D-07
 ErrMax= 3.38D-05  0.00D+00 EMaxC= 1.00D-01 BMatC= 6.22D-08 BMatP= 2.00D-11
 IDIUse=1 WtCom= 1.00D+00 WtEn= 0.00D+00
 Coeff-Com: -0.989D-01-0.222D+00-0.255D+00-0.201D+00-0.403D-01 0.127D+01
 Coeff-Com: -0.340D+00-0.167D+01 0.256D+01
 Coeff:     -0.989D-01-0.222D+00-0.255D+00-0.201D+00-0.403D-01 0.127D+01
 Coeff:     -0.340D+00-0.167D+01 0.256D+01
 Gap=     0.062 Goal=   None    Shift=    0.000
 Gap=     0.304 Goal=   None    Shift=    0.000
 RMSDP=1.13D-05 MaxDP=1.41D-04 DE=-2.18D-08 OVMax= 1.31D-03

 Cycle  40  Pass 1  IDiag  1:
 E= -76.5837999304462     Delta-E=       -0.000000016553 Rises=F Damp=F
 DIIS: error= 2.00D-05 at cycle  40 NSaved=  10.
 NSaved=10 IEnMin=10 EnMin= -76.5837999304462     IErMin= 3 ErrMin= 6.04D-07
 ErrMax= 2.00D-05  0.00D+00 EMaxC= 1.00D-01 BMatC= 2.17D-08 BMatP= 2.00D-11
 IDIUse=1 WtCom= 1.00D+00 WtEn= 0.00D+00
 Coeff-Com: -0.219D+00 0.185D+01-0.878D+00-0.873D+00-0.223D+01 0.194D+01
 Coeff-Com:  0.158D+01 0.725D+00-0.306D+01 0.216D+01
 Coeff:     -0.219D+00 0.185D+01-0.878D+00-0.873D+00-0.223D+01 0.194D+01
 Coeff:      0.158D+01 0.725D+00-0.306D+01 0.216D+01
 Gap=     0.062 Goal=   None    Shift=    0.000
 Gap=     0.304 Goal=   None    Shift=    0.000
 RMSDP=7.98D-05 MaxDP=9.99D-04 DE=-1.66D-08 OVMax= 9.32D-03

 Cycle  41  Pass 1  IDiag  1:
 E= -76.5837999274967     Delta-E=        0.000000002949 Rises=F Damp=F
 DIIS: error= 2.35D-05 at cycle  41 NSaved=  11.
 NSaved=11 IEnMin=10 EnMin= -76.5837999304462     IErMin= 3 ErrMin= 6.04D-07
 ErrMax= 2.35D-05  0.00D+00 EMaxC= 1.00D-01 BMatC= 2.97D-08 BMatP= 2.00D-11
 IDIUse=1 WtCom= 1.00D+00 WtEn= 0.00D+00
 Coeff-Com: -0.501D-01 0.161D+01-0.760D+00-0.839D+00-0.229D+01 0.192D+01
 Coeff-Com:  0.164D+01 0.768D+00-0.328D+01 0.207D+01 0.204D+00
 Coeff:     -0.501D-01 0.161D+01-0.760D+00-0.839D+00-0.229D+01 0.192D+01
 Coeff:      0.164D+01 0.768D+00-0.328D+01 0.207D+01 0.204D+00
 Gap=     0.062 Goal=   None    Shift=    0.000
 Gap=     0.304 Goal=   None    Shift=    0.000
 RMSDP=1.39D-06 MaxDP=1.73D-05 DE= 2.95D-09 OVMax= 1.62D-04

 Cycle  42  Pass 1  IDiag  1:
 E= -76.5837999295260     Delta-E=       -0.000000002029 Rises=F Damp=F
 DIIS: error= 2.14D-05 at cycle  42 NSaved=  12.
 NSaved=12 IEnMin=10 EnMin= -76.5837999304462     IErMin= 3 ErrMin= 6.04D-07
 ErrMax= 2.14D-05  0.00D+00 EMaxC= 1.00D-01 BMatC= 2.48D-08 BMatP= 2.00D-11
 IDIUse=1 WtCom= 1.00D+00 WtEn= 0.00D+00
 Coeff-Com:  0.961D+00 0.325D+00-0.337D+00-0.837D+00-0.251D+01 0.197D+01
 Coeff-Com:  0.190D+01 0.133D+01-0.411D+01 0.142D+01-0.326D+01 0.415D+01
 Coeff:      0.961D+00 0.325D+00-0.337D+00-0.837D+00-0.251D+01 0.197D+01
 Coeff:      0.190D+01 0.133D+01-0.411D+01 0.142D+01-0.326D+01 0.415D+01
 Gap=     0.062 Goal=   None    Shift=    0.000
 Gap=     0.304 Goal=   None    Shift=    0.000
 RMSDP=1.14D-06 MaxDP=1.29D-05 DE=-2.03D-09 OVMax= 1.25D-04

 Cycle  43  Pass 1  IDiag  1:
 E= -76.5837999352284     Delta-E=       -0.000000005702 Rises=F Damp=F
 DIIS: error= 1.42D-05 at cycle  43 NSaved=  13.
 NSaved=13 IEnMin=13 EnMin= -76.5837999352284     IErMin= 3 ErrMin= 6.04D-07
 ErrMax= 1.42D-05  0.00D+00 EMaxC= 1.00D-01 BMatC= 1.09D-08 BMatP= 2.00D-11
 IDIUse=1 WtCom= 1.00D+00 WtEn= 0.00D+00
 Coeff-Com:  0.106D+01-0.330D+00 0.150D-01-0.508D+00-0.184D+01 0.130D+01
 Coeff-Com:  0.136D+01 0.118D+01-0.349D+01 0.107D+01-0.243D+01 0.275D+01
 Coeff-Com:  0.856D+00
 Coeff:      0.106D+01-0.330D+00 0.150D-01-0.508D+00-0.184D+01 0.130D+01
 Coeff:      0.136D+01 0.118D+01-0.349D+01 0.107D+01-0.243D+01 0.275D+01
 Coeff:      0.856D+00
 Gap=     0.062 Goal=   None    Shift=    0.000
 Gap=     0.304 Goal=   None    Shift=    0.000
 RMSDP=5.26D-06 MaxDP=6.55D-05 DE=-5.70D-09 OVMax= 6.12D-04

 Cycle  44  Pass 1  IDiag  1:
 E= -76.5837999390510     Delta-E=       -0.000000003823 Rises=F Damp=F
 DIIS: error= 5.39D-06 at cycle  44 NSaved=  14.
 NSaved=14 IEnMin=14 EnMin= -76.5837999390510     IErMin= 3 ErrMin= 6.04D-07
 ErrMax= 5.39D-06  0.00D+00 EMaxC= 1.00D-01 BMatC= 1.56D-09 BMatP= 2.00D-11
 IDIUse=1 WtCom= 1.00D+00 WtEn= 0.00D+00
 Coeff-Com: -0.114D+00 0.118D+00-0.411D-01 0.210D-01 0.742D-01-0.970D-01
 Coeff-Com:  0.473D-03-0.104D+00-0.110D+00 0.342D+00 0.523D+01-0.508D+01
 Coeff-Com: -0.187D+01 0.263D+01
 Coeff:     -0.114D+00 0.118D+00-0.411D-01 0.210D-01 0.742D-01-0.970D-01
 Coeff:      0.473D-03-0.104D+00-0.110D+00 0.342D+00 0.523D+01-0.508D+01
 Coeff:     -0.187D+01 0.263D+01
 Gap=     0.061 Goal=   None    Shift=    0.000
 Gap=     0.304 Goal=   None    Shift=    0.000
 RMSDP=1.20D-05 MaxDP=1.50D-04 DE=-3.82D-09 OVMax= 1.40D-03

 Cycle  45  Pass 1  IDiag  1:
 E= -76.5837999395749     Delta-E=       -0.000000000524 Rises=F Damp=F
 DIIS: error= 2.35D-06 at cycle  45 NSaved=  15.
 NSaved=15 IEnMin=15 EnMin= -76.5837999395749     IErMin= 3 ErrMin= 6.04D-07
 ErrMax= 2.35D-06  0.00D+00 EMaxC= 1.00D-01 BMatC= 2.96D-10 BMatP= 2.00D-11
 IDIUse=1 WtCom= 1.00D+00 WtEn= 0.00D+00
 Coeff-Com: -0.641D-02 0.101D+00-0.755D-01-0.687D-01-0.820D-01 0.107D+00
 Coeff-Com:  0.742D-01 0.328D-01 0.827D-01-0.167D+00-0.220D+01 0.317D+01
 Coeff-Com: -0.171D+01 0.693D+00 0.104D+01
 Coeff:     -0.641D-02 0.101D+00-0.755D-01-0.687D-01-0.820D-01 0.107D+00
 Coeff:      0.742D-01 0.328D-01 0.827D-01-0.167D+00-0.220D+01 0.317D+01
 Coeff:     -0.171D+01 0.693D+00 0.104D+01
 Gap=     0.061 Goal=   None    Shift=    0.000
 Gap=     0.304 Goal=   None    Shift=    0.000
 RMSDP=1.08D-06 MaxDP=1.35D-05 DE=-5.24D-10 OVMax= 1.26D-04

 Cycle  46  Pass 1  IDiag  1:
 E= -76.5837999396433     Delta-E=       -0.000000000068 Rises=F Damp=F
 DIIS: error= 1.55D-06 at cycle  46 NSaved=  16.
 NSaved=16 IEnMin=16 EnMin= -76.5837999396433     IErMin= 3 ErrMin= 6.04D-07
 ErrMax= 1.55D-06  0.00D+00 EMaxC= 1.00D-01 BMatC= 1.29D-10 BMatP= 2.00D-11
 IDIUse=1 WtCom= 1.00D+00 WtEn= 0.00D+00
 Large coefficients: NSaved= 16 BigCof=    0.00 CofMax=   10.00 Det=-6.32D-19
 Inversion failed.  Reducing to 15 matrices.
 Coeff-Com: -0.287D-01 0.112D+00-0.592D-01-0.472D-01-0.893D-01 0.927D-01
 Coeff-Com:  0.797D-01-0.279D-01-0.274D-01-0.447D-02 0.375D+00-0.752D+00
 Coeff-Com:  0.399D+00-0.946D+00 0.192D+01
 Coeff:     -0.287D-01 0.112D+00-0.592D-01-0.472D-01-0.893D-01 0.927D-01
 Coeff:      0.797D-01-0.279D-01-0.274D-01-0.447D-02 0.375D+00-0.752D+00
 Coeff:      0.399D+00-0.946D+00 0.192D+01
 Gap=     0.061 Goal=   None    Shift=    0.000
 Gap=     0.304 Goal=   None    Shift=    0.000
 RMSDP=2.72D-06 MaxDP=3.41D-05 DE=-6.84D-11 OVMax= 3.18D-04

 Cycle  47  Pass 1  IDiag  1:
 E= -76.5837999396503     Delta-E=       -0.000000000007 Rises=F Damp=F
 DIIS: error= 1.45D-06 at cycle  47 NSaved=  16.
 NSaved=16 IEnMin=16 EnMin= -76.5837999396503     IErMin= 3 ErrMin= 6.04D-07
 ErrMax= 1.45D-06  0.00D+00 EMaxC= 1.00D-01 BMatC= 1.12D-10 BMatP= 2.00D-11
 IDIUse=1 WtCom= 1.00D+00 WtEn= 0.00D+00
 Large coefficients: NSaved= 16 BigCof=    0.00 CofMax=   10.00 Det=-8.00D-19
 Inversion failed.  Reducing to 15 matrices.
 Coeff-Com:  0.871D-01-0.501D-01-0.521D-01-0.120D+00 0.114D+00 0.100D+00
 Coeff-Com: -0.474D-01-0.423D-01 0.696D-01 0.288D+00-0.695D+00 0.355D+00
 Coeff-Com: -0.933D+00 0.177D+01 0.156D+00
 Coeff:      0.871D-01-0.501D-01-0.521D-01-0.120D+00 0.114D+00 0.100D+00
 Coeff:     -0.474D-01-0.423D-01 0.696D-01 0.288D+00-0.695D+00 0.355D+00
 Coeff:     -0.933D+00 0.177D+01 0.156D+00
 Gap=     0.061 Goal=   None    Shift=    0.000
 Gap=     0.304 Goal=   None    Shift=    0.000
 RMSDP=1.20D-07 MaxDP=1.50D-06 DE=-6.93D-12 OVMax= 1.40D-05

 Cycle  48  Pass 1  IDiag  1:
 E= -76.5837999396565     Delta-E=       -0.000000000006 Rises=F Damp=F
 DIIS: error= 1.35D-06 at cycle  48 NSaved=  16.
 NSaved=16 IEnMin=16 EnMin= -76.5837999396565     IErMin= 2 ErrMin= 6.04D-07
 ErrMax= 1.35D-06  0.00D+00 EMaxC= 1.00D-01 BMatC= 9.73D-11 BMatP= 2.00D-11
 IDIUse=1 WtCom= 1.00D+00 WtEn= 0.00D+00
 Large coefficients: NSaved= 16 BigCof=    0.00 CofMax=   10.00 Det=-3.58D-19
 Inversion failed.  Reducing to 15 matrices.
 Coeff-Com:  0.504D-01-0.131D-01-0.113D+00 0.739D-01 0.705D-01-0.105D+00
 Coeff-Com: -0.100D-01 0.602D+00-0.600D+00 0.129D-01-0.108D+00-0.110D+00
 Coeff-Com: -0.161D+00-0.344D+01 0.485D+01
 Coeff:      0.504D-01-0.131D-01-0.113D+00 0.739D-01 0.705D-01-0.105D+00
 Coeff:     -0.100D-01 0.602D+00-0.600D+00 0.129D-01-0.108D+00-0.110D+00
 Coeff:     -0.161D+00-0.344D+01 0.485D+01
 Gap=     0.061 Goal=   None    Shift=    0.000
 Gap=     0.304 Goal=   None    Shift=    0.000
 RMSDP=7.98D-07 MaxDP=9.94D-06 DE=-6.25D-12 OVMax= 9.29D-05

 Cycle  49  Pass 1  IDiag  1:
 E= -76.5837999396964     Delta-E=       -0.000000000040 Rises=F Damp=F
 DIIS: error= 8.66D-08 at cycle  49 NSaved=  16.
 NSaved=16 IEnMin=16 EnMin= -76.5837999396964     IErMin=16 ErrMin= 8.66D-08
 ErrMax= 8.66D-08  0.00D+00 EMaxC= 1.00D-01 BMatC= 3.85D-13 BMatP= 9.73D-11
 IDIUse=1 WtCom= 1.00D+00 WtEn= 0.00D+00
 Large coefficients: NSaved= 16 BigCof=    0.00 CofMax=   10.00 Det=-2.55D-20
 Inversion failed.  Reducing to 15 matrices.
 Coeff-Com:  0.154D-01-0.235D-01 0.149D-01-0.228D-01 0.717D-01-0.321D-01
 Coeff-Com: -0.256D+00 0.262D-01 0.381D+00-0.266D+00 0.761D+00-0.126D+01
 Coeff-Com:  0.804D+01-0.817D+01 0.172D+01
 Coeff:      0.154D-01-0.235D-01 0.149D-01-0.228D-01 0.717D-01-0.321D-01
 Coeff:     -0.256D+00 0.262D-01 0.381D+00-0.266D+00 0.761D+00-0.126D+01
 Coeff:      0.804D+01-0.817D+01 0.172D+01
 Gap=     0.061 Goal=   None    Shift=    0.000
 Gap=     0.304 Goal=   None    Shift=    0.000
 RMSDP=5.74D-08 MaxDP=6.72D-07 DE=-3.98D-11 OVMax= 6.39D-06

 Cycle  50  Pass 1  IDiag  1:
 E= -76.5837999396927     Delta-E=        0.000000000004 Rises=F Damp=F
 DIIS: error= 4.22D-07 at cycle  50 NSaved=  16.
 NSaved=16 IEnMin=15 EnMin= -76.5837999396964     IErMin=15 ErrMin= 8.66D-08
 ErrMax= 4.22D-07  0.00D+00 EMaxC= 1.00D-01 BMatC= 9.49D-12 BMatP= 3.85D-13
 IDIUse=1 WtCom= 1.00D+00 WtEn= 0.00D+00
 Large coefficients: NSaved= 16 BigCof=    0.00 CofMax=   10.00 Det=-1.33D-20
[...]
 Coeff-Com:  0.264D+00-0.125D+01 0.228D+01
 Coeff:      0.101D-01-0.649D-02 0.147D-01-0.175D-01 0.713D-01-0.475D-01
 Coeff:     -0.100D+00-0.214D+00 0.168D+00 0.403D+00-0.334D+00-0.235D+00
 Coeff:      0.264D+00-0.125D+01 0.228D+01
 Gap=     0.061 Goal=   None    Shift=    0.000
 Gap=     0.304 Goal=   None    Shift=    0.000
 RMSDP=9.48D-07 MaxDP=1.19D-05 DE= 0.00D+00 OVMax= 1.11D-04

 Cycle  86  Pass 1  IDiag  1:
 E= -76.5837999396966     Delta-E=        0.000000000000 Rises=F Damp=F
 DIIS: error= 1.08D-10 at cycle  86 NSaved=  16.
 NSaved=16 IEnMin= 4 EnMin= -76.5837999396967     IErMin=16 ErrMin= 1.08D-10
 ErrMax= 1.08D-10  0.00D+00 EMaxC= 1.00D-01 BMatC= 1.39D-18 BMatP= 1.56D-18
 IDIUse=1 WtCom= 1.00D+00 WtEn= 0.00D+00
 Large coefficients: NSaved= 16 BigCof=    0.00 CofMax=   10.00 Det=-2.46D-22
 Inversion failed.  Reducing to 15 matrices.
 Coeff-Com:  0.114D-02 0.989D-02-0.101D-01 0.274D-01-0.709D-03-0.818D-01
 Coeff-Com:  0.116D-01-0.105D+00 0.270D+00-0.434D-01-0.496D+00 0.321D+00
 Coeff-Com:  0.715D-01 0.130D+00 0.895D+00
 Coeff:      0.114D-02 0.989D-02-0.101D-01 0.274D-01-0.709D-03-0.818D-01
 Coeff:      0.116D-01-0.105D+00 0.270D+00-0.434D-01-0.496D+00 0.321D+00
 Coeff:      0.715D-01 0.130D+00 0.895D+00
 Gap=     0.061 Goal=   None    Shift=    0.000
 Gap=     0.304 Goal=   None    Shift=    0.000
 RMSDP=4.89D-09 MaxDP=6.13D-08 DE= 0.00D+00 OVMax= 5.70D-07

 SCF Done:  E(UM062X) =  -76.5837999397     A.U. after   86 cycles
            NFock= 86  Conv=0.49D-08     -V/T= 2.0029
 <Sx>= 0.0000 <Sy>= 0.0000 <Sz>= 0.5000 <S**2>= 0.7513 S= 0.5007
 <L.S>=  0.00000000000    
 KE= 7.636595773940D+01 PE=-1.968132798465D+02 EE= 3.281191956331D+01
 Annihilation of the first spin contaminant:
 S**2 before annihilation     0.7513,   after     0.7500
 Leave Link  502 at Tue Dec  3 11:37:21 2024, MaxMem=  2147483648 cpu:             322.2 elap:              13.9
 (Enter /home/szhao/Apps/g16/l701.exe)
 ... and contract with generalized density number  0.
 Compute integral first derivatives.
 Leave Link  701 at Tue Dec  3 11:37:22 2024, MaxMem=  2147483648 cpu:               3.3 elap:               0.1
 (Enter /home/szhao/Apps/g16/l702.exe)
 L702 exits ... SP integral derivatives will be done elsewhere.
 Leave Link  702 at Tue Dec  3 11:37:22 2024, MaxMem=  2147483648 cpu:               0.6 elap:               0.0
 (Enter /home/szhao/Apps/g16/l703.exe)
 Integral derivatives from FoFJK, PRISM(SPDF).
 Compute integral first derivatives, UseDBF=F ICtDFT=           0.
 Calling FoFJK, ICntrl=      2127 FMM=F ISym2X=0 I1Cent= 0 IOpClX= 1 NMat=1 NMatS=1 NMatT=0.
 FoFJK:  IHMeth= 1 ICntrl=    2127 DoSepK=F KAlg= 0 I1Cent=           0 FoldK=F
 IRaf=         0 NMat=       1 IRICut=       1 DoRegI=T DoRafI=F ISym2E= 0 IDoP0=0 IntGTp=1.
 FoFCou: FMM=F IPFlag=           0 FMFlag=      100000 FMFlg1=         800
         NFxFlg=           0 DoJE=F BraDBF=F KetDBF=F FulRan=T
         wScrn=  0.000000 ICntrl=      2127 IOpCl=  1 I1Cent=           0 NGrid=           0
         NMat0=    1 NMatS0=      1 NMatT0=    0 NMatD0=    1 NMtDS0=    0 NMtDT0=    0
 Symmetry not used in FoFCou.
 Leave Link  703 at Tue Dec  3 11:37:22 2024, MaxMem=  2147483648 cpu:              10.7 elap:               0.5
 (Enter /home/szhao/Apps/g16/l716.exe)
 Dipole        =-5.08244548D-07 9.52652035D-12 4.56778507D-12
 -------------------------------------------------------------------
 Center     Atomic                   Forces (Hartrees/Bohr)
 Number     Number              X              Y              Z
 -------------------------------------------------------------------
      1        6          -0.000000000   -0.000000000   -0.000000000
      2        6          -0.000000000   -0.000000000   -0.000000000
      3        1          -0.000296136    0.000000000   -0.000000000
      4        1           0.000296635    0.000000000   -0.000000000
 -------------------------------------------------------------------
 Cartesian Forces:  Max     0.000296635 RMS     0.000120999
 Leave Link  716 at Tue Dec  3 11:37:22 2024, MaxMem=  2147483648 cpu:               0.7 elap:               0.0
 (Enter /home/szhao/Apps/g16/l103.exe)

 GradGradGradGradGradGradGradGradGradGradGradGradGradGradGradGradGradGrad
 Berny optimization.
 Using GEDIIS/GDIIS optimizer.
 FormGI is forming the generalized inverse of G from B-inverse, IUseBI=4.
 Internal  Forces:  Max     0.000296635 RMS     0.000171118
 Search for a local minimum.
 Step number   2 out of a maximum of   22
 All quantities printed in internal units (Hartrees-Bohrs-Radians)
 RMS Force = .17112D-03 SwitMx=.10000D-02 MixMth= 2
 Mixed Optimization -- En-DIIS/RFO-DIIS
 Update second derivatives using D2CorX and points    1    2
 DE= -3.33D-04 DEPred=-3.29D-04 R= 1.01D+00
 TightC=F SS=  1.41D+00  RLast= 4.42D-02 DXNew= 5.0454D-01 1.3250D-01
 Trust test= 1.01D+00 RLast= 4.42D-02 DXMaxT set to 3.00D-01
 The second derivative matrix:
                          X1        Y1        Z1        X2        Y2
           X1           0.66323
           Y1           0.00000   0.50000
           Z1          -0.00000  -0.00000   0.50000
           X2          -0.16345  -0.00000   0.00000   0.66367
           Y2           0.00000   0.00000  -0.00000  -0.00000   0.50000
           Z2           0.00000   0.00000  -0.00000  -0.00000   0.00000
           R1          -0.16323  -0.00000   0.00000   0.16345  -0.00000
           R2          -0.16345  -0.00000   0.00000   0.16367  -0.00000
           A1           0.00000   0.00000  -0.00000  -0.00000   0.00000
           A2           0.00000   0.00000  -0.00000  -0.00000   0.00000
           A3           0.00000   0.00000  -0.00000  -0.00000   0.00000
           A4          -0.00000  -0.00000   0.00000   0.00000  -0.00000
                          Z2        R1        R2        A1        A2
           Z2           0.50000
           R1          -0.00000   0.33132
           R2          -0.00000  -0.00442   0.33133
           A1           0.00000  -0.00000  -0.00000   0.00230
           A2           0.00000  -0.00000  -0.00000   0.00000   0.00230
           A3           0.00000  -0.00000  -0.00000   0.00000   0.00000
           A4          -0.00000   0.00000   0.00000  -0.00000  -0.00000
                          A3        A4
           A3           0.00230
           A4          -0.00000   0.00230
 ITU=  1  0
 Use linear search instead of GDIIS.
     Eigenvalues ---    0.00230   0.00230   0.00230   0.32690   0.33574
     Eigenvalues --- 1000.000001000.000001000.000001000.000001000.00000
     Eigenvalues --- 1000.000001000.00000
 RFO step:  Lambda= 0.00000000D+00 EMin= 2.30000000D-03
 Quartic linear search produced a step of  0.03043.
 Iteration  1 RMS(Cart)=  0.00038799 RMS(Int)=  0.00000000
 Iteration  2 RMS(Cart)=  0.00000000 RMS(Int)=  0.00000000
 ITry= 1 IFail=0 DXMaxC= 9.51D-04 DCOld= 1.00D+10 DXMaxT= 3.00D-01 DXLimC= 3.00D+00 Rises=F
 Variable       Old X    -DE/DX   Delta X   Delta X   Delta X     New X
                                 (Linear)    (Quad)   (Total)
    X1       -4.31266  -0.00030   0.00000   0.00000   0.00000  -4.31266
    Y1        0.00000   0.00000   0.00000   0.00000   0.00000   0.00000
    Z1        0.00000  -0.00000   0.00000   0.00000   0.00000   0.00000
    X2        4.31266   0.00030   0.00000   0.00000   0.00000   4.31266
    Y2        0.00000   0.00000   0.00000   0.00000   0.00000   0.00000
    Z2        0.00000   0.00000   0.00000   0.00000   0.00000   0.00000
    R1        2.11179   0.00030   0.00095  -0.00000   0.00095   2.11274
    R2        2.11179   0.00030   0.00095   0.00000   0.00095   2.11274
    A1        3.14159   0.00000   0.00000   0.00000   0.00000   3.14159
    A2        3.14159   0.00000   0.00000   0.00000   0.00000   3.14159
    A3        3.14159   0.00000   0.00000   0.00000   0.00000   3.14159
    A4        3.14159  -0.00000   0.00000  -0.00000   0.00000   3.14159
         Item               Value     Threshold  Converged?
 Maximum Force            0.000297     0.000450     YES
 RMS     Force            0.000171     0.000300     YES
 Maximum Displacement     0.000951     0.001800     YES
 RMS     Displacement     0.000388     0.001200     YES
 Predicted change in Energy=-2.680919D-07
 Optimization completed.
    -- Stationary point found.
                           ----------------------------
                           !   Optimized Parameters   !
                           ! (Angstroms and Degrees)  !
 --------------------------                            --------------------------
 ! Name  Definition              Value          Derivative Info.                !
 --------------------------------------------------------------------------------
 ! X1    R(1,-1)                -2.2822         -DE/DX =   -0.0003              !
 ! Y1    R(1,-2)                 0.0            -DE/DX =    0.0                 !
 ! Z1    R(1,-3)                 0.0            -DE/DX =    0.0                 !
 ! X2    R(2,-1)                 2.2822         -DE/DX =    0.0003              !
 ! Y2    R(2,-2)                 0.0            -DE/DX =    0.0                 !
 ! Z2    R(2,-3)                 0.0            -DE/DX =    0.0                 !
 ! R1    R(1,3)                  1.1175         -DE/DX =    0.0003              !
 ! R2    R(2,4)                  1.1175         -DE/DX =    0.0003              !
 ! A1    L(2,1,3,-2,-1)        180.0            -DE/DX =    0.0                 !
 ! A2    L(1,2,4,-2,-1)        180.0            -DE/DX =    0.0                 !
 ! A3    L(2,1,3,-3,-2)        180.0            -DE/DX =    0.0                 !
 ! A4    L(1,2,4,-3,-2)        180.0            -DE/DX =    0.0                 !
 --------------------------------------------------------------------------------
 Lowest energy point so far.  Saving SCF results.
 Largest change from initial coordinates is atom    4       0.017 Angstoms.
 GradGradGradGradGradGradGradGradGradGradGradGradGradGradGradGradGradGrad

 Leave Link  103 at Tue Dec  3 11:37:22 2024, MaxMem=  2147483648 cpu:               0.1 elap:               0.0
 (Enter /home/szhao/Apps/g16/l202.exe)
                          Input orientation:                          
 ---------------------------------------------------------------------
 Center     Atomic      Atomic             Coordinates (Angstroms)
 Number     Number       Type             X           Y           Z
 ---------------------------------------------------------------------
      1          6           0       -2.282160    0.000000    0.000000
      2          6           0        2.282160    0.000000    0.000000
      3          1           0       -3.399669    0.000000    0.000000
      4          1           0        3.399669   -0.000000    0.000000
 ---------------------------------------------------------------------
                    Distance matrix (angstroms):
                    1          2          3          4
     1  C    0.000000
     2  C    4.564320   0.000000
     3  H    1.117509   5.681829   0.000000
     4  H    5.681829   1.117509   6.799338   0.000000
 Symmetry turned off by external request.
 Stoichiometry    C2H2(1+,2)
 Framework group  C*V[C*(HCCH)]
 Deg. of freedom     3
 Full point group                 C*V     NOp   4
 Rotational constants (GHZ):           0.0000000           3.4079421           3.4079421
 Leave Link  202 at Tue Dec  3 11:37:22 2024, MaxMem=  2147483648 cpu:               0.1 elap:               0.0
 (Enter /home/szhao/Apps/g16/l601.exe)
 Copying SCF densities to generalized density rwf, IOpCl= 1 IROHF=0.

 **********************************************************************

            Population analysis using the SCF density.

 **********************************************************************

 Alpha  occ. eigenvalues --  -10.93784 -10.93784  -0.97489  -0.97439  -0.62878
 Alpha  occ. eigenvalues --   -0.62522  -0.46768
 Alpha virt. eigenvalues --   -0.40620  -0.32555  -0.32442  -0.11759  -0.11019
 Alpha virt. eigenvalues --   -0.07280  -0.06996  -0.06289  -0.04567  -0.04269
 Alpha virt. eigenvalues --   -0.01549  -0.00038   0.05138   0.27982   0.29435
 Alpha virt. eigenvalues --    0.37269   0.38067   0.38138   0.39006   0.39300
 Alpha virt. eigenvalues --    0.42365   0.50745   0.58981   0.90051   0.90204
 Alpha virt. eigenvalues --    0.90283   0.90381   1.08410   1.08443   1.09460
 Alpha virt. eigenvalues --    1.09493   1.36274   1.36468   1.63446   1.63543
 Alpha virt. eigenvalues --    1.63730   1.63837   2.16020   2.18464   2.29149
 Alpha virt. eigenvalues --    2.29159   2.44416   2.45127   2.45834   2.46559
 Alpha virt. eigenvalues --    2.94907   2.95502  23.25321  23.27590
  Beta  occ. eigenvalues --  -10.93369 -10.93369  -0.95101  -0.95093  -0.61508
  Beta  occ. eigenvalues --   -0.61129
  Beta virt. eigenvalues --   -0.30682  -0.30534  -0.29064  -0.28889  -0.12154
  Beta virt. eigenvalues --   -0.10964  -0.06527  -0.06511  -0.05625  -0.03758
  Beta virt. eigenvalues --   -0.02802  -0.01780   0.01611   0.06913   0.27188
  Beta virt. eigenvalues --    0.28713   0.37550   0.37860   0.38839   0.38978
  Beta virt. eigenvalues --    0.43053   0.44973   0.52441   0.61501   0.97309
  Beta virt. eigenvalues --    0.97482   0.98218   0.98386   1.11700   1.11700
  Beta virt. eigenvalues --    1.11710   1.11711   1.36729   1.36847   1.65220
  Beta virt. eigenvalues --    1.65311   1.65889   1.65983   2.32276   2.32762
  Beta virt. eigenvalues --    2.33631   2.35630   2.47002   2.47744   2.49348
  Beta virt. eigenvalues --    2.50092   3.05217   3.05391  23.26648  23.28919
          Condensed to atoms (all electrons):
               1          2          3          4
     1  C    5.467204   0.003417   0.249710   0.000140
     2  C    0.003417   5.467204   0.000140   0.249710
     3  H    0.249710   0.000140   0.529680  -0.000000
     4  H    0.000140   0.249710  -0.000000   0.529680
          Atomic-Atomic Spin Densities.
               1          2          3          4
     1  C    0.519685   0.002226  -0.005613  -0.000032
     2  C    0.002226   0.519685  -0.000032  -0.005613
     3  H   -0.005613  -0.000032  -0.010620  -0.000000
     4  H   -0.000032  -0.005613  -0.000000  -0.010620
 Mulliken charges and spin densities:
               1          2
     1  C    0.279529   0.516265
     2  C    0.279529   0.516266
     3  H    0.220471  -0.016265
     4  H    0.220471  -0.016265
 Sum of Mulliken charges =   1.00000   1.00000
 Mulliken charges and spin densities with hydrogens summed into heavy atoms:
               1          2
     1  C    0.500000   0.500000
     2  C    0.500000   0.500000
 Electronic spatial extent (au):  <R**2>=            296.9343
 Charge=              1.0000 electrons
 Dipole moment (field-independent basis, Debye):
    X=             -0.0000    Y=              0.0000    Z=              0.0000  Tot=              0.0000
 Quadrupole moment (field-independent basis, Debye-Ang):
   XX=             32.7780   YY=            -11.4663   ZZ=             -9.4743
   XY=              0.0000   XZ=              0.0000   YZ=              0.0003
 Traceless Quadrupole moment (field-independent basis, Debye-Ang):
   XX=             28.8322   YY=            -15.4121   ZZ=            -13.4201
   XY=              0.0000   XZ=              0.0000   YZ=              0.0003
 Octapole moment (field-independent basis, Debye-Ang**2):
  XXX=             -0.0000  YYY=              0.0000  ZZZ=              0.0000  XYY=              0.0000
  XXY=              0.0000  XXZ=              0.0000  XZZ=              0.0000  YZZ=              0.0000
  YYZ=              0.0000  XYZ=             -0.0000
 Hexadecapole moment (field-independent basis, Debye-Ang**3):
 XXXX=            -20.7287 YYYY=            -12.4977 ZZZZ=             -8.2614 XXXY=              0.0000
 XXXZ=              0.0000 YYYX=              0.0000 YYYZ=              0.0003 ZZZX=              0.0000
 ZZZY=              0.0003 XXYY=            -68.0768 XXZZ=            -56.8905 YYZZ=             -3.4598
 XXYZ=              0.0018 YYXZ=              0.0000 ZZXY=              0.0000
 N-N= 1.105160260405D+01 E-N=-1.968132798456D+02  KE= 7.636595773940D+01
                          Isotropic Fermi Contact Couplings
        Atom                 a.u.       MegaHertz       Gauss      10(-4) cm-1
     1  C(13)              0.07814      87.84901      31.34671      29.30327
     2  C(13)              0.07814      87.84905      31.34673      29.30329
     3  H(1)              -0.00414     -18.49793      -6.60052      -6.17025
     4  H(1)              -0.00414     -18.49786      -6.60050      -6.17022
 --------------------------------------------------------
       Center         ----  Spin Dipole Couplings  ----
                      3XX-RR        3YY-RR        3ZZ-RR
 --------------------------------------------------------
     1   Atom       -0.321706      0.669351     -0.347644
     2   Atom       -0.321706      0.669351     -0.347644
     3   Atom        0.042459     -0.003985     -0.038474
     4   Atom        0.042459     -0.003985     -0.038474
 --------------------------------------------------------
                        XY            XZ            YZ
 --------------------------------------------------------
     1   Atom       -0.000000      0.000000     -0.000167
     2   Atom       -0.000000     -0.000000     -0.000167
     3   Atom        0.000000     -0.000000     -0.000006
     4   Atom        0.000000      0.000000     -0.000006
 --------------------------------------------------------


 ---------------------------------------------------------------------------------
              Anisotropic Spin Dipole Couplings in Principal Axis System
 ---------------------------------------------------------------------------------

       Atom             a.u.   MegaHertz   Gauss  10(-4) cm-1        Axes

              Baa    -0.3476   -46.651   -16.646   -15.561 -0.0000  0.0002  1.0000
     1 C(13)  Bbb    -0.3217   -43.170   -15.404   -14.400  1.0000  0.0000  0.0000
              Bcc     0.6694    89.820    32.050    29.961 -0.0000  1.0000 -0.0002
 
              Baa    -0.3476   -46.651   -16.646   -15.561  0.0000  0.0002  1.0000
     2 C(13)  Bbb    -0.3217   -43.170   -15.404   -14.400  1.0000  0.0000 -0.0000
              Bcc     0.6694    89.820    32.050    29.961 -0.0000  1.0000 -0.0002
 
              Baa    -0.0385   -20.528    -7.325    -6.847  0.0000  0.0002  1.0000
     3 H(1)   Bbb    -0.0040    -2.126    -0.759    -0.709 -0.0000  1.0000 -0.0002
              Bcc     0.0425    22.654     8.084     7.557  1.0000  0.0000 -0.0000
 
              Baa    -0.0385   -20.528    -7.325    -6.847 -0.0000  0.0002  1.0000
     4 H(1)   Bbb    -0.0040    -2.126    -0.759    -0.709 -0.0000  1.0000 -0.0002
              Bcc     0.0425    22.654     8.084     7.557  1.0000  0.0000  0.0000
 

 ---------------------------------------------------------------------------------

 No NMR shielding tensors so no spin-rotation constants.
 Leave Link  601 at Tue Dec  3 11:37:22 2024, MaxMem=  2147483648 cpu:               5.1 elap:               0.2
 (Enter /home/szhao/Apps/g16/l9999.exe)
 1\1\GINC-NODE01\FOpt\UM062X\6-311+G(d,p)\C2H2(1+,2)\SZHAO\03-Dec-2024\
 0\\#p opt UM062X/6-311+G** nosymm int=superfine\\Title Card Required\\
 1,2\C,-2.28216,0.,0.\C,2.28216,0.,0.\H,-3.3996694461,0.,0.\H,3.3996685
 957,0.,0.\\Version=ES64L-G16RevA.03\HF=-76.5837999\S2=0.75134\S2-1=0.\
 S2A=0.750001\RMSD=4.886e-09\RMSF=1.210e-04\Dipole=-0.0000004,0.,0.\Qua
 drupole=21.4360014,-11.4584916,-9.9775098,0.,0.,0.0002438\PG=C*V [C*(H
 1C1C1H1)]\\@


 LOGIC IS A SYSTEMATIC METHOD OF COMING TO THE
 WRONG CONCLUSION WITH CONFIDENCE.
 Job cpu time:       0 days  0 hours  7 minutes 31.7 seconds.
 Elapsed time:       0 days  0 hours  0 minutes 19.5 seconds.
 File lengths (MBytes):  RWF=      6 Int=      0 D2E=      0 Chk=      1 Scr=      1
 Normal termination of Gaussian 16 at Tue Dec  3 11:37:22 2024.
