Title Card Required                                                     
FOpt      UM062X                                                      6-311+G(d,p)        
Number of atoms                            I                4
Info1-9                                    I   N=           9
          13          13           0           0           0         110
           2          18        -502
Full Title                                 C   N=           2
Title Card Required     
Route                                      C   N=           4
#p opt UM062X/6-311+G** nosymm int=superfine    
Charge                                     I                1
Multiplicity                               I                2
Number of electrons                        I               13
Number of alpha electrons                  I                7
Number of beta electrons                   I                6
Number of basis functions                  I               56
Number of independent functions            I               56
Number of point charges in /Mol/           I                0
Number of translation vectors              I                0
Atomic numbers                             I   N=           4
           6           6           1           1
Nuclear charges                            R   N=           4
  6.00000000E+00  6.00000000E+00  1.00000000E+00  1.00000000E+00
Current cartesian coordinates              R   N=          12
 -2.65914701E+00  0.00000000E+00  0.00000000E+00  2.65914701E+00  0.00000000E+00
  0.00000000E+00 -4.77559289E+00 -2.23636722E-13  4.83342970E-16  4.77559057E+00
 -7.22086953E-14 -1.51781308E-12
Number of symbols in /Mol/                 I                0
Force Field                                I                0
Atom Types                                 C   N=           4
                                                
Int Atom Types                             I   N=           4
           0           0           0           0
MM charges                                 R   N=           4
  0.00000000E+00  0.00000000E+00  0.00000000E+00  0.00000000E+00
Integer atomic weights                     I   N=           4
          12          12           1           1
Real atomic weights                        R   N=           4
  1.20000000E+01  1.20000000E+01  1.00782504E+00  1.00782504E+00
Atom fragment info                         I   N=           4
           0           0           0           0
Atom residue num                           I   N=           4
           0           0           0           0
Nuclear spins                              I   N=           4
           0           0           1           1
Nuclear ZEff                               R   N=           4
 -3.60000000E+00 -3.60000000E+00 -1.00000000E+00 -1.00000000E+00
Nuclear ZNuc                               R   N=           4
  6.00000000E+00  6.00000000E+00  1.00000000E+00  1.00000000E+00
Nuclear QMom                               R   N=           4
  0.00000000E+00  0.00000000E+00  0.00000000E+00  0.00000000E+00
Nuclear GFac                               R   N=           4
  0.00000000E+00  0.00000000E+00  2.79284600E+00  2.79284600E+00
MicOpt                                     I   N=           4
          -2          -2          -1          -1
Number of residues                         I                0
Number of secondary structures             I                0
Redundant internal dimensions              I   N=           4
          12           8           4           0
Redundant internal coordinate indices      I   N=          48
           1          -1           0           0           1          -2
           0           0           1          -3           0           0
           2          -1           0           0           2          -2
           0           0           2          -3           0           0
           1           3           0           0           2           4
           0           0           2           1           3          -4
           1           2           4          -4           2           1
           3          -8           1           2           4          -8
Redundant internal coordinates             R   N=          12
 -2.65914701E+00  0.00000000E+00  0.00000000E+00  2.65914701E+00  0.00000000E+00
  0.00000000E+00  2.11644588E+00  2.11644356E+00  3.14159265E+00  3.14159265E+00
  3.14159265E+00  3.14159265E+00
ZRed-IntVec                                I   N=          12
          -1          -1          -1          -1          -1          -1
           0           0           0           0           0           0
ZRed-FPVec                                 R   N=          12
  0.00000000E+00  0.00000000E+00  0.00000000E+00  0.00000000E+00  0.00000000E+00
  0.00000000E+00  0.00000000E+00  0.00000000E+00  0.00000000E+00  0.00000000E+00
  0.00000000E+00  0.00000000E+00
ZRed-Constraint1                           R   N=          12
 -2.65914701E+00  0.00000000E+00  0.00000000E+00  2.65914701E+00  0.00000000E+00
  0.00000000E+00  2.08057524E+00  2.08053366E+00  3.14159265E+00  3.14159265E+00
  3.14159265E+00  3.14159265E+00
ZRed-Constraint2                           R   N=          12
 -2.65914701E+00  0.00000000E+00  0.00000000E+00  2.65914701E+00  0.00000000E+00
  0.00000000E+00  0.00000000E+00  0.00000000E+00  0.00000000E+00  0.00000000E+00
  0.00000000E+00  0.00000000E+00
Number of contracted shells                I               20
Number of primitive shells                 I               38
Pure/Cartesian d shells                    I                0
Pure/Cartesian f shells                    I                0
Highest angular momentum                   I                2
Largest degree of contraction              I                6
Shell types                                I   N=          20
           0          -1          -1          -1          -1          -2
           0          -1          -1          -1          -1          -2
           0           0           0           1           0           0
           0           1
Number of primitives per shell             I   N=          20
           6           3           1           1           1           1
           6           3           1           1           1           1
           3           1           1           1           3           1
           1           1
Shell to atom map                          I   N=          20
           1           1           1           1           1           1
           2           2           2           2           2           2
           3           3           3           3           4           4
           4           4
Primitive exponents                        R   N=          38
  4.56324000E+03  6.82024000E+02  1.54973000E+02  4.44553000E+01  1.30290000E+01
  1.82773000E+00  2.09642000E+01  4.80331000E+00  1.45933000E+00  4.83456000E-01
  1.45585000E-01  4.38000000E-02  6.26000000E-01  4.56324000E+03  6.82024000E+02
  1.54973000E+02  4.44553000E+01  1.30290000E+01  1.82773000E+00  2.09642000E+01
  4.80331000E+00  1.45933000E+00  4.83456000E-01  1.45585000E-01  4.38000000E-02
  6.26000000E-01  3.38650000E+01  5.09479000E+00  1.15879000E+00  3.25840000E-01
  1.02741000E-01  7.50000000E-01  3.38650000E+01  5.09479000E+00  1.15879000E+00
  3.25840000E-01  1.02741000E-01  7.50000000E-01
Contraction coefficients                   R   N=          38
  1.96665025E-03  1.52306019E-02  7.61269097E-02  2.60801033E-01  6.16462078E-01
  2.21006028E-01  1.14660081E-01  9.19999648E-01 -3.03068213E-03  1.00000000E+00
  1.00000000E+00  1.00000000E+00  1.00000000E+00  1.96665025E-03  1.52306019E-02
  7.61269097E-02  2.60801033E-01  6.16462078E-01  2.21006028E-01  1.14660081E-01
  9.19999648E-01 -3.03068213E-03  1.00000000E+00  1.00000000E+00  1.00000000E+00
  1.00000000E+00  2.54938145E-02  1.90373109E-01  8.52161486E-01  1.00000000E+00
  1.00000000E+00  1.00000000E+00  2.54938145E-02  1.90373109E-01  8.52161486E-01
  1.00000000E+00  1.00000000E+00  1.00000000E+00
P(S=P) Contraction coefficients            R   N=          38
  0.00000000E+00  0.00000000E+00  0.00000000E+00  0.00000000E+00  0.00000000E+00
  0.00000000E+00  4.02486927E-02  2.37593957E-01  8.15853851E-01  1.00000000E+00
  1.00000000E+00  1.00000000E+00  0.00000000E+00  0.00000000E+00  0.00000000E+00
  0.00000000E+00  0.00000000E+00  0.00000000E+00  0.00000000E+00  4.02486927E-02
  2.37593957E-01  8.15853851E-01  1.00000000E+00  1.00000000E+00  1.00000000E+00
  0.00000000E+00  0.00000000E+00  0.00000000E+00  0.00000000E+00  0.00000000E+00
  0.00000000E+00  0.00000000E+00  0.00000000E+00  0.00000000E+00  0.00000000E+00
  0.00000000E+00  0.00000000E+00  0.00000000E+00
Coordinates of each shell                  R   N=          60
 -2.65914701E+00  0.00000000E+00  0.00000000E+00 -2.65914701E+00  0.00000000E+00
  0.00000000E+00 -2.65914701E+00  0.00000000E+00  0.00000000E+00 -2.65914701E+00
  0.00000000E+00  0.00000000E+00 -2.65914701E+00  0.00000000E+00  0.00000000E+00
 -2.65914701E+00  0.00000000E+00  0.00000000E+00  2.65914701E+00  0.00000000E+00
  0.00000000E+00  2.65914701E+00  0.00000000E+00  0.00000000E+00  2.65914701E+00
  0.00000000E+00  0.00000000E+00  2.65914701E+00  0.00000000E+00  0.00000000E+00
  2.65914701E+00  0.00000000E+00  0.00000000E+00  2.65914701E+00  0.00000000E+00
  0.00000000E+00 -4.77559289E+00 -2.23636722E-13  4.83342970E-16 -4.77559289E+00
 -2.23636722E-13  4.83342970E-16 -4.77559289E+00 -2.23636722E-13  4.83342970E-16
 -4.77559289E+00 -2.23636722E-13  4.83342970E-16  4.77559057E+00 -7.22086953E-14
 -1.51781308E-12  4.77559057E+00 -7.22086953E-14 -1.51781308E-12  4.77559057E+00
 -7.22086953E-14 -1.51781308E-12  4.77559057E+00 -7.22086953E-14 -1.51781308E-12
Num ILSW                                   I              100
ILSW                                       I   N=         100
           1           0           0           0           2           0
           0           0           0           0        4336          -1
           7           0           0           0           2           0
           0           0           0           0           1           0
           1           1           0           0           0           0
           0           0      100000           0          -1           0
           0           0           0           0           0           0
           0           0           0           1           0           0
           0 -2000000000           1           0           0           0
           0           0           4          52           0           0
           0           0          55           0           0           0
           0           0           0           4           0           1
           0           0           0           0           0           0
           0           0           0           0           0           0
           0           0           0           0           0           0
           0           0           0           0           0           0
           0           0           0           0
Num RLSW                                   I               52
RLSW                                       R   N=          52
  1.00000000E+00  1.00000000E+00  1.00000000E+00  1.00000000E+00  5.40000000E-01
  0.00000000E+00  0.00000000E+00  1.00000000E+00  0.00000000E+00  0.00000000E+00
  0.00000000E+00  0.00000000E+00  1.00000000E+00  0.00000000E+00  0.00000000E+00
  0.00000000E+00  0.00000000E+00  1.00000000E+00  0.00000000E+00  0.00000000E+00
  0.00000000E+00  0.00000000E+00  1.00000000E+00  0.00000000E+00  0.00000000E+00
  0.00000000E+00  0.00000000E+00  1.00000000E+00  0.00000000E+00  0.00000000E+00
  0.00000000E+00  0.00000000E+00  1.00000000E+00  0.00000000E+00  0.00000000E+00
  0.00000000E+00  0.00000000E+00  0.00000000E+00  1.00000000E+00  1.00000000E+00
  0.00000000E+00  1.00000000E+00  0.00000000E+00  0.00000000E+00  0.00000000E+00
  0.00000000E+00  0.00000000E+00  0.00000000E+00  0.00000000E+00  0.00000000E+00
  0.00000000E+00  0.00000000E+00
MxBond                                     I                2
NBond                                      I   N=           4
           2           2           1           1
IBond                                      I   N=           8
           2           3           1           4           1           0
           2           0
RBond                                      R   N=           8
  1.00000000E-01  1.00000000E+00  1.00000000E-01  1.00000000E+00  1.00000000E+00
  0.00000000E+00  1.00000000E+00  0.00000000E+00
Virial Ratio                               R      2.002453037602405E+00
SCF Energy                                 R     -7.658544255210754E+01
Total Energy                               R     -7.658544255210754E+01
S**2                                       R      7.510761438451423E-01
S**2 after annihilation                    R      7.500008303834449E-01
RMS Force                                  R      1.821172398506788E-04
RMS Density                                R      3.064976589812634E-09
Job Status                                 I                1
Nuclear derivative order                   I                1
External E-field                           R   N=          35
  0.00000000E+00  0.00000000E+00  0.00000000E+00  0.00000000E+00  0.00000000E+00
  0.00000000E+00  0.00000000E+00  0.00000000E+00  0.00000000E+00  0.00000000E+00
  0.00000000E+00  0.00000000E+00  0.00000000E+00  0.00000000E+00  0.00000000E+00
  0.00000000E+00  0.00000000E+00  0.00000000E+00  0.00000000E+00  0.00000000E+00
  0.00000000E+00  0.00000000E+00  0.00000000E+00  0.00000000E+00  0.00000000E+00
  0.00000000E+00  0.00000000E+00  0.00000000E+00  0.00000000E+00  0.00000000E+00
  0.00000000E+00  0.00000000E+00  0.00000000E+00  0.00000000E+00  0.00000000E+00
IOpCl                                      I                1
IROHF                                      I                0
Alpha Orbital Energies                     R   N=          56
 -1.09536491E+01 -1.09536341E+01 -9.93790770E-01 -9.85796484E-01 -6.78467162E-01
 -6.09990278E-01 -5.08868559E-01 -3.97804143E-01 -3.51604657E-01 -3.33765300E-01
 -1.30767580E-01 -1.16862082E-01 -8.16969119E-02 -7.62795327E-02 -6.13426739E-02
 -5.19696439E-02 -4.80029841E-02 -1.22269819E-02  1.15670074E-02  5.95406844E-02
  2.43426408E-01  3.15987796E-01  3.31101156E-01  3.38390238E-01  3.90590974E-01
  3.93732686E-01  3.97676599E-01  5.32485535E-01  5.69449356E-01  6.43816696E-01
  8.74168694E-01  8.75052837E-01  9.04436670E-01  9.08018351E-01  1.06582049E+00
  1.06849733E+00  1.07628304E+00  1.07894622E+00  1.33330123E+00  1.36427098E+00
  1.61007122E+00  1.61334661E+00  1.62619378E+00  1.62865860E+00  2.14406606E+00
  2.18364098E+00  2.28386914E+00  2.36314598E+00  2.41894556E+00  2.43387856E+00
  2.45131891E+00  2.46546543E+00  2.96471090E+00  3.05558193E+00  2.32440566E+01
  2.32741715E+01
Beta Orbital Energies                      R   N=          56
 -1.09497640E+01 -1.09497573E+01 -9.69526062E-01 -9.63955435E-01 -6.65654338E-01
 -5.95240885E-01 -3.34900232E-01 -3.19220622E-01 -3.14731361E-01 -2.98145059E-01
 -1.36673786E-01 -1.16175523E-01 -7.71739592E-02 -6.98667005E-02 -6.94163556E-02
 -4.50150973E-02 -3.59259777E-02 -1.96700479E-02  2.88256589E-02  7.18215125E-02
  2.35307115E-01  3.36681877E-01  3.41146605E-01  3.42660917E-01  3.88868692E-01
  3.93119340E-01  4.15641603E-01  5.58587884E-01  5.77160869E-01  6.46318453E-01
  9.42326713E-01  9.51662609E-01  9.73598483E-01  9.82137181E-01  1.09866656E+00
  1.09876744E+00  1.10001822E+00  1.10011513E+00  1.33875122E+00  1.36760051E+00
  1.62700394E+00  1.63377860E+00  1.64292543E+00  1.64944292E+00  2.28778467E+00
  2.30617345E+00  2.36840361E+00  2.40134279E+00  2.44565691E+00  2.46915116E+00
  2.47561030E+00  2.49719007E+00  3.04221356E+00  3.16101698E+00  2.32569323E+01
  2.32867988E+01
Alpha MO coefficients                      R   N=        3136
  4.01420811E-01  3.30720142E-01 -1.41832493E-03  1.50215044E-15 -7.30837459E-16
  6.77455949E-03 -8.52532809E-04 -1.25517818E-15  1.11278529E-15 -3.51457959E-03
  2.21752605E-04  8.11563056E-16 -8.72539964E-16 -1.29325814E-04  9.77039086E-04
 -1.75530657E-16  6.25695361E-17 -3.54237283E-04  5.35671069E-17 -6.87931160E-06
  6.00574381E-04 -1.15762697E-16  3.96190038E-01  3.26411144E-01  1.39902395E-03
  4.11084447E-16 -1.08037495E-15  6.68222902E-03  8.45911157E-04  1.80226888E-16
  2.79330712E-16 -3.46200935E-03 -2.31190415E-04 -1.69331899E-16  3.50934675E-16
 -1.75914614E-04 -9.44627461E-04  9.81405466E-17  5.88176573E-16 -3.50437666E-04
 -8.65681639E-17 -6.69379552E-06  5.94343872E-04  2.52087213E-16  2.81596811E-04
 -1.88683448E-03  2.50258131E-03 -1.26169378E-03 -5.91336808E-16 -9.55050864E-17
  2.76957505E-04 -1.86099849E-03  2.47890470E-03  1.24617421E-03 -4.01901471E-16
 -3.23591617E-15 -3.96192495E-01 -3.26374431E-01  1.46231034E-03 -1.03270892E-15
 -1.48518142E-16 -6.99610781E-03  5.00189182E-04  7.11870370E-16 -7.69991443E-17
  3.98504087E-03  7.20940152E-04 -5.25466876E-16  2.28119812E-16 -3.55242879E-03
 -2.46475189E-03  1.69754942E-16 -2.42409312E-16  2.87606626E-04 -9.05979004E-17
  1.40971427E-05 -4.71505891E-04  7.38796813E-17  4.01423236E-01  3.30683904E-01
  1.48078658E-03  9.38141175E-16 -4.40271037E-16  7.08436702E-03  5.11338607E-04
 -6.28510772E-16 -4.36536577E-16 -4.03079100E-03  7.17970047E-04  4.58980806E-16
  5.08823835E-16  3.55042401E-03 -2.47735512E-03 -2.19833667E-16  2.27381740E-16
 -2.92230670E-04 -1.03713960E-16 -1.41861209E-05  4.79347054E-04  1.54521522E-16
 -3.51731050E-04  1.95868342E-03 -1.78953440E-03  1.17572630E-03  5.16757234E-16
 -3.07652530E-17  3.55392478E-04 -1.98327690E-03  1.82220976E-03  1.19218171E-03
 -3.49703803E-16 -3.11082029E-15 -8.06298423E-02 -1.31494617E-01 -5.07397079E-02
 -9.15950641E-15  3.46832568E-19  3.86005505E-01 -7.89247242E-02  9.04256033E-14
 -3.79302184E-17  2.55797549E-01 -2.57385369E-02 -1.84527324E-14  9.41137664E-17
 -5.67554387E-04 -9.12569153E-03  1.47900970E-14  4.44656683E-16 -3.54249491E-03
  2.07857099E-15  4.17560268E-04  6.92606183E-03 -4.74353861E-14 -8.06324375E-02
 -1.31498845E-01  5.07417481E-02  9.37072522E-15 -3.17908511E-14  3.86017839E-01
  7.89277915E-02  2.63389077E-14 -2.76702534E-14  2.55805835E-01  2.57397581E-02
  3.25437399E-14  9.67459346E-15 -5.69116844E-04  9.12674028E-03 -1.04197106E-14
 -1.21452983E-14 -3.54265605E-03  1.78481514E-14  4.17563565E-04  6.92634715E-03
  1.87335873E-14  9.46967807E-02  1.18556808E-01 -1.32583878E-02  1.64270170E-02
 -1.08376728E-13  4.42380628E-16  9.47002028E-02  1.18560911E-01 -1.32588950E-02
 -1.64275678E-02 -3.79951757E-14 -2.87417533E-14 -7.97345391E-02 -1.30046309E-01
 -5.86286881E-02 -8.67712566E-15  3.82642878E-16  3.81405830E-01 -9.00651083E-02
  9.37473130E-14 -1.07880683E-16  2.60433929E-01 -3.74625194E-02 -1.95458934E-14
  6.05196750E-16 -5.03888471E-02 -3.36948812E-02  1.91899188E-14 -2.70639650E-15
 -4.54770457E-03  2.12124987E-15  2.36119985E-05  7.92154403E-03 -4.94106039E-14
  7.97318654E-02  1.30041944E-01 -5.86271641E-02 -9.81951038E-15  3.38032793E-14
 -3.81392951E-01 -9.00626653E-02 -2.93042836E-14  3.10794436E-14 -2.60425263E-01
 -3.74617001E-02 -2.70241842E-14 -8.09779034E-15  5.03888285E-02 -3.36945651E-02
 -1.89943008E-15  1.35461006E-14  4.54760363E-03 -1.72616988E-14 -2.36004880E-05
 -7.92134739E-03 -1.99764440E-14  9.91236107E-02  1.21802306E-01 -1.54899794E-02
  1.64451247E-02 -1.12361809E-13  5.69549882E-16 -9.91206870E-02 -1.21798522E-01
  1.54895446E-02  1.64445954E-02  3.94292183E-14  3.03562490E-14 -3.50691890E-02
 -5.83240264E-02  1.64684824E-01 -4.23292866E-14  2.42449871E-14  1.79533730E-01
  2.41071066E-01 -2.03235992E-13  3.89122851E-14  2.04638073E-01  1.49090868E-01
 -2.42791747E-14  2.33245850E-14  1.28094350E-02  3.28496283E-03 -5.38696005E-15
  2.23522359E-15  1.35472980E-02  1.32672490E-15  1.78996548E-04 -2.31261751E-02
  6.25882895E-14 -3.50692573E-02 -5.83241423E-02 -1.64684912E-01 -7.32878383E-14
  6.21841874E-14  1.79534072E-01 -2.41071140E-01 -1.02726794E-13  7.33794413E-14
  2.04638648E-01 -1.49090814E-01 -9.95063830E-14  1.86421462E-15  1.28093855E-02
 -3.28489265E-03  2.91306713E-15  4.96877304E-15  1.35473113E-02 -6.07246280E-15
  1.78996879E-04 -2.31261975E-02 -3.11522792E-14 -9.46733448E-02 -1.58878341E-01
 -4.78150230E-02 -8.85268847E-03  4.76705482E-14  5.95263640E-16 -9.46733551E-02
 -1.58878313E-01 -4.78150829E-02  8.85267620E-03  2.03005172E-14  2.77230705E-14
 -4.80553120E-02 -8.00880275E-02  1.72661358E-01 -7.35162513E-14  1.76923841E-14
  2.48216317E-01  2.47081562E-01 -2.63314410E-13  2.83652357E-14  2.89051938E-01
  1.91917271E-01 -6.73213682E-14  1.57305095E-14  3.50077469E-02  1.82197899E-02
 -2.29437510E-14 -3.30450520E-15  1.66210052E-02  9.96578916E-16 -3.32409248E-04
 -2.94181056E-02  6.65395953E-14  4.80553194E-02  8.00880419E-02  1.72661311E-01
  1.03317378E-13 -7.06611556E-14 -2.48216335E-01  2.47081432E-01  1.48911075E-13
 -8.63081833E-14 -2.89052169E-01  1.91917156E-01  1.40919896E-13 -1.32190661E-14
 -3.50077749E-02  1.82197697E-02  1.45686879E-14 -7.70118358E-15 -1.66210050E-02
  2.99134550E-15  3.32408108E-04  2.94181031E-02  3.38035185E-14 -9.88373612E-02
 -1.70588737E-01 -5.25756316E-02 -6.98497806E-03  3.50778701E-14 -2.14219953E-16
  9.88372795E-02  1.70588513E-01  5.25755478E-02 -6.98495962E-03 -1.58941326E-14
 -2.89249447E-14  1.69779159E-15 -5.15470225E-15  5.07335852E-14  8.05094578E-02
  1.87027838E-01  1.65710740E-13  2.99257787E-14  1.26198687E-01  2.93164885E-01
 -1.07798423E-12  5.06288705E-13  1.16998505E-01  2.71794885E-01 -9.58542930E-13
  6.67862576E-13  7.54531905E-03  1.75273848E-02  1.61081883E-14 -1.15072588E-02
  7.57127384E-15 -3.25320379E-14 -4.95334896E-03  1.95226461E-15  1.07522329E-14
  5.94180716E-14  8.05094835E-02  1.87027897E-01  9.26993536E-14 -2.26525457E-13
  1.26198733E-01  2.93164988E-01 -1.46358742E-12 -6.24664447E-13  1.16998551E-01
  2.71794989E-01 -5.51428625E-13 -7.06424321E-13  7.54532250E-03  1.75273927E-02
  1.01113042E-13  1.15072848E-02  2.08906060E-15 -1.95981768E-13  4.95336018E-03
  1.52068113E-14 -1.91077061E-14  1.97409716E-12  2.21071125E-14  5.49510158E-03
  1.27651844E-02 -2.44489434E-14  6.90218592E-13  1.72011698E-12 -3.31159624E-13
  5.49511064E-03  1.27652054E-02  4.23313831E-16 -5.62444034E-15  8.00590893E-14
  8.34206507E-02  1.93793386E-01  1.80817737E-13 -8.28256686E-14  1.30502453E-01
  3.03166856E-01 -1.63050722E-12  1.50163101E-12  1.21499935E-01  2.82256152E-01
  1.09802113E-12  2.01596950E-12  1.44369067E-02  3.35368567E-02  2.92903373E-14
 -1.97283711E-02  7.60327979E-15 -5.44026921E-14 -8.49216384E-03  5.88221985E-15
 -2.88926138E-16 -1.73034165E-14 -8.34206169E-02 -1.93793306E-01 -1.27573719E-13
  1.53663182E-13 -1.30502405E-01 -3.03166743E-01  1.87540488E-12  1.55120249E-12
 -1.21499895E-01 -2.82256056E-01 -1.32283462E-12  1.89124727E-12 -1.44369025E-02
 -3.35368470E-02 -1.18479296E-13 -1.97283849E-02 -2.39964923E-15  2.25932603E-13
 -8.49216981E-03 -8.82793780E-15  2.76569359E-13  2.84239657E-12  4.67229158E-14
  6.70746813E-03  1.55817802E-02  6.08636440E-14 -9.39645185E-13 -2.48050815E-12
  3.65632835E-13 -6.70747271E-03 -1.55817907E-02  5.00129584E-15 -1.04077875E-14
  1.50607882E-13  1.74508394E-01 -7.51204762E-02  4.07086430E-13  2.11281533E-15
  2.80684271E-01 -1.20825304E-01 -3.11263765E-12  1.95043685E-12  2.74386060E-01
 -1.18115199E-01 -1.20551257E-12  2.76957772E-12  4.54677123E-02 -1.95720302E-02
  4.07627226E-14  5.31840586E-03 -2.04131760E-15 -8.65306824E-14 -1.23546201E-02
  7.71654847E-15  1.16409834E-14 -8.13210584E-14  1.74507866E-01 -7.51202497E-02
  1.24123127E-13 -3.92258190E-13  2.80683427E-01 -1.20824942E-01 -1.33168735E-12
 -2.93286372E-13  2.74385277E-01 -1.18114862E-01 -2.13790122E-12 -1.97093747E-13
  4.54675556E-02 -1.95719629E-02  7.24764607E-14 -5.31839087E-03 -9.64527049E-15
 -1.31583416E-13  1.23545851E-02  2.72399253E-14  3.75653580E-14  5.83595760E-12
  6.71046526E-14  1.41332689E-02 -6.08383725E-03 -1.43708944E-14  2.46661310E-13
  1.86296132E-12 -2.14140004E-13  1.41332399E-02 -6.08382483E-03 -1.35989911E-14
 -3.91516960E-14  2.19090595E-13  1.84017386E-01 -7.92126887E-02  5.11691719E-13
 -7.75386889E-14  2.95728197E-01 -1.27299366E-01 -3.62058616E-12  3.17939973E-12
  2.88134660E-01 -1.24031946E-01  1.40520910E-12  4.40821304E-12  6.41762246E-02
 -2.76248391E-02  6.46727865E-14  7.49400680E-03 -2.34989810E-15 -1.28637558E-13
 -1.74088651E-02  1.26602529E-14  1.75470344E-14  1.72795382E-13 -1.84017850E-01
  7.92128884E-02 -2.22174898E-13  1.45913567E-13 -2.95728946E-01  1.27299689E-01
  2.24282174E-12  2.55596609E-12 -2.88135435E-01  1.24032280E-01 -2.91383207E-12
  3.19904936E-12 -6.41763716E-02  2.76249025E-02 -1.06497068E-13  7.49402664E-03
  1.00451193E-14  1.90630532E-13 -1.74089111E-02 -2.97887827E-14  3.78264077E-13
  6.74918598E-12  9.88831581E-14  1.59498212E-02 -6.86570220E-03  9.10052924E-14
 -8.33154421E-13 -3.52087148E-12  2.68052474E-13 -1.59498756E-02  6.86572563E-03
  2.94168323E-02  5.01896269E-02  3.71866578E-02 -3.20951483E-14 -6.53142170E-17
 -1.65027814E-01  8.13632175E-02  1.55278262E-13  5.78480940E-16 -4.52145923E-01
  8.86340919E-02 -5.16219022E-13 -1.07500251E-15  9.65627792E-01 -4.19865066E-01
  6.62158189E-13  5.42471470E-14  5.97240774E-03 -9.04037800E-16  1.55957754E-03
 -7.39242330E-03 -1.22720519E-14  2.94167537E-02  5.01894968E-02 -3.71861373E-02
 -2.79741287E-14  2.85237353E-14 -1.65027383E-01 -8.13625103E-02 -2.11272191E-14
  8.12725523E-14 -4.52144821E-01 -8.86327702E-02 -4.85609181E-14  1.24780733E-13
  9.65629866E-01  4.19860483E-01 -4.43574115E-14 -3.13225750E-13  5.97240978E-03
  4.59210382E-14  1.55957443E-03 -7.39243274E-03  2.85941510E-15  2.97952934E-03
  1.44433745E-01 -1.90770116E-01 -6.37282457E-03  1.08652201E-13  1.12867045E-15
  2.97940773E-03  1.44433197E-01 -1.90770612E-01  6.37269418E-03  3.13034133E-14
 -1.77929701E-13 -1.77758921E-02 -3.10606068E-02 -6.95209329E-02  2.76165313E-14
  1.15407352E-15  1.18753205E-01 -1.20027430E-01 -1.51398399E-13  4.24733992E-15
  1.71703448E-01 -1.35181421E-01  6.11699211E-13 -7.48128035E-15  2.35914903E-01
  1.19878142E+00 -1.00119055E-12  1.45829280E-13 -5.46895643E-03 -1.15384763E-15
 -8.47915065E-04  7.86782874E-03 -2.09444198E-15  1.77759791E-02  3.10607597E-02
 -6.95208069E-02  3.41486899E-14  2.25788747E-14 -1.18753774E-01 -1.20027419E-01
  7.29466840E-14  5.96711532E-14 -1.71704336E-01 -1.35180558E-01  1.32886986E-13
  7.77843459E-14 -2.35909726E-01  1.19878316E+00 -4.83746899E-14 -3.25292991E-13
  5.46901243E-03  3.55058148E-14  8.47922802E-04 -7.86791110E-03  3.08696792E-15
  6.48734243E-03 -9.94863129E-02  2.46020805E-01  1.52247444E-02 -1.01723234E-13
  1.54916529E-15 -6.48755438E-03  9.94863317E-02 -2.46023660E-01  1.52247143E-02
  3.44708142E-14 -1.70033007E-13 -7.12594372E-14 -1.00144864E-13 -7.73516330E-13
 -8.61978083E-02  3.71058185E-02 -8.12816703E-14 -5.76343720E-13 -1.02947707E-01
  4.43155326E-02  5.71661829E-12 -5.72814153E-12 -2.89217224E-01  1.24500516E-01
  4.85903332E-12 -3.44329561E-12  6.39172263E-01 -2.75146233E-01  4.49811420E-14
 -3.71430324E-03  3.89766684E-15 -6.47432695E-14  8.62787078E-03 -2.22648721E-14
 -3.96698542E-14  1.50937803E-13 -8.61977602E-02  3.71057978E-02  1.32926176E-13
  4.23866543E-13 -1.02947653E-01  4.43155094E-02 -2.09453842E-14  2.34789942E-13
 -2.89217088E-01  1.24500458E-01  2.95186858E-12 -2.22977957E-12  6.39171568E-01
 -2.75145934E-01  2.41730153E-14  3.71430847E-03  6.73598436E-15 -3.45999505E-14
 -8.62788294E-03 -3.96775968E-13 -5.37115389E-13 -1.48258953E-11  1.13743608E-13
 -8.57480008E-05  3.68579404E-05 -1.06014297E-13 -5.45147842E-13 -4.53060384E-13
  6.58901150E-15 -8.57697214E-05  3.68672923E-05 -2.46426320E-14 -3.36659273E-14
 -3.66361157E-13 -3.44535811E-02 -8.00367597E-02 -5.07213565E-14 -2.82329864E-13
 -3.68536744E-02 -8.56108009E-02  2.26160356E-12 -2.60990795E-12 -1.16885260E-01
 -2.71528854E-01  2.61460982E-12 -1.08044785E-12  2.75374368E-01  6.39703298E-01
  2.30152609E-14  7.90199423E-03 -4.40081270E-17 -3.51091057E-14  3.40135180E-03
  1.16558833E-15 -4.71961479E-15  3.41261127E-14 -3.44535598E-02 -8.00367102E-02
  3.84806965E-14  2.72805337E-13 -3.68536539E-02 -8.56107536E-02 -2.32149268E-13
  8.58179038E-14 -1.16885198E-01 -2.71528710E-01  8.56145802E-13 -1.09979609E-12
  2.75374098E-01  6.39702670E-01 -1.79673107E-14 -7.90200624E-03  1.70967346E-15
  4.17910844E-14 -3.40135696E-03 -1.79644693E-13 -2.67680733E-13 -6.47607163E-12
  5.90176575E-14  5.08000706E-04  1.18021662E-03 -1.40200488E-14 -5.58570634E-13
  4.99627730E-13  1.08343114E-13  5.07991770E-04  1.18019586E-03 -3.26088682E-03
 -5.25341122E-03  9.83852670E-02 -2.93746062E-14 -7.99292224E-14  1.71305669E-02
  1.12934092E-01 -1.53389231E-13 -1.03636173E-13 -7.97012410E-03  5.48603760E-01
  1.36384424E-12 -2.49353575E-13 -5.29788352E-01 -5.29256248E-01 -7.08171295E-12
  9.76272428E-13 -7.41642574E-03  3.03293259E-15 -1.33712796E-03  1.03141132E-02
  1.08236075E-14 -3.26087452E-03 -5.25338927E-03 -9.83849060E-02 -1.05124670E-12
  4.61472159E-14  1.71304659E-02 -1.12933621E-01 -1.37299401E-12  7.34989544E-14
 -7.97034562E-03 -5.48602535E-01 -3.76140495E-12  3.83264645E-13 -5.29784009E-01
  5.29258004E-01  1.26122773E-11 -6.03615014E-13 -7.41638013E-03 -1.63483181E-15
 -1.33712403E-03  1.03140417E-02 -1.70386036E-14  2.81176528E-02  1.51930112E-01
  6.98193286E-01 -1.59735865E-02 -2.96375203E-14  5.36501949E-15  2.81173000E-02
  1.51929660E-01  6.98189431E-01  1.59735687E-02  9.02307521E-14  8.46155169E-14
 -1.24674002E-13 -1.88253982E-13  2.88912775E-13 -7.47882088E-02  3.21944835E-02
  2.36639597E-13  6.03239637E-13 -8.55163088E-02  3.68121997E-02  5.83672757E-12
  4.32146893E-13 -2.80536597E-01  1.20764491E-01  2.57256790E-12 -9.45981710E-12
  1.12225935E+00 -4.83105884E-01 -2.63161803E-15  8.14460571E-04 -1.04491953E-14