unknown system                          
           1
     2.461000    0.000000    0.000000
    -1.230000    2.131000    0.000000
     0.000000    0.000000    6.800000
   C 
     4
Direct configuration=     1
   0.00000000  0.00000000  0.00000000
   0.66631760  0.33317691  0.00000000
   0.58317448  0.66682309  0.50000000
   0.24949208  0.00000000  0.50000000
unknown system                          
           1
     2.480216    0.000768    0.000000
    -1.238939    2.148095    0.000000
     0.000000    0.000000    6.801459
   C 
     4
Direct configuration=     2
  -0.00046725 -0.00018265 -0.00000000
   0.66746507  0.33383230 -0.00000000
   0.58202700  0.66616770  0.50000000
   0.24995933  0.00018265  0.50000000
unknown system                          
           1
     2.466475    0.000219    0.000000
    -1.232547    2.135871    0.000000
     0.000000    0.000000    6.800416
   C 
     4
Direct configuration=     3
  -0.00013583 -0.00005320 -0.00000000
   0.66665122  0.33336767 -0.00000000
   0.58284086  0.66663233  0.50000000
   0.24962791  0.00005320  0.50000000
unknown system                          
           1
     2.466450    0.000218    0.000000
    -1.232536    2.135849    0.000000
     0.000000    0.000000    6.800414
   C 
     4
Direct configuration=     4
  -0.00013523 -0.00005297 -0.00000000
   0.66664976  0.33336683 -0.00000000
   0.58284232  0.66663317  0.50000000
   0.24962731  0.00005297  0.50000000
unknown system                          
           1
     2.466378   -0.000088    0.000000
    -1.232764    2.136662    0.000000
     0.000000    0.000000    6.801934
   C 
     4
Direct configuration=     5
   0.00052870  0.00029677 -0.00000000
   0.66657849  0.33342855 -0.00000000
   0.58291358  0.66657145  0.50000000
   0.24896338 -0.00029677  0.50000000
unknown system                          
           1
     2.466424    0.000108    0.000000
    -1.232618    2.136141    0.000000
     0.000000    0.000000    6.800960
   C 
     4
Direct configuration=     6
   0.00010324  0.00007269 -0.00000000
   0.66662417  0.33338902 -0.00000000
   0.58286791  0.66661098  0.50000000
   0.24938884 -0.00007269  0.50000000
unknown system                          
           1
     2.466194    0.000141    0.000000
    -1.232474    2.136290   -0.000000
     0.000000    0.000000    6.803044
   C 
     4
Direct configuration=     7
   0.00050577  0.00034800 -0.00000000
   0.66704864  0.33368780 -0.00000000
   0.58244344  0.66631220  0.50000000
   0.24898630 -0.00034800  0.50000000
unknown system                          
           1
     2.465505    0.000240    0.000000
    -1.232043    2.136738   -0.000000
     0.000000    0.000000    6.809296
   C 
     4
Direct configuration=     8
   0.00171340  0.00117384 -0.00000000
   0.66832209  0.33458404 -0.00000000
   0.58116999  0.66541596  0.50000000
   0.24777868 -0.00117384  0.50000000
unknown system                          
           1
     2.464125    0.000439    0.000000
    -1.231182    2.137632   -0.000000
     0.000000   -0.000000    6.821801
   C 
     4
Direct configuration=     9
   0.00412880  0.00282507 -0.00000000
   0.67086913  0.33637603 -0.00000000
   0.57862294  0.66362397  0.50000000
   0.24536328 -0.00282507  0.50000000
unknown system                          
           1
     2.461366    0.000835    0.000000
    -1.229460    2.139421   -0.000000
     0.000000   -0.000000    6.846810
   C 
     4
Direct configuration=    10
   0.00896025  0.00612571 -0.00000000
   0.67596384  0.33995804 -0.00000000
   0.57352822  0.66004196  0.50000000
   0.24053184 -0.00612571  0.50000000
unknown system                          
           1
     2.463114    0.000584    0.000000
    -1.230551    2.138288   -0.000000
     0.000000   -0.000000    6.830962
   C 
     4
Direct configuration=    11
   0.00589790  0.00403651 -0.00000000
   0.67273469  0.33769072 -0.00000000
   0.57675738  0.66230927  0.50000000
   0.24359419 -0.00403651  0.50000000
unknown system                          
           1
     2.463135    0.000580    0.000000
    -1.230565    2.138278   -0.000000
     0.000000   -0.000000    6.831370
   C 
     4
Direct configuration=    12
   0.00598473  0.00409475 -0.00000000
   0.67282029  0.33775190 -0.00000000
   0.57667178  0.66224810  0.50000000
   0.24350735 -0.00409475  0.50000000
unknown system                          
           1
     2.463198    0.000567    0.000000
    -1.230608    2.138248   -0.000000
     0.000000   -0.000000    6.832593
   C 
     4
Direct configuration=    13
   0.00624524  0.00426948 -0.00000000
   0.67307707  0.33793543 -0.00000000
   0.57641500  0.66206456  0.50000000
   0.24324684 -0.00426948  0.50000000
unknown system                          
           1
     2.463325    0.000542    0.000000
    -1.230692    2.138190   -0.000000
     0.000000   -0.000000    6.835038
   C 
     4
Direct configuration=    14
   0.00676626  0.00461894 -0.00000000
   0.67359062  0.33830251 -0.00000000
   0.57590145  0.66169749  0.50000000
   0.24272583 -0.00461894  0.50000000
unknown system                          
           1
     2.463577    0.000492    0.000000
    -1.230862    2.138072   -0.000000
     0.000000   -0.000000    6.839929
   C 
     4
Direct configuration=    15
   0.00780827  0.00531789 -0.00000000
   0.67461773  0.33903669 -0.00000000
   0.57487435  0.66096331  0.50000000
   0.24168381 -0.00531789  0.50000000
unknown system                          
           1
     2.464083    0.000393    0.000000
    -1.231201    2.137837   -0.000000
     0.000000   -0.000000    6.849711
   C 
     4
Direct configuration=    16
   0.00989225  0.00671592 -0.00000000
   0.67667189  0.34050517 -0.00000000
   0.57282019  0.65949483  0.50000000
   0.23959983 -0.00671592  0.50000000
unknown system                          
           1
     2.465094    0.000193    0.000000
    -1.231880    2.137367   -0.000000
     0.000000   -0.000000    6.869274
   C 
     4
Direct configuration=    17
   0.01405998  0.00951248 -0.00000000
   0.68078004  0.34344266 -0.00000000
   0.56871205  0.65655734  0.50000000
   0.23543208 -0.00951249  0.50000000
unknown system                          
           1
     2.467117   -0.000206    0.000000
    -1.233236    2.136426   -0.000000
     0.000000   -0.000000    6.908401
   C 
     4
Direct configuration=    18
   0.02239456  0.01510761 -0.00000000
   0.68899561  0.34931970 -0.00000000
   0.56049651  0.65068031  0.50000000
   0.22709747 -0.01510763  0.50000000
unknown system                          
           1
     2.466235   -0.000032    0.000000
    -1.232645    2.136836   -0.000000
     0.000000   -0.000000    6.891340
   C 
     4
Direct configuration=    19
   0.01876113  0.01266617 -0.00000000
   0.68541394  0.34675530 -0.00000000
   0.56407816  0.65324471  0.50000000
   0.23073091 -0.01266618  0.50000000
unknown system                          
           1
     2.466606    0.000030    0.000000
    -1.232777    2.136449   -0.000000
     0.000000   -0.000000    6.899495
   C 
     4
Direct configuration=    20
   0.02077468  0.01429275 -0.00000000
   0.68740865  0.34790346 -0.00000000
   0.56208344  0.65209655  0.50000000
   0.22871738 -0.01429275  0.50000000
unknown system                          
           1
     2.466863    0.000073    0.000000
    -1.232868    2.136180   -0.000000
     0.000000   -0.000000    6.905149
   C 
     4
Direct configuration=    21
   0.02217088  0.01542083 -0.00000000
   0.68879174  0.34869974 -0.00000000
   0.56070034  0.65130026  0.50000000
   0.22732120 -0.01542083  0.50000000
unknown system                          
           1
     2.466742    0.000090    0.000000
    -1.232792    2.136119   -0.000000
     0.000000   -0.000000    6.904436
   C 
     4
Direct configuration=    22
   0.02243742  0.01560077 -0.00000000
   0.68905966  0.34888310 -0.00000000
   0.56043241  0.65111690  0.50000000
   0.22705466 -0.01560077  0.50000000
unknown system                          
           1
     2.466378    0.000143    0.000000
    -1.232565    2.135935   -0.000000
     0.000000   -0.000000    6.902295
   C 
     4
Direct configuration=    23
   0.02323708  0.01614058 -0.00000000
   0.68986347  0.34943319 -0.00000000
   0.55962859  0.65056681  0.50000000
   0.22625501 -0.01614058  0.50000000
unknown system                          
           1
     2.465650    0.000248    0.000000
    -1.232110    2.135566   -0.000000
     0.000000   -0.000000    6.898013
   C 
     4
Direct configuration=    24
   0.02483655  0.01722026 -0.00000000
   0.69147124  0.35053343 -0.00000000
   0.55802079  0.64946656  0.50000000
   0.22465556 -0.01722025  0.50000000
unknown system                          
           1
     2.464195    0.000459    0.000000
    -1.231199    2.134829   -0.000000
     0.000000   -0.000000    6.889449
   C 
     4
Direct configuration=    25
   0.02803616  0.01937984 -0.00000000
   0.69468745  0.35273412 -0.00000000
   0.55480454  0.64726586  0.50000000
   0.22145600 -0.01937982  0.50000000
unknown system                          
           1
     2.461283    0.000881    0.000000
    -1.229379    2.133355   -0.000000
     0.000000   -0.000000    6.872322
   C 
     4
Direct configuration=    26
   0.03443798  0.02369986  0.00000000
   0.70112247  0.35713639 -0.00000000
   0.54836943  0.64286356  0.50000000
   0.21505428 -0.02369982  0.50000000
unknown system                          
           1
     2.462461    0.000710    0.000000
    -1.230115    2.133951   -0.000000
     0.000000   -0.000000    6.879249
   C 
     4
Direct configuration=    27
   0.03184682  0.02195205  0.00000000
   0.69851788  0.35535530 -0.00000000
   0.55097405  0.64464466  0.50000000
   0.21764540 -0.02195202  0.50000000
unknown system                          
           1
     2.462463    0.000712    0.000000
    -1.230115    2.133960   -0.000000
     0.000000   -0.000000    6.878892
   C 
     4
Direct configuration=    28
   0.03196806  0.02203293  0.00000000
   0.69863857  0.35543852 -0.00000000
   0.55085337  0.64456145  0.50000000
   0.21752416 -0.02203289  0.50000000
unknown system                          
           1
     2.462470    0.000716    0.000000
    -1.230115    2.133988   -0.000000
     0.000000   -0.000000    6.877824
   C 
     4
Direct configuration=    29
   0.03233177  0.02227555  0.00000000
   0.69900062  0.35568818 -0.00000000
   0.55049132  0.64431179  0.50000000
   0.21716044 -0.02227551  0.50000000
unknown system                          
           1
     2.462483    0.000724    0.000000
    -1.230114    2.134044   -0.000000
     0.000000   -0.000000    6.875686
   C 
     4
Direct configuration=    30
   0.03305919  0.02276078  0.00000000
   0.69972473  0.35618748 -0.00000000
   0.54976722  0.64381249  0.50000000
   0.21643301 -0.02276075  0.50000000
unknown system                          
           1
     2.462510    0.000741    0.000000
    -1.230113    2.134155   -0.000000
     0.000000   -0.000000    6.871411
   C 
     4
Direct configuration=    31
   0.03451401  0.02373121  0.00000000
   0.70117292  0.35718606 -0.00000000
   0.54831905  0.64281392  0.50000000
   0.21497818 -0.02373118  0.50000000
unknown system                          
           1
     2.462564    0.000775    0.000000
    -1.230111    2.134378   -0.000000
     0.000000   -0.000000    6.862862
   C 
     4
Direct configuration=    32
   0.03742355  0.02567194  0.00000000
   0.70406919  0.35918309 -0.00000000
   0.54542281  0.64081690  0.50000000
   0.21206860 -0.02567193  0.50000000
unknown system                          
           1
     2.462672    0.000843    0.000000
    -1.230107    2.134824   -0.000000
     0.000000   -0.000000    6.845763
   C 
     4
Direct configuration=    33
   0.04324225  0.02955292  0.00000000
   0.70986136  0.36317663 -0.00000000
   0.53963071  0.63682337  0.50000000
   0.20624982 -0.02955292  0.50000000
unknown system                          
           1
     2.462888    0.000978    0.000000
    -1.230098    2.135715   -0.000000
     0.000000   -0.000000    6.811564
   C 
     4
Direct configuration=    34
   0.05487814  0.03731288  0.00000000
   0.72144416  0.37116169 -0.00000000
   0.52804806  0.62883836  0.50000001
   0.19461379 -0.03731293  0.50000000
unknown system                          
           1
     2.463319    0.001248    0.000000
    -1.230079    2.137497   -0.000000
     0.000000   -0.000000    6.743167
   C 
     4
Direct configuration=    35
   0.07814386  0.05282486  0.00000000
   0.74460361  0.38712368 -0.00000000
   0.50488889  0.61287645  0.50000001
   0.17134779 -0.05282499  0.49999999
unknown system                          
           1
     2.465511    0.000818    0.000000
    -1.231547    2.137306   -0.000000
     0.000000   -0.000000    6.724312
   C 
     4
Direct configuration=    36
   0.08469380  0.05790077  0.00000000
   0.75145833  0.39106043 -0.00000000
   0.49803351  0.60893947  0.50000001
   0.16479851 -0.05790067  0.50000000
unknown system                          
           1
     2.464896    0.000939    0.000000
    -1.231135    2.137360   -0.000000
     0.000000   -0.000000    6.729608
   C 
     4
Direct configuration=    37
   0.08285450  0.05647448  0.00000000
   0.74953369  0.38995413 -0.00000000
   0.49995834  0.61004583  0.50000001
   0.16663763 -0.05647444  0.50000000
unknown system                          
           1
     2.465859    0.000313    0.000000
    -1.232158    2.136465   -0.000000
     0.000000   -0.000000    6.729793
   C 
     4
Direct configuration=    38
   0.08314047  0.05661189 -0.00000000
   0.74974344  0.39007641 -0.00000000
   0.49974864  0.60992360  0.50000000
   0.16635159 -0.05661191  0.50000000
unknown system                          
           1
     2.466059    0.000183    0.000000
    -1.232371    2.136279   -0.000000
     0.000000   -0.000000    6.729832
   C 
     4
Direct configuration=    39
   0.08319991  0.05664048 -0.00000000
   0.74978704  0.39010185 -0.00000000
   0.49970506  0.60989818  0.50000000
   0.16629214 -0.05664050  0.50000000
unknown system                          
           1
     2.466263    0.000148    0.000000
    -1.232503    2.136142   -0.000000
     0.000000   -0.000000    6.730747
   C 
     4
Direct configuration=    40
   0.08320656  0.05669412 -0.00000000
   0.74986157  0.39001579 -0.00000000
   0.49963050  0.60998420  0.50000000
   0.16628552 -0.05669411  0.50000000
unknown system                          
           1
     2.466249    0.000150    0.000000
    -1.232494    2.136151   -0.000000
     0.000000   -0.000000    6.730685
   C 
     4
Direct configuration=    41
   0.08320611  0.05669047 -0.00000000
   0.74985649  0.39002166 -0.00000000
   0.49963558  0.60997833  0.50000000
   0.16628598 -0.05669046  0.50000000
unknown system                          
           1
     2.466334    0.000129    0.000000
    -1.232555    2.136147   -0.000000
     0.000000   -0.000000    6.731964
   C 
     4
Direct configuration=    42
   0.08323790  0.05665202 -0.00000000
   0.74987930  0.38997991 -0.00000000
   0.49961277  0.61002008  0.50000000
   0.16625419 -0.05665201  0.50000000
unknown system                          
           1
     2.466588    0.000065    0.000000
    -1.232738    2.136136   -0.000000
     0.000000   -0.000000    6.735803
   C 
     4
Direct configuration=    43
   0.08333326  0.05653667 -0.00000000
   0.74994771  0.38985469 -0.00000000
   0.49954435  0.61014530  0.50000000
   0.16615884 -0.05653665  0.50000001
unknown system                          
           1
     2.467095   -0.000064    0.000000
    -1.233103    2.136113   -0.000000
     0.000000   -0.000000    6.743480
   C 
     4
Direct configuration=    44
   0.08352394  0.05630597 -0.00000001
   0.75008452  0.38960424  0.00000000
   0.49940753  0.61039575  0.49999999
   0.16596817 -0.05630596  0.50000001
unknown system                          
           1
     2.468110   -0.000321    0.000000
    -1.233833    2.136067   -0.000000
     0.000000   -0.000000    6.758834
   C 
     4
Direct configuration=    45
   0.08390517  0.05584460 -0.00000001
   0.75035799  0.38910335  0.00000001
   0.49913402  0.61089664  0.49999998
   0.16558696 -0.05584458  0.50000002
unknown system                          
           1
     2.467521   -0.000172    0.000000
    -1.233409    2.136093   -0.000000
     0.000000   -0.000000    6.749919
   C 
     4
Direct configuration=    46
   0.08368398  0.05611246 -0.00000001
   0.75019935  0.38939416  0.00000001
   0.49929268  0.61060583  0.49999999
   0.16580814 -0.05611245  0.50000002
unknown system                          
           1
     2.467495   -0.000164    0.000000
    -1.233389    2.136087   -0.000000
     0.000000   -0.000000    6.750503
   C 
     4
Direct configuration=    47
   0.08369345  0.05609256 -0.00000001
   0.75021500  0.38937499  0.00000001
   0.49927704  0.61062500  0.49999999
   0.16579867 -0.05609255  0.50000002
unknown system                          
           1
     2.467417   -0.000140    0.000000
    -1.233329    2.136070   -0.000000
     0.000000   -0.000000    6.752256
   C 
     4
Direct configuration=    48
   0.08372185  0.05603287 -0.00000001
   0.75026193  0.38931748  0.00000001
   0.49923011  0.61068251  0.49999999
   0.16577025 -0.05603286  0.50000002
unknown system                          
           1
     2.467260   -0.000092    0.000000
    -1.233209    2.136034   -0.000000
     0.000000   -0.000000    6.755760
   C 
     4
Direct configuration=    49
   0.08377866  0.05591348 -0.00000001
   0.75035581  0.38920246  0.00000001
   0.49913625  0.61079754  0.49999999
   0.16571343 -0.05591348  0.50000002
unknown system                          
           1
     2.466947    0.000004    0.000000
    -1.232969    2.135962   -0.000000
     0.000000   -0.000000    6.762769
   C 
     4
Direct configuration=    50
   0.08389230  0.05567470 -0.00000001
   0.75054359  0.38897240  0.00000001
   0.49894851  0.61102761  0.49999998
   0.16559975 -0.05567472  0.50000002
unknown system                          
           1
     2.466321    0.000196    0.000000
    -1.232490    2.135820   -0.000000
     0.000000   -0.000000    6.776787
   C 
     4
Direct configuration=    51
   0.08411963  0.05519712 -0.00000001
   0.75091922  0.38851226  0.00000001
   0.49857295  0.61148778  0.49999998
   0.16537235 -0.05519717  0.50000002
unknown system                          
           1
     2.466612    0.000107    0.000000
    -1.232713    2.135886   -0.000000
     0.000000   -0.000000    6.770275
   C 
     4
Direct configuration=    52
   0.08401398  0.05541899 -0.00000001
   0.75074467  0.38872603  0.00000001
   0.49874747  0.61127400  0.49999998
   0.16547804 -0.05541902  0.50000002
unknown system                          
           1
     2.466436    0.000114    0.000000
    -1.232620    2.136006   -0.000000
     0.000000   -0.000000    6.771937
   C 
     4
Direct configuration=    53
   0.08408801  0.05533126 -0.00000001
   0.75075581  0.38866634  0.00000000
   0.49873629  0.61133367  0.49999999
   0.16540404 -0.05533127  0.50000001
unknown system                          
           1
     2.466288    0.000119    0.000000
    -1.232541    2.136108   -0.000000
     0.000000   -0.000000    6.773339
   C 
     4
Direct configuration=    54
   0.08415046  0.05525727 -0.00000000
   0.75076522  0.38861600  0.00000000
   0.49872685  0.61138400  0.49999999
   0.16534162 -0.05525727  0.50000001
unknown system                          
           1
     2.466243    0.000121    0.000000
    -1.232517    2.136139   -0.000000
     0.000000   -0.000000    6.773768
   C 
     4
Direct configuration=    55
   0.08416958  0.05523463 -0.00000000
   0.75076810  0.38860059  0.00000000
   0.49872396  0.61139940  0.49999999
   0.16532251 -0.05523462  0.50000001
unknown system                          
           1
     2.466232    0.000140    0.000000
    -1.232495    2.136230   -0.000000
     0.000000   -0.000000    6.773900
   C 
     4
Direct configuration=    56
   0.08417704  0.05519912 -0.00000000
   0.75078891  0.38857083  0.00000000
   0.49870315  0.61142917  0.50000000
   0.16531505 -0.05519911  0.50000001
unknown system                          
           1
     2.466201    0.000199    0.000000
    -1.232428    2.136503   -0.000000
     0.000000   -0.000000    6.774295
   C 
     4
Direct configuration=    57
   0.08419943  0.05509258  0.00000000
   0.75085137  0.38848154 -0.00000000
   0.49864072  0.61151847  0.50000000
   0.16529265 -0.05509259  0.50000000
unknown system                          
           1
     2.466196    0.000193    0.000000
    -1.232430    2.136499   -0.000000
     0.000000   -0.000000    6.774211
   C 
     4
Direct configuration=    58
   0.08421655  0.05504850  0.00000000
   0.75086728  0.38844063 -0.00000000
   0.49862480  0.61155938  0.50000001
   0.16527552 -0.05504851  0.49999999
unknown system                          
           1
     2.466179    0.000177    0.000000
    -1.232436    2.136487   -0.000000
     0.000000   -0.000000    6.773958
   C 
     4
Direct configuration=    59
   0.08426791  0.05491628  0.00000000
   0.75091503  0.38831791 -0.00000001
   0.49857706  0.61168209  0.50000001
   0.16522416 -0.05491628  0.49999999
unknown system                          
           1
     2.466145    0.000145    0.000000
    -1.232447    2.136464   -0.000000
     0.000000   -0.000000    6.773452
   C 
     4
Direct configuration=    60
   0.08437064  0.05465182  0.00000001
   0.75101053  0.38807247 -0.00000001
   0.49848156  0.61192751  0.50000003
   0.16512142 -0.05465180  0.49999998
unknown system                          
           1
     2.466077    0.000080    0.000000
    -1.232470    2.136416   -0.000000
     0.000000   -0.000000    6.772439
   C 
     4
Direct configuration=    61
   0.08457609  0.05412291  0.00000002
   0.75120152  0.38758159 -0.00000002
   0.49829058  0.61241835  0.50000005
   0.16491596 -0.05412285  0.49999995
unknown system                          
           1
     2.465942   -0.000050    0.000000
    -1.232515    2.136321   -0.000000
     0.000000   -0.000000    6.770415
   C 
     4
Direct configuration=    62
   0.08498699  0.05306507  0.00000004
   0.75158351  0.38659982 -0.00000004
   0.49790863  0.61340005  0.50000010
   0.16450503 -0.05306494  0.49999990
unknown system                          
           1
     2.465672   -0.000310    0.000000
    -1.232605    2.136132   -0.000000
     0.000000   -0.000000    6.766365
   C 
     4
Direct configuration=    63
   0.08580877  0.05094935  0.00000008
   0.75234746  0.38463623 -0.00000008
   0.49714473  0.61536349  0.50000020
   0.16368319 -0.05094906  0.49999980
unknown system                          
           1
     2.465132   -0.000830    0.000000
    -1.232785    2.135753   -0.000000
     0.000000   -0.000000    6.758267
   C 
     4
Direct configuration=    64
   0.08745228  0.04671773  0.00000017
   0.75387531  0.38070889 -0.00000016
   0.49561699  0.61929053  0.50000040
   0.16203957 -0.04671714  0.49999960
unknown system                          
           1
     2.465131   -0.000831    0.000000
    -1.232785    2.135752   -0.000000
     0.000000   -0.000000    6.758244
   C 
     4
Direct configuration=    65
   0.08745662  0.04670649  0.00000017
   0.75387970  0.38069768 -0.00000016
   0.49561260  0.61930174  0.50000040
   0.16203523 -0.04670590  0.49999960
unknown system                          
           1
     2.465129   -0.000832    0.000000
    -1.232786    2.135751   -0.000000
     0.000000   -0.000000    6.758177
   C 
     4
Direct configuration=    66
   0.08746964  0.04667276  0.00000017
   0.75389288  0.38066405 -0.00000016
   0.49559943  0.61933537  0.50000040
   0.16202221 -0.04667217  0.49999960
unknown system                          
           1
     2.465124   -0.000836    0.000000
    -1.232787    2.135749   -0.000000
     0.000000   -0.000000    6.758043
   C 
     4
Direct configuration=    67
   0.08749567  0.04660530  0.00000017
   0.75391922  0.38059679 -0.00000016
   0.49557309  0.61940262  0.50000040
   0.16199618 -0.04660472  0.49999960
unknown system                          
           1
     2.465116   -0.000843    0.000000
    -1.232789    2.135744   -0.000000
     0.000000   -0.000000    6.757775
   C 
     4
Direct configuration=    68
   0.08754775  0.04647040  0.00000017
   0.75397190  0.38046227 -0.00000017
   0.49552040  0.61953714  0.50000040
   0.16194410 -0.04646981  0.49999959
unknown system                          
           1
     2.465098   -0.000858    0.000000
    -1.232793    2.135735   -0.000000
     0.000000   -0.000000    6.757238
   C 
     4
Direct configuration=    69
   0.08765189  0.04620058  0.00000017
   0.75407727  0.38019324 -0.00000017
   0.49541503  0.61980617  0.50000041
   0.16183995 -0.04619999  0.49999958
unknown system                          
           1
     2.465063   -0.000887    0.000000
    -1.232801    2.135715   -0.000000
     0.000000   -0.000000    6.756164
   C 
     4
Direct configuration=    70
   0.08786019  0.04566095  0.00000018
   0.75428801  0.37965517 -0.00000018
   0.49520430  0.62034424  0.50000043
   0.16163166 -0.04566036  0.49999956
unknown system                          
           1
     2.464993   -0.000946    0.000000
    -1.232816    2.135677   -0.000000
     0.000000   -0.000000    6.754017
   C 
     4
Direct configuration=    71
   0.08827678  0.04458168  0.00000020
   0.75470949  0.37857903 -0.00000019
   0.49478283  0.62142037  0.50000047
   0.16121506 -0.04458108  0.49999953
unknown system                          
           1
     2.464854   -0.001063    0.000000
    -1.232848    2.135600   -0.000000
     0.000000   -0.000000    6.749722
   C 
     4
Direct configuration=    72
   0.08910997  0.04242313  0.00000023
   0.75555244  0.37642672 -0.00000022
   0.49393988  0.62357266  0.50000054
   0.16038187 -0.04242251  0.49999945
unknown system                          
           1
     2.464574   -0.001297    0.000000
    -1.232911    2.135447   -0.000000
     0.000000   -0.000000    6.741132
   C 
     4
Direct configuration=    73
   0.09077634  0.03810597  0.00000029
   0.75723837  0.37212206 -0.00000028
   0.49225397  0.62787729  0.50000069
   0.15871547 -0.03810532  0.49999930
unknown system                          
           1
     2.464015   -0.001766    0.000000
    -1.233038    2.135141   -0.000000
     0.000000   -0.000000    6.723953
   C 
     4
Direct configuration=    74
   0.09410912  0.02947139  0.00000042
   0.76061025  0.36351248 -0.00000041
   0.48888213  0.63648680  0.50000099
   0.15538265 -0.02947067  0.49999900
unknown system                          
           1
     2.462898   -0.002702    0.000000
    -1.233290    2.134528   -0.000000
     0.000000   -0.000000    6.689594
   C 
     4
Direct configuration=    75
   0.10077481  0.01220122  0.00000068
   0.76735417  0.34629232 -0.00000065
   0.48213828  0.65370681  0.50000159
   0.14871690 -0.01220035  0.49999839
unknown system                          
           1
     2.463550   -0.002328    0.000000
    -1.233292    2.135043   -0.000000
     0.000000   -0.000000    6.679408
   C 
     4
Direct configuration=    76
   0.10277410  0.00705239  0.00000066
   0.76949909  0.34080587 -0.00000063
   0.47999321  0.65919362  0.50000154
   0.14671775 -0.00705188  0.49999843
unknown system                          
           1
     2.464873   -0.001569    0.000000
    -1.233296    2.136087   -0.000000
     0.000000   -0.000000    6.658766
   C 
     4
Direct configuration=    77
   0.10682547 -0.00337987  0.00000063
   0.77384557  0.32968955 -0.00000059
   0.47564645  0.67031067  0.50000145
   0.14266666  0.00337965  0.49999851
unknown system                          
           1
     2.464723   -0.001655    0.000000
    -1.233295    2.135968   -0.000000
     0.000000   -0.000000    6.661115
   C 
     4
Direct configuration=    78
   0.10636447 -0.00219311  0.00000064
   0.77335099  0.33095413 -0.00000060
   0.47614106  0.66904601  0.50000146
   0.14312763  0.00219298  0.49999850
unknown system                          
           1
     2.465507   -0.001268    0.000000
    -1.233352    2.136211   -0.000000
     0.000000   -0.000000    6.661207
   C 
     4
Direct configuration=    79
   0.10655804 -0.00256435  0.00000052
   0.77341376  0.33069926 -0.00000048
   0.47607830  0.66930081  0.50000117
   0.14293405  0.00256428  0.49999879
unknown system                          
           1
     2.466846   -0.000606    0.000000
    -1.233448    2.136627   -0.000000
     0.000000   -0.000000    6.661366
   C 
     4
Direct configuration=    80
   0.10688832 -0.00319798  0.00000031
   0.77352086  0.33026426 -0.00000027
   0.47597121  0.66973570  0.50000067
   0.14260376  0.00319802  0.49999929
unknown system                          
           1
     2.466603   -0.000726    0.000000
    -1.233430    2.136552   -0.000000
     0.000000   -0.000000    6.661337
   C 
     4
Direct configuration=    81
   0.10682857 -0.00308329  0.00000035
   0.77350148  0.33034299 -0.00000031
   0.47599059  0.66965699  0.50000076
   0.14266351  0.00308331  0.49999920
unknown system                          
           1
     2.466637   -0.000438    0.000000
    -1.233197    2.136410   -0.000000
     0.000000   -0.000000    6.662243
   C 
     4
Direct configuration=    82
   0.10685610 -0.00309676  0.00000025
   0.77352412  0.33027112 -0.00000021
   0.47596795  0.66972887  0.50000052
   0.14263597  0.00309678  0.49999943
unknown system                          
           1
     2.466705    0.000154    0.000000
    -1.232720    2.136121   -0.000000
     0.000000   -0.000000    6.664103
   C 
     4
Direct configuration=    83
   0.10691258 -0.00312441  0.00000005
   0.77357058  0.33012366 -0.00000001
   0.47592151  0.66987634  0.50000004
   0.14257948  0.00312441  0.49999992