 Entering Gaussian System, Link 0=g16
 Initial command:
 /home/szhao/Apps/g16/l1.exe "/home/szhao/tmp/Gau-61281.inp" -scrdir="/home/szhao/tmp/"
 Default is to use a total of  16 processors:
                               16 via shared-memory
                                1 via Linda
 Entering Link 1 = /home/szhao/Apps/g16/l1.exe PID=     61283.
  
 Copyright (c) 1988,1990,1992,1993,1995,1998,2003,2009,2016,
            Gaussian, Inc.  All Rights Reserved.
  
 This is part of the Gaussian(R) 16 program.  It is based on
 the Gaussian(R) 09 system (copyright 2009, Gaussian, Inc.),
 the Gaussian(R) 03 system (copyright 2003, Gaussian, Inc.),
 the Gaussian(R) 98 system (copyright 1998, Gaussian, Inc.),
 the Gaussian(R) 94 system (copyright 1995, Gaussian, Inc.),
 the Gaussian 92(TM) system (copyright 1992, Gaussian, Inc.),
 the Gaussian 90(TM) system (copyright 1990, Gaussian, Inc.),
 the Gaussian 88(TM) system (copyright 1988, Gaussian, Inc.),
 the Gaussian 86(TM) system (copyright 1986, Carnegie Mellon
 University), and the Gaussian 82(TM) system (copyright 1983,
 Carnegie Mellon University). Gaussian is a federally registered
 trademark of Gaussian, Inc.
  
 This software contains proprietary and confidential information,
 including trade secrets, belonging to Gaussian, Inc.
  
 This software is provided under written license and may be
 used, copied, transmitted, or stored only in accord with that
 written license.
  
 The following legend is applicable only to US Government
 contracts under FAR:
  
                    RESTRICTED RIGHTS LEGEND
  
 Use, reproduction and disclosure by the US Government is
 subject to restrictions as set forth in subparagraphs (a)
 and (c) of the Commercial Computer Software - Restricted
 Rights clause in FAR 52.227-19.
  
 Gaussian, Inc.
 340 Quinnipiac St., Bldg. 40, Wallingford CT 06492
  
  
 ---------------------------------------------------------------
 Warning -- This program may not be used in any manner that
 competes with the business of Gaussian, Inc. or will provide
 assistance to any competitor of Gaussian, Inc.  The licensee
 of this program is prohibited from giving any competitor of
 Gaussian, Inc. access to this program.  By using this program,
 the user acknowledges that Gaussian, Inc. is engaged in the
 business of creating and licensing software in the field of
 computational chemistry and represents and warrants to the
 licensee that it is not a competitor of Gaussian, Inc. and that
 it will not use this program in any manner prohibited above.
 ---------------------------------------------------------------
  

 Cite this work as:
 Gaussian 16, Revision A.03,
 M. J. Frisch, G. W. Trucks, H. B. Schlegel, G. E. Scuseria, 
 M. A. Robb, J. R. Cheeseman, G. Scalmani, V. Barone, 
 G. A. Petersson, H. Nakatsuji, X. Li, M. Caricato, A. V. Marenich, 
 J. Bloino, B. G. Janesko, R. Gomperts, B. Mennucci, H. P. Hratchian, 
 J. V. Ortiz, A. F. Izmaylov, J. L. Sonnenberg, D. Williams-Young, 
 F. Ding, F. Lipparini, F. Egidi, J. Goings, B. Peng, A. Petrone, 
 T. Henderson, D. Ranasinghe, V. G. Zakrzewski, J. Gao, N. Rega, 
 G. Zheng, W. Liang, M. Hada, M. Ehara, K. Toyota, R. Fukuda, 
 J. Hasegawa, M. Ishida, T. Nakajima, Y. Honda, O. Kitao, H. Nakai, 
 T. Vreven, K. Throssell, J. A. Montgomery, Jr., J. E. Peralta, 
 F. Ogliaro, M. J. Bearpark, J. J. Heyd, E. N. Brothers, K. N. Kudin, 
 V. N. Staroverov, T. A. Keith, R. Kobayashi, J. Normand, 
 K. Raghavachari, A. P. Rendell, J. C. Burant, S. S. Iyengar, 
 J. Tomasi, M. Cossi, J. M. Millam, M. Klene, C. Adamo, R. Cammi, 
 J. W. Ochterski, R. L. Martin, K. Morokuma, O. Farkas, 
 J. B. Foresman, and D. J. Fox, Gaussian, Inc., Wallingford CT, 2016.
 
 ******************************************
 Gaussian 16:  ES64L-G16RevA.03 25-Dec-2016
                19-Nov-2024 
 ******************************************
 %chk=opt.chk
 %mem=4GB
 %nprocshared=8
 Will use up to    8 processors via shared memory.
 --------------------------------------------
 #p opt UM062X/6-311+G** nosymm int=superfine
 --------------------------------------------
 1/18=20,19=15,26=5,38=1/1,3;
 2/9=110,12=2,15=1,17=6,18=5,40=1/2;
 3/5=4,6=6,7=111,11=2,25=1,30=1,71=1,74=-55,75=-7,116=2/1,2,3;
 4//1;
 5/5=2,38=5/2;
 6/7=2,8=2,9=2,10=2,28=1/1;
 7/30=1/1,2,3,16;
 1/18=20,19=15,26=5/3(2);
 2/9=110,15=1/2;
 99//99;
 2/9=110,15=1/2;
 3/5=4,6=6,7=111,11=2,25=1,30=1,71=1,74=-55,75=-7,116=2/1,2,3;
 4/5=5,16=3,69=1/1;
 5/5=2,38=5/2;
 7/30=1/1,2,3,16;
 1/18=20,19=15,26=5/3(-5);
 2/9=110,15=1/2;
 6/7=2,8=2,9=2,10=2,19=2,28=1/1;
 99/9=1/99;
 Leave Link    1 at Tue Nov 19 10:22:50 2024, MaxMem=   536870912 cpu:               0.3 elap:               0.0
 (Enter /home/szhao/Apps/g16/l101.exe)
 -------------------
 Title Card Required
 -------------------
 Symbolic Z-matrix:
 Charge =  0 Multiplicity = 1
 C                    -1   -0.47064   0.        0. 
 C                    -1    0.47064   0.        0. 
 H                    0    -0.87504  -0.92138   0. 
 H                    0    -0.87274   0.9257    0. 
 H                    0     0.87504   0.92138   0. 
 H                    0     0.87274  -0.9257    0. 
 
 ITRead=  2  2  0  0  0  0
 MicOpt= -2 -2 -1 -1 -1 -1
 NAtoms=      6 NQM=        4 NQMF=       2 NMMI=      0 NMMIF=      0
                NMic=       0 NMicF=      0.
                    Isotopes and Nuclear Properties:
 (Nuclear quadrupole moments (NQMom) in fm**2, nuclear magnetic moments (NMagM)
  in nuclear magnetons)

  Atom         1           2           3           4           5           6
 IAtWgt=          12          12           1           1           1           1
 AtmWgt=  12.0000000  12.0000000   1.0078250   1.0078250   1.0078250   1.0078250
 NucSpn=           0           0           1           1           1           1
 AtZEff=  -0.0000000  -0.0000000  -0.0000000  -0.0000000  -0.0000000  -0.0000000
 NQMom=    0.0000000   0.0000000   0.0000000   0.0000000   0.0000000   0.0000000
 NMagM=    0.0000000   0.0000000   2.7928460   2.7928460   2.7928460   2.7928460
 AtZNuc=   6.0000000   6.0000000   1.0000000   1.0000000   1.0000000   1.0000000
 Leave Link  101 at Tue Nov 19 10:22:51 2024, MaxMem=   536870912 cpu:               2.7 elap:               0.3
 (Enter /home/szhao/Apps/g16/l103.exe)

 GradGradGradGradGradGradGradGradGradGradGradGradGradGradGradGradGradGrad
 Berny optimization.
 Initialization pass.
                           ----------------------------
                           !    Initial Parameters    !
                           ! (Angstroms and Degrees)  !
 --------------------------                            --------------------------
 ! Name  Definition              Value          Derivative Info.                !
 --------------------------------------------------------------------------------
 ! X1    R(1,-1)                -0.4706         Frozen                          !
 ! Y1    R(1,-2)                 0.0            Frozen                          !
 ! Z1    R(1,-3)                 0.0            Frozen                          !
 ! X2    R(2,-1)                 0.4706         Frozen                          !
 ! Y2    R(2,-2)                 0.0            Frozen                          !
 ! Z2    R(2,-3)                 0.0            Frozen                          !
 ! R1    R(1,3)                  1.0062         estimate D2E/DX2                !
 ! R2    R(1,4)                  1.0093         estimate D2E/DX2                !
 ! R3    R(2,5)                  1.0062         estimate D2E/DX2                !
 ! R4    R(2,6)                  1.0093         estimate D2E/DX2                !
 ! A1    A(2,1,3)              113.6968         estimate D2E/DX2                !
 ! A2    A(2,1,4)              113.479          estimate D2E/DX2                !
 ! A3    A(3,1,4)              132.8242         estimate D2E/DX2                !
 ! A4    A(1,2,5)              113.6968         estimate D2E/DX2                !
 ! A5    A(1,2,6)              113.479          estimate D2E/DX2                !
 ! A6    A(5,2,6)              132.8242         estimate D2E/DX2                !
 ! D1    D(3,1,2,5)            180.0            estimate D2E/DX2                !
 ! D2    D(3,1,2,6)              0.0            estimate D2E/DX2                !
 ! D3    D(4,1,2,5)              0.0            estimate D2E/DX2                !
 ! D4    D(4,1,2,6)            180.0            estimate D2E/DX2                !
 --------------------------------------------------------------------------------
 Trust Radius=3.00D-01 FncErr=1.00D-07 GrdErr=1.00D-07 EigMax=2.50D+02 EigMin=1.00D-04
 Number of steps in this run=     30 maximum allowed number of steps=    100.
 GradGradGradGradGradGradGradGradGradGradGradGradGradGradGradGradGradGrad

 Leave Link  103 at Tue Nov 19 10:22:51 2024, MaxMem=   536870912 cpu:               0.1 elap:               0.0
 (Enter /home/szhao/Apps/g16/l202.exe)
                          Input orientation:                          
 ---------------------------------------------------------------------
 Center     Atomic      Atomic             Coordinates (Angstroms)
 Number     Number       Type             X           Y           Z
 ---------------------------------------------------------------------
      1          6           0       -0.470639    0.000000    0.000000
      2          6           0        0.470639    0.000000    0.000000
      3          1           0       -0.875036   -0.921382    0.000000
      4          1           0       -0.872743    0.925704    0.000000
      5          1           0        0.875036    0.921382    0.000000
      6          1           0        0.872743   -0.925704    0.000000
 ---------------------------------------------------------------------
                    Distance matrix (angstroms):
                    1          2          3          4          5
     1  C    0.000000
     2  C    0.941278   0.000000
     3  H    1.006221   1.630885   0.000000
     4  H    1.009265   1.631442   1.847087   0.000000
     5  H    1.630885   1.006221   2.541364   1.747784   0.000000
     6  H    1.631442   1.009265   1.747784   2.544490   1.847087
                    6
     6  H    0.000000
 Symmetry turned off by external request.
 Stoichiometry    C2H4
 Framework group  C2H[SGH(C2H4)]
 Deg. of freedom     5
 Full point group                 C2H     NOp   4
 Rotational constants (GHZ):         146.9791497          60.2023725          42.7088933
 Leave Link  202 at Tue Nov 19 10:22:51 2024, MaxMem=   536870912 cpu:               0.0 elap:               0.0
 (Enter /home/szhao/Apps/g16/l301.exe)
 Standard basis: 6-311+G(d,p) (5D, 7F)
 Ernie: Thresh=  0.10000D-02 Tol=  0.10000D-05 Strict=F.
    68 basis functions,   104 primitive gaussians,    70 cartesian basis functions
     8 alpha electrons        8 beta electrons
       nuclear repulsion energy        42.2222694420 Hartrees.
 IExCor= 4336 DFT=T Ex+Corr=M062X ExCW=0 ScaHFX=  0.540000
 ScaDFX=  1.000000  1.000000  1.000000  1.000000 ScalE2=  1.000000  1.000000
 IRadAn=      7 IRanWt=     -1 IRanGd=            0 ICorTp=0 IEmpDi=  4
 NAtoms=    6 NActive=    6 NUniq=    6 SFac= 1.00D+00 NAtFMM=   60 NAOKFM=F Big=F
 Integral buffers will be    131072 words long.
 Raffenetti 2 integral format.
 Two-electron integral symmetry is turned off.
 Leave Link  301 at Tue Nov 19 10:22:51 2024, MaxMem=   536870912 cpu:               0.3 elap:               0.0
 (Enter /home/szhao/Apps/g16/l302.exe)
 NPDir=0 NMtPBC=     1 NCelOv=     1 NCel=       1 NClECP=     1 NCelD=      1
         NCelK=      1 NCelE2=     1 NClLst=     1 CellRange=     0.0.
 One-electron integrals computed using PRISM.
 NBasis=    68 RedAO= T EigKep=  1.75D-05  NBF=    68
 NBsUse=    68 1.00D-06 EigRej= -1.00D+00 NBFU=    68
 Precomputing XC quadrature grid using
 IXCGrd= 4 IRadAn=           7 IRanWt=          -1 IRanGd=           0 AccXCQ= 0.00D+00.
 Generated NRdTot=       0 NPtTot=           0 NUsed=           0 NTot=          32
 NSgBfM=    70    70    70    70    70 MxSgAt=     6 MxSgA2=     6.
 Leave Link  302 at Tue Nov 19 10:22:51 2024, MaxMem=   536870912 cpu:               1.2 elap:               0.2
 (Enter /home/szhao/Apps/g16/l303.exe)
 DipDrv:  MaxL=1.
 Leave Link  303 at Tue Nov 19 10:22:51 2024, MaxMem=   536870912 cpu:               0.3 elap:               0.0
 (Enter /home/szhao/Apps/g16/l401.exe)
 ExpMin= 4.38D-02 ExpMax= 4.56D+03 ExpMxC= 6.82D+02 IAcc=3 IRadAn=         7 AccDes= 0.00D+00
 Harris functional with IExCor= 1009 and IRadAn=       7 diagonalized for initial guess.
 HarFok:  IExCor= 1009 AccDes= 0.00D+00 IRadAn=         7 IDoV= 1 UseB2=F ITyADJ=14
 ICtDFT=  3500011 ScaDFX=  1.000000  1.000000  1.000000  1.000000
 FoFCou: FMM=F IPFlag=           0 FMFlag=      100000 FMFlg1=           0
         NFxFlg=           0 DoJE=T BraDBF=F KetDBF=T FulRan=T
         wScrn=  0.000000 ICntrl=       500 IOpCl=  0 I1Cent=   200000004 NGrid=           0
         NMat0=    1 NMatS0=      1 NMatT0=    0 NMatD0=    1 NMtDS0=    0 NMtDT0=    0
 Symmetry not used in FoFCou.
 Harris En= -78.3659386030992    
 JPrj=0 DoOrth=F DoCkMO=F.
 Initial guess <Sx>= 0.0000 <Sy>= 0.0000 <Sz>= 0.0000 <S**2>=-0.0000 S=-0.0000
 Leave Link  401 at Tue Nov 19 10:22:51 2024, MaxMem=   536870912 cpu:               3.0 elap:               0.4
 (Enter /home/szhao/Apps/g16/l502.exe)
 Keep R1 and R2 ints in memory in canonical form, NReq=12681614.
 FoFCou: FMM=F IPFlag=           0 FMFlag=           0 FMFlg1=           0
         NFxFlg=           0 DoJE=F BraDBF=F KetDBF=F FulRan=T
         wScrn=  0.000000 ICntrl=       600 IOpCl=  0 I1Cent=           0 NGrid=           0
         NMat0=    1 NMatS0=   2346 NMatT0=    0 NMatD0=    1 NMtDS0=    0 NMtDT0=    0
 Symmetry not used in FoFCou.
 Two-electron integral symmetry not used.
 UHF open shell SCF:
 Using DIIS extrapolation, IDIIS=  1040.
 NGot=   536870912 LenX=   531353794 LenY=   531348453
 Requested convergence on RMS density matrix=1.00D-08 within 128 cycles.
 Requested convergence on MAX density matrix=1.00D-06.
 Requested convergence on             energy=1.00D-06.
 No special actions if energy rises.

 Cycle   1  Pass 1  IDiag  1:
 E= -77.7662879673240    
 DIIS: error= 1.11D-01 at cycle   1 NSaved=   1.
 NSaved= 1 IEnMin= 1 EnMin= -77.7662879673240     IErMin= 1 ErrMin= 1.11D-01
 ErrMax= 1.11D-01  0.00D+00 EMaxC= 1.00D-01 BMatC= 1.72D+00 BMatP= 1.72D+00
 IDIUse=3 WtCom= 0.00D+00 WtEn= 1.00D+00
 Coeff-Com:  0.100D+01
 Coeff-En:   0.100D+01
 Coeff:      0.100D+01
 Gap=     0.582 Goal=   None    Shift=    0.000
 Gap=     0.582 Goal=   None    Shift=    0.000
 GapD=    0.582 DampG=2.000 DampE=0.250 DampFc=0.5000 IDamp=-1.
 Damping current iteration by 5.00D-01
 RMSDP=1.05D-02 MaxDP=1.70D-01              OVMax= 3.12D-01

 Cycle   2  Pass 1  IDiag  1:
 E= -77.9462124833621     Delta-E=       -0.179924516038 Rises=F Damp=T
 DIIS: error= 1.12D-02 at cycle   2 NSaved=   2.
 NSaved= 2 IEnMin= 2 EnMin= -77.9462124833621     IErMin= 2 ErrMin= 1.12D-02
 ErrMax= 1.12D-02  0.00D+00 EMaxC= 1.00D-01 BMatC= 4.11D-02 BMatP= 1.72D+00
 IDIUse=3 WtCom= 8.88D-01 WtEn= 1.12D-01
 Coeff-Com: -0.101D+00 0.110D+01
 Coeff-En:   0.000D+00 0.100D+01
 Coeff:     -0.901D-01 0.109D+01
 Gap=     0.475 Goal=   None    Shift=    0.000
 Gap=     0.475 Goal=   None    Shift=    0.000
 RMSDP=3.35D-03 MaxDP=4.56D-02 DE=-1.80D-01 OVMax= 1.74D-01

 Cycle   3  Pass 1  IDiag  1:
 E= -78.1261381950110     Delta-E=       -0.179925711649 Rises=F Damp=F
 DIIS: error= 6.29D-03 at cycle   3 NSaved=   3.
 NSaved= 3 IEnMin= 3 EnMin= -78.1261381950110     IErMin= 3 ErrMin= 6.29D-03
 ErrMax= 6.29D-03  0.00D+00 EMaxC= 1.00D-01 BMatC= 3.80D-03 BMatP= 4.11D-02
 IDIUse=3 WtCom= 9.37D-01 WtEn= 6.29D-02
 Coeff-Com: -0.517D-01 0.976D-01 0.954D+00
 Coeff-En:   0.000D+00 0.000D+00 0.100D+01
 Coeff:     -0.485D-01 0.915D-01 0.957D+00
 Gap=     0.399 Goal=   None    Shift=    0.000
 Gap=     0.399 Goal=   None    Shift=    0.000
 RMSDP=3.74D-04 MaxDP=3.97D-03 DE=-1.80D-01 OVMax= 9.54D-03

 Cycle   4  Pass 1  IDiag  1:
 E= -78.1270798369381     Delta-E=       -0.000941641927 Rises=F Damp=F
 DIIS: error= 3.04D-04 at cycle   4 NSaved=   4.
 NSaved= 4 IEnMin= 4 EnMin= -78.1270798369381     IErMin= 4 ErrMin= 3.04D-04
 ErrMax= 3.04D-04  0.00D+00 EMaxC= 1.00D-01 BMatC= 1.11D-05 BMatP= 3.80D-03
 IDIUse=3 WtCom= 9.97D-01 WtEn= 3.04D-03
 Coeff-Com:  0.624D-02-0.121D-01-0.962D-01 0.110D+01
 Coeff-En:   0.000D+00 0.000D+00 0.000D+00 0.100D+01
 Coeff:      0.622D-02-0.121D-01-0.959D-01 0.110D+01
 Gap=     0.399 Goal=   None    Shift=    0.000
 Gap=     0.399 Goal=   None    Shift=    0.000
 RMSDP=1.85D-04 MaxDP=3.98D-03 DE=-9.42D-04 OVMax= 1.26D-03

 Cycle   5  Pass 1  IDiag  1:
 E= -78.1270855266438     Delta-E=       -0.000005689706 Rises=F Damp=F
 DIIS: error= 4.79D-05 at cycle   5 NSaved=   5.
 NSaved= 5 IEnMin= 5 EnMin= -78.1270855266438     IErMin= 5 ErrMin= 4.79D-05
 ErrMax= 4.79D-05  0.00D+00 EMaxC= 1.00D-01 BMatC= 1.97D-07 BMatP= 1.11D-05
 IDIUse=1 WtCom= 1.00D+00 WtEn= 0.00D+00
 Coeff-Com: -0.283D-03-0.327D-03 0.309D-03-0.522D-01 0.105D+01
 Coeff:     -0.283D-03-0.327D-03 0.309D-03-0.522D-01 0.105D+01
 Gap=     0.399 Goal=   None    Shift=    0.000
 Gap=     0.399 Goal=   None    Shift=    0.000
 RMSDP=1.27D-05 MaxDP=2.41D-04 DE=-5.69D-06 OVMax= 1.13D-04

 Cycle   6  Pass 1  IDiag  1:
 E= -78.1270856033393     Delta-E=       -0.000000076696 Rises=F Damp=F
 DIIS: error= 4.56D-06 at cycle   6 NSaved=   6.
 NSaved= 6 IEnMin= 6 EnMin= -78.1270856033393     IErMin= 6 ErrMin= 4.56D-06
 ErrMax= 4.56D-06  0.00D+00 EMaxC= 1.00D-01 BMatC= 1.46D-09 BMatP= 1.97D-07
 IDIUse=1 WtCom= 1.00D+00 WtEn= 0.00D+00
 Coeff-Com: -0.245D-04 0.151D-03 0.840D-03-0.376D-02-0.120D+00 0.112D+01
 Coeff:     -0.245D-04 0.151D-03 0.840D-03-0.376D-02-0.120D+00 0.112D+01
 Gap=     0.399 Goal=   None    Shift=    0.000
 Gap=     0.399 Goal=   None    Shift=    0.000
 RMSDP=1.66D-06 MaxDP=3.15D-05 DE=-7.67D-08 OVMax= 1.80D-05

 Cycle   7  Pass 1  IDiag  1:
 E= -78.1270856043554     Delta-E=       -0.000000001016 Rises=F Damp=F
 DIIS: error= 6.47D-07 at cycle   7 NSaved=   7.
 NSaved= 7 IEnMin= 7 EnMin= -78.1270856043554     IErMin= 7 ErrMin= 6.47D-07
 ErrMax= 6.47D-07  0.00D+00 EMaxC= 1.00D-01 BMatC= 2.37D-11 BMatP= 1.46D-09
 IDIUse=1 WtCom= 1.00D+00 WtEn= 0.00D+00
 Coeff-Com:  0.513D-05-0.108D-04-0.170D-03 0.887D-03 0.488D-02-0.124D+00
 Coeff-Com:  0.112D+01
 Coeff:      0.513D-05-0.108D-04-0.170D-03 0.887D-03 0.488D-02-0.124D+00
 Coeff:      0.112D+01
 Gap=     0.399 Goal=   None    Shift=    0.000
 Gap=     0.399 Goal=   None    Shift=    0.000
 RMSDP=1.28D-07 MaxDP=1.86D-06 DE=-1.02D-09 OVMax= 1.89D-06

 Cycle   8  Pass 1  IDiag  1:
 E= -78.1270856043653     Delta-E=       -0.000000000010 Rises=F Damp=F
 DIIS: error= 5.43D-08 at cycle   8 NSaved=   8.
 NSaved= 8 IEnMin= 8 EnMin= -78.1270856043653     IErMin= 8 ErrMin= 5.43D-08
 ErrMax= 5.43D-08  0.00D+00 EMaxC= 1.00D-01 BMatC= 3.22D-13 BMatP= 2.37D-11
 IDIUse=1 WtCom= 1.00D+00 WtEn= 0.00D+00
 Coeff-Com:  0.335D-06-0.136D-05-0.170D-06 0.244D-04 0.607D-03-0.601D-02
 Coeff-Com:  0.153D-01 0.990D+00
 Coeff:      0.335D-06-0.136D-05-0.170D-06 0.244D-04 0.607D-03-0.601D-02
 Coeff:      0.153D-01 0.990D+00
 Gap=     0.399 Goal=   None    Shift=    0.000
 Gap=     0.399 Goal=   None    Shift=    0.000
 RMSDP=1.53D-08 MaxDP=3.01D-07 DE=-9.89D-12 OVMax= 1.24D-07

 Cycle   9  Pass 1  IDiag  1:
 E= -78.1270856043654     Delta-E=       -0.000000000000 Rises=F Damp=F
 DIIS: error= 6.05D-09 at cycle   9 NSaved=   9.
 NSaved= 9 IEnMin= 9 EnMin= -78.1270856043654     IErMin= 9 ErrMin= 6.05D-09
 ErrMax= 6.05D-09  0.00D+00 EMaxC= 1.00D-01 BMatC= 4.26D-15 BMatP= 3.22D-13
 IDIUse=1 WtCom= 1.00D+00 WtEn= 0.00D+00
 Coeff-Com: -0.935D-07 0.117D-06 0.409D-05-0.107D-04-0.478D-04 0.165D-02
 Coeff-Com: -0.214D-01 0.486D-01 0.971D+00
 Coeff:     -0.935D-07 0.117D-06 0.409D-05-0.107D-04-0.478D-04 0.165D-02
 Coeff:     -0.214D-01 0.486D-01 0.971D+00
 Gap=     0.399 Goal=   None    Shift=    0.000
 Gap=     0.399 Goal=   None    Shift=    0.000
 RMSDP=3.09D-09 MaxDP=6.63D-08 DE=-1.42D-13 OVMax= 1.67D-08

 SCF Done:  E(UM062X) =  -78.1270856044     A.U. after    9 cycles
            NFock=  9  Conv=0.31D-08     -V/T= 1.9641
 <Sx>= 0.0000 <Sy>= 0.0000 <Sz>= 0.0000 <S**2>=-0.0000 S=-0.0000
 <L.S>=  0.00000000000    
 KE= 8.103796551290D+01 PE=-2.677488998985D+02 EE= 6.636157933920D+01
 Annihilation of the first spin contaminant:
 S**2 before annihilation    -0.0000,   after     0.0000
 Leave Link  502 at Tue Nov 19 10:22:57 2024, MaxMem=   536870912 cpu:              48.0 elap:               6.1
 (Enter /home/szhao/Apps/g16/l601.exe)
 Copying SCF densities to generalized density rwf, IOpCl= 1 IROHF=0.

 **********************************************************************

            Population analysis using the SCF density.

 **********************************************************************

 Alpha  occ. eigenvalues --  -10.46727 -10.44513  -0.98065  -0.67302  -0.60818
 Alpha  occ. eigenvalues --   -0.48866  -0.43979  -0.36250
 Alpha virt. eigenvalues --    0.03637   0.03870   0.05085   0.06549   0.07931
 Alpha virt. eigenvalues --    0.08902   0.09737   0.16113   0.16432   0.20994
 Alpha virt. eigenvalues --    0.21992   0.27899   0.34803   0.41086   0.41217
 Alpha virt. eigenvalues --    0.51060   0.51581   0.56804   0.64700   0.66063
 Alpha virt. eigenvalues --    0.72981   0.75349   0.79540   0.80400   0.96443
 Alpha virt. eigenvalues --    0.99502   1.26614   1.31426   1.33537   1.38774
 Alpha virt. eigenvalues --    1.40943   1.60679   1.75564   1.77626   1.80479
 Alpha virt. eigenvalues --    1.86326   1.86918   1.87361   1.98088   2.08850
 Alpha virt. eigenvalues --    2.38640   2.41540   2.46673   2.50570   2.50736
 Alpha virt. eigenvalues --    2.55612   2.82433   2.83285   2.86468   2.91973
 Alpha virt. eigenvalues --    2.93912   3.04582   3.31034   3.41814   3.71731
 Alpha virt. eigenvalues --    4.12721   4.13647   4.46660  24.09583  25.79044
  Beta  occ. eigenvalues --  -10.46727 -10.44513  -0.98065  -0.67302  -0.60818
  Beta  occ. eigenvalues --   -0.48866  -0.43979  -0.36250
  Beta virt. eigenvalues --    0.03637   0.03870   0.05085   0.06549   0.07931
  Beta virt. eigenvalues --    0.08902   0.09737   0.16113   0.16432   0.20994
  Beta virt. eigenvalues --    0.21992   0.27899   0.34803   0.41086   0.41217
  Beta virt. eigenvalues --    0.51060   0.51581   0.56804   0.64700   0.66063
  Beta virt. eigenvalues --    0.72981   0.75349   0.79540   0.80400   0.96443
  Beta virt. eigenvalues --    0.99502   1.26614   1.31426   1.33537   1.38774
  Beta virt. eigenvalues --    1.40943   1.60679   1.75564   1.77626   1.80479
  Beta virt. eigenvalues --    1.86326   1.86918   1.87361   1.98088   2.08850
  Beta virt. eigenvalues --    2.38640   2.41540   2.46673   2.50570   2.50736
  Beta virt. eigenvalues --    2.55612   2.82433   2.83285   2.86468   2.91973
  Beta virt. eigenvalues --    2.93912   3.04582   3.31034   3.41814   3.71731
  Beta virt. eigenvalues --    4.12721   4.13647   4.46660  24.09583  25.79044
          Condensed to atoms (all electrons):
               1          2          3          4          5          6
     1  C    4.798985   0.634162   0.431494   0.430512  -0.049077  -0.049003
     2  C    0.634162   4.798985  -0.049077  -0.049003   0.431494   0.430512
     3  H    0.431494  -0.049077   0.591296  -0.037294   0.023287  -0.058331
     4  H    0.430512  -0.049003  -0.037294   0.592191  -0.058331   0.023478
     5  H   -0.049077   0.431494   0.023287  -0.058331   0.591296  -0.037294
     6  H   -0.049003   0.430512  -0.058331   0.023478  -0.037294   0.592191
          Atomic-Atomic Spin Densities.
               1          2          3          4          5          6
     1  C   -0.000000  -0.000000  -0.000000   0.000000  -0.000000   0.000000
     2  C   -0.000000   0.000000   0.000000  -0.000000   0.000000  -0.000000
     3  H   -0.000000   0.000000   0.000000  -0.000000   0.000000  -0.000000
     4  H    0.000000  -0.000000  -0.000000  -0.000000   0.000000   0.000000
     5  H   -0.000000   0.000000   0.000000   0.000000  -0.000000   0.000000
     6  H    0.000000  -0.000000  -0.000000   0.000000   0.000000   0.000000
 Mulliken charges and spin densities:
               1          2
     1  C   -0.197073   0.000000
     2  C   -0.197073  -0.000000
     3  H    0.098625   0.000000
     4  H    0.098448  -0.000000
     5  H    0.098625   0.000000
     6  H    0.098448   0.000000
 Sum of Mulliken charges =  -0.00000   0.00000
 Mulliken charges and spin densities with hydrogens summed into heavy atoms:
               1          2
     1  C    0.000000   0.000000
     2  C   -0.000000  -0.000000
 Electronic spatial extent (au):  <R**2>=             61.4283
 Charge=             -0.0000 electrons
 Dipole moment (field-independent basis, Debye):
    X=             -0.0000    Y=             -0.0000    Z=             -0.0000  Tot=              0.0000
 Quadrupole moment (field-independent basis, Debye-Ang):
   XX=            -13.9996   YY=            -11.1458   ZZ=            -13.6510
   XY=              0.0146   XZ=             -0.0000   YZ=             -0.0000
 Traceless Quadrupole moment (field-independent basis, Debye-Ang):
   XX=             -1.0675   YY=              1.7863   ZZ=             -0.7189
   XY=              0.0146   XZ=             -0.0000   YZ=             -0.0000
 Octapole moment (field-independent basis, Debye-Ang**2):
  XXX=             -0.0000  YYY=              0.0000  ZZZ=             -0.0000  XYY=             -0.0000
  XXY=             -0.0000  XXZ=              0.0000  XZZ=             -0.0000  YZZ=              0.0000
  YYZ=             -0.0000  XYZ=             -0.0000
 Hexadecapole moment (field-independent basis, Debye-Ang**3):
 XXXX=            -45.8672 YYYY=            -24.3845 ZZZZ=            -13.8619 XXXY=              0.0573
 XXXZ=             -0.0000 YYYX=              0.0420 YYYZ=             -0.0000 ZZZX=             -0.0000
 ZZZY=             -0.0000 XXYY=            -11.6373 XXZZ=             -9.7553 YYZZ=             -7.0895
 XXYZ=              0.0000 YYXZ=             -0.0000 ZZXY=              0.0144
 N-N= 4.222226944200D+01 E-N=-2.677489000485D+02  KE= 8.103796551290D+01
                          Isotropic Fermi Contact Couplings
        Atom                 a.u.       MegaHertz       Gauss      10(-4) cm-1
     1  C(13)             -0.00000      -0.00000      -0.00000      -0.00000
     2  C(13)             -0.00000      -0.00000      -0.00000      -0.00000
     3  H(1)               0.00000       0.00000       0.00000       0.00000
     4  H(1)               0.00000       0.00000       0.00000       0.00000
     5  H(1)               0.00000       0.00000       0.00000       0.00000
     6  H(1)               0.00000       0.00000       0.00000       0.00000
 --------------------------------------------------------
       Center         ----  Spin Dipole Couplings  ----
                      3XX-RR        3YY-RR        3ZZ-RR
 --------------------------------------------------------
     1   Atom       -0.000000      0.000000      0.000000
     2   Atom        0.000000     -0.000000     -0.000000
     3   Atom       -0.000000      0.000000     -0.000000
     4   Atom        0.000000      0.000000     -0.000000
     5   Atom        0.000000     -0.000000     -0.000000
     6   Atom        0.000000      0.000000     -0.000000
 --------------------------------------------------------
                        XY            XZ            YZ
 --------------------------------------------------------
     1   Atom        0.000000      0.000000      0.000000
     2   Atom       -0.000000      0.000000     -0.000000
     3   Atom        0.000000     -0.000000     -0.000000
     4   Atom        0.000000      0.000000      0.000000
     5   Atom       -0.000000      0.000000     -0.000000
     6   Atom       -0.000000     -0.000000      0.000000
 --------------------------------------------------------


 ---------------------------------------------------------------------------------
              Anisotropic Spin Dipole Couplings in Principal Axis System
 ---------------------------------------------------------------------------------

       Atom             a.u.   MegaHertz   Gauss  10(-4) cm-1        Axes

              Baa    -0.0000    -0.000    -0.000    -0.000  0.8899 -0.4547 -0.0373
     1 C(13)  Bbb     0.0000     0.000     0.000     0.000  0.0060 -0.0701  0.9975
              Bcc     0.0000     0.000     0.000     0.000  0.4562  0.8879  0.0596
 
              Baa    -0.0000    -0.000    -0.000    -0.000 -0.0108  0.1185  0.9929
     2 C(13)  Bbb    -0.0000    -0.000    -0.000    -0.000  0.1566  0.9809 -0.1154
              Bcc     0.0000     0.000     0.000     0.000  0.9876 -0.1542  0.0291
 
              Baa    -0.0000    -0.000    -0.000    -0.000  0.8329 -0.5221 -0.1836
     3 H(1)   Bbb    -0.0000    -0.000    -0.000    -0.000  0.1726 -0.0702  0.9825
              Bcc     0.0000     0.000     0.000     0.000  0.5259  0.8500 -0.0317
 
              Baa    -0.0000    -0.000    -0.000    -0.000 -0.0044 -0.1603  0.9871
     4 H(1)   Bbb     0.0000     0.000     0.000     0.000  0.9924 -0.1219 -0.0154
              Bcc     0.0000     0.000     0.000     0.000  0.1228  0.9795  0.1596
 
              Baa    -0.0000    -0.000    -0.000    -0.000  0.3854  0.8913  0.2388
     5 H(1)   Bbb    -0.0000    -0.000    -0.000    -0.000 -0.1259 -0.2055  0.9705
              Bcc     0.0000     0.000     0.000     0.000  0.9141 -0.4041  0.0330
 
              Baa    -0.0000    -0.000    -0.000    -0.000 -0.0274 -0.1151  0.9930
     6 H(1)   Bbb    -0.0000    -0.000    -0.000    -0.000  0.7881  0.6086  0.0923
              Bcc     0.0000     0.000     0.000     0.000 -0.6149  0.7851  0.0741
 

 ---------------------------------------------------------------------------------

 No NMR shielding tensors so no spin-rotation constants.
 Leave Link  601 at Tue Nov 19 10:22:58 2024, MaxMem=   536870912 cpu:               1.3 elap:               0.2
 (Enter /home/szhao/Apps/g16/l701.exe)
 ... and contract with generalized density number  0.
 Compute integral first derivatives.
 Leave Link  701 at Tue Nov 19 10:22:58 2024, MaxMem=   536870912 cpu:               0.8 elap:               0.1
 (Enter /home/szhao/Apps/g16/l702.exe)
 L702 exits ... SP integral derivatives will be done elsewhere.
 Leave Link  702 at Tue Nov 19 10:22:58 2024, MaxMem=   536870912 cpu:               0.4 elap:               0.0
 (Enter /home/szhao/Apps/g16/l703.exe)
 Integral derivatives from FoFJK, PRISM(SPDF).
 Compute integral first derivatives, UseDBF=F ICtDFT=           0.
 Calling FoFJK, ICntrl=      2127 FMM=F ISym2X=0 I1Cent= 0 IOpClX= 1 NMat=1 NMatS=1 NMatT=0.
 FoFJK:  IHMeth= 1 ICntrl=    2127 DoSepK=F KAlg= 0 I1Cent=           0 FoldK=F
 IRaf=         0 NMat=       1 IRICut=       1 DoRegI=T DoRafI=F ISym2E= 0 IDoP0=0 IntGTp=1.
 FoFCou: FMM=F IPFlag=           0 FMFlag=      100000 FMFlg1=         800
         NFxFlg=           0 DoJE=F BraDBF=F KetDBF=F FulRan=T
         wScrn=  0.000000 ICntrl=      2127 IOpCl=  1 I1Cent=           0 NGrid=           0
         NMat0=    1 NMatS0=      1 NMatT0=    0 NMatD0=    1 NMtDS0=    0 NMtDT0=    0
 Symmetry not used in FoFCou.
 Leave Link  703 at Tue Nov 19 10:22:59 2024, MaxMem=   536870912 cpu:              10.1 elap:               1.3
 (Enter /home/szhao/Apps/g16/l716.exe)
 Dipole        =-7.34967642D-14-1.31006317D-14-2.51678911D-15
 -------------------------------------------------------------------
 Center     Atomic                   Forces (Hartrees/Bohr)
 Number     Number              X              Y              Z
 -------------------------------------------------------------------
      1        6          -0.000000000   -0.000000000   -0.000000000
      2        6          -0.000000000   -0.000000000   -0.000000000
      3        1          -0.076587576   -0.046123502   -0.000000000
      4        1          -0.075419862    0.043742040   -0.000000000
      5        1           0.076587576    0.046123502    0.000000000
      6        1           0.075419862   -0.043742040    0.000000000
 -------------------------------------------------------------------
 Cartesian Forces:  Max     0.076587576 RMS     0.041626055
 Leave Link  716 at Tue Nov 19 10:22:59 2024, MaxMem=   536870912 cpu:               0.4 elap:               0.1
 (Enter /home/szhao/Apps/g16/l103.exe)

 GradGradGradGradGradGradGradGradGradGradGradGradGradGradGradGradGradGrad
 Berny optimization.
 FormGI is forming the generalized inverse of G from B-inverse, IUseBI=4.
 Internal  Forces:  Max     0.152007438 RMS     0.063107490
 Search for a local minimum.
 Step number   1 out of a maximum of   30
 All quantities printed in internal units (Hartrees-Bohrs-Radians)
 RMS Force = .48858D-01 SwitMx=.10000D-02 MixMth= 1
 Mixed Optimization -- RFO/linear search
 Second derivative matrix not updated -- first step.
 The second derivative matrix:
                          X1        Y1        Z1        X2        Y2
           X1           0.50000
           Y1           0.00000   0.50000
           Z1           0.00000   0.00000   0.50000
           X2           0.00000   0.00000   0.00000   0.50000
           Y2           0.00000   0.00000   0.00000   0.00000   0.50000
           Z2           0.00000   0.00000   0.00000   0.00000   0.00000
           R1           0.00000   0.00000   0.00000   0.00000   0.00000
           R2           0.00000   0.00000   0.00000   0.00000   0.00000
           R3           0.00000   0.00000   0.00000   0.00000   0.00000
           R4           0.00000   0.00000   0.00000   0.00000   0.00000
           A1           0.00000   0.00000   0.00000   0.00000   0.00000
           A2           0.00000   0.00000   0.00000   0.00000   0.00000
           A3           0.00000   0.00000   0.00000   0.00000   0.00000
           A4           0.00000   0.00000   0.00000   0.00000   0.00000
           A5           0.00000   0.00000   0.00000   0.00000   0.00000
           A6           0.00000   0.00000   0.00000   0.00000   0.00000
           D1           0.00000   0.00000   0.00000   0.00000   0.00000
           D2           0.00000   0.00000   0.00000   0.00000   0.00000
           D3           0.00000   0.00000   0.00000   0.00000   0.00000
           D4           0.00000   0.00000   0.00000   0.00000   0.00000
                          Z2        R1        R2        R3        R4
           Z2           0.50000
           R1           0.00000   0.46611
           R2           0.00000   0.00000   0.46096
           R3           0.00000   0.00000   0.00000   0.46611
           R4           0.00000   0.00000   0.00000   0.00000   0.46096
           A1           0.00000   0.00000   0.00000   0.00000   0.00000
           A2           0.00000   0.00000   0.00000   0.00000   0.00000
           A3           0.00000   0.00000   0.00000   0.00000   0.00000
           A4           0.00000   0.00000   0.00000   0.00000   0.00000
           A5           0.00000   0.00000   0.00000   0.00000   0.00000
           A6           0.00000   0.00000   0.00000   0.00000   0.00000
           D1           0.00000   0.00000   0.00000   0.00000   0.00000
           D2           0.00000   0.00000   0.00000   0.00000   0.00000
           D3           0.00000   0.00000   0.00000   0.00000   0.00000
           D4           0.00000   0.00000   0.00000   0.00000   0.00000
                          A1        A2        A3        A4        A5
           A1           0.16000
           A2           0.00000   0.16000
           A3           0.00000   0.00000   0.16000
           A4           0.00000   0.00000   0.00000   0.16000
           A5           0.00000   0.00000   0.00000   0.00000   0.16000
           A6           0.00000   0.00000   0.00000   0.00000   0.00000
           D1           0.00000   0.00000   0.00000   0.00000   0.00000
           D2           0.00000   0.00000   0.00000   0.00000   0.00000
           D3           0.00000   0.00000   0.00000   0.00000   0.00000
           D4           0.00000   0.00000   0.00000   0.00000   0.00000
                          A6        D1        D2        D3        D4
           A6           0.16000
           D1           0.00000   0.08157
           D2           0.00000   0.00000   0.08157
           D3           0.00000   0.00000   0.00000   0.08157
           D4           0.00000   0.00000   0.00000   0.00000   0.08157
 ITU=  0
     Eigenvalues ---    0.08157   0.08157   0.08157   0.16000   0.16000
     Eigenvalues ---    0.16000   0.16000   0.46096   0.46096   0.46611
     Eigenvalues ---    0.466111000.000001000.000001000.000001000.00000
     Eigenvalues --- 1000.000001000.000001000.000001000.000001000.00000
 RFO step:  Lambda=-8.89702288D-02 EMin= 8.15676527D-02
 Linear search not attempted -- first point.
 Maximum step size (   0.300) exceeded in Quadratic search.
    -- Step size scaled by   0.572
 Iteration  1 RMS(Cart)=  0.07218825 RMS(Int)=  0.00325538
 Iteration  2 RMS(Cart)=  0.00349404 RMS(Int)=  0.00000696
 Iteration  3 RMS(Cart)=  0.00000748 RMS(Int)=  0.00000000
 Iteration  4 RMS(Cart)=  0.00000000 RMS(Int)=  0.00000000
 ITry= 1 IFail=0 DXMaxC= 1.65D-01 DCOld= 1.00D+10 DXMaxT= 3.00D-01 DXLimC= 3.00D+00 Rises=F
 Variable       Old X    -DE/DX   Delta X   Delta X   Delta X     New X
                                 (Linear)    (Quad)   (Total)
    X1       -0.88938  -0.15201   0.00000   0.00000   0.00000  -0.88938
    Y1        0.00000  -0.00305   0.00000   0.00000   0.00000   0.00000
    Z1        0.00000  -0.00000   0.00000   0.00000   0.00000   0.00000
    X2        0.88938   0.15201   0.00000   0.00000   0.00000   0.88938
    Y2        0.00000   0.00305   0.00000   0.00000   0.00000   0.00000
    Z2        0.00000   0.00000   0.00000   0.00000   0.00000   0.00000
    R1        1.90148   0.07301   0.00000   0.07519   0.07519   1.97667
    R2        1.90723   0.07017   0.00000   0.07294   0.07294   1.98017
    R3        1.90148   0.07301   0.00000   0.07519   0.07519   1.97667
    R4        1.90723   0.07017   0.00000   0.07294   0.07294   1.98017
    A1        1.98438   0.03250   0.00000   0.07463   0.07463   2.05901
    A2        1.98058   0.03310   0.00000   0.07599   0.07599   2.05657
    A3        2.31822  -0.06560   0.00000  -0.15061  -0.15061   2.16761
    A4        1.98438   0.03250   0.00000   0.07463   0.07463   2.05901
    A5        1.98058   0.03310   0.00000   0.07599   0.07599   2.05657
    A6        2.31822  -0.06560   0.00000  -0.15061  -0.15061   2.16761
    D1        3.14159   0.00000   0.00000  -0.00000   0.00000   3.14159
    D2        0.00000  -0.00000   0.00000  -0.00000  -0.00000   0.00000
    D3        0.00000   0.00000   0.00000   0.00000   0.00000   0.00000
    D4        3.14159   0.00000   0.00000   0.00000   0.00000   3.14159
         Item               Value     Threshold  Converged?
 Maximum Force            0.073015     0.000450     NO 
 RMS     Force            0.048858     0.000300     NO 
 Maximum Displacement     0.164657     0.001800     NO 
 RMS     Displacement     0.073274     0.001200     NO 
 Predicted change in Energy=-4.032516D-02
 Lowest energy point so far.  Saving SCF results.
 GradGradGradGradGradGradGradGradGradGradGradGradGradGradGradGradGradGrad

 Leave Link  103 at Tue Nov 19 10:22:59 2024, MaxMem=   536870912 cpu:               0.1 elap:               0.0
 (Enter /home/szhao/Apps/g16/l202.exe)
                          Input orientation:                          
 ---------------------------------------------------------------------
 Center     Atomic      Atomic             Coordinates (Angstroms)
 Number     Number       Type             X           Y           Z
 ---------------------------------------------------------------------
      1          6           0       -0.470639    0.000000    0.000000
      2          6           0        0.470639    0.000000    0.000000
      3          1           0       -0.961269   -0.923807   -0.000000
      4          1           0       -0.959875    0.926639   -0.000000
      5          1           0        0.961269    0.923807    0.000000
      6          1           0        0.959875   -0.926639    0.000000
 ---------------------------------------------------------------------
                    Distance matrix (angstroms):
                    1          2          3          4          5
     1  C    0.000000
     2  C    0.941278   0.000000
     3  H    1.046010   1.704048   0.000000
     4  H    1.047861   1.704415   1.850447   0.000000
     5  H    1.704048   1.046010   2.666426   1.921146   0.000000
     6  H    1.704415   1.047861   1.921146   2.668348   1.850447
                    6
     6  H    0.000000
 Symmetry turned off by external request.
 Stoichiometry    C2H4
 Framework group  C2H[SGH(C2H4)]
 Deg. of freedom     5
 Full point group                 C2H     NOp   4
 Rotational constants (GHZ):         146.4462314          55.9313260          40.4735190
 Leave Link  202 at Tue Nov 19 10:22:59 2024, MaxMem=   536870912 cpu:               0.0 elap:               0.0
 (Enter /home/szhao/Apps/g16/l301.exe)
 Standard basis: 6-311+G(d,p) (5D, 7F)
 Ernie: Thresh=  0.10000D-02 Tol=  0.10000D-05 Strict=F.
    68 basis functions,   104 primitive gaussians,    70 cartesian basis functions
     8 alpha electrons        8 beta electrons
       nuclear repulsion energy        41.3415402649 Hartrees.
 IExCor= 4336 DFT=T Ex+Corr=M062X ExCW=0 ScaHFX=  0.540000
 ScaDFX=  1.000000  1.000000  1.000000  1.000000 ScalE2=  1.000000  1.000000
 IRadAn=      7 IRanWt=     -1 IRanGd=            0 ICorTp=0 IEmpDi=  4
 NAtoms=    6 NActive=    6 NUniq=    6 SFac= 1.00D+00 NAtFMM=   60 NAOKFM=F Big=F
 Integral buffers will be    131072 words long.
 Raffenetti 2 integral format.
 Two-electron integral symmetry is turned off.
 Leave Link  301 at Tue Nov 19 10:22:59 2024, MaxMem=   536870912 cpu:               0.4 elap:               0.1
 (Enter /home/szhao/Apps/g16/l302.exe)
 NPDir=0 NMtPBC=     1 NCelOv=     1 NCel=       1 NClECP=     1 NCelD=      1
         NCelK=      1 NCelE2=     1 NClLst=     1 CellRange=     0.0.
 One-electron integrals computed using PRISM.
 NBasis=    68 RedAO= T EigKep=  1.82D-05  NBF=    68
 NBsUse=    68 1.00D-06 EigRej= -1.00D+00 NBFU=    68
 Precomputing XC quadrature grid using
 IXCGrd= 4 IRadAn=           7 IRanWt=          -1 IRanGd=           0 AccXCQ= 0.00D+00.
 Generated NRdTot=       0 NPtTot=           0 NUsed=           0 NTot=          32
 NSgBfM=    70    70    70    70    70 MxSgAt=     6 MxSgA2=     6.
 Leave Link  302 at Tue Nov 19 10:23:00 2024, MaxMem=   536870912 cpu:               1.4 elap:               0.2
 (Enter /home/szhao/Apps/g16/l303.exe)
 DipDrv:  MaxL=1.
 Leave Link  303 at Tue Nov 19 10:23:00 2024, MaxMem=   536870912 cpu:               0.4 elap:               0.1
 (Enter /home/szhao/Apps/g16/l401.exe)
 Initial guess from the checkpoint file:  "opt.chk"
 B after Tr=     0.000000   -0.000000   -0.000000
         Rot=    1.000000    0.000000    0.000000   -0.000266 Ang=  -0.03 deg.
 Guess basis will be translated and rotated to current coordinates.
 JPrj=2 DoOrth=T DoCkMO=T.
 Initial guess <Sx>= 0.0000 <Sy>= 0.0000 <Sz>= 0.0000 <S**2>= 0.0000 S= 0.0000
 Generating alternative initial guess.
 ExpMin= 4.38D-02 ExpMax= 4.56D+03 ExpMxC= 6.82D+02 IAcc=3 IRadAn=         5 AccDes= 0.00D+00
 Harris functional with IExCor= 1009 and IRadAn=       5 diagonalized for initial guess.
 HarFok:  IExCor= 1009 AccDes= 0.00D+00 IRadAn=         5 IDoV= 1 UseB2=F ITyADJ=14
 ICtDFT=  3500011 ScaDFX=  1.000000  1.000000  1.000000  1.000000
 FoFCou: FMM=F IPFlag=           0 FMFlag=      100000 FMFlg1=           0
         NFxFlg=           0 DoJE=T BraDBF=F KetDBF=T FulRan=T
         wScrn=  0.000000 ICntrl=       500 IOpCl=  0 I1Cent=   200000004 NGrid=           0
         NMat0=    1 NMatS0=      1 NMatT0=    0 NMatD0=    1 NMtDS0=    0 NMtDT0=    0
 Symmetry not used in FoFCou.
 Harris En= -78.3841726522035    
 Leave Link  401 at Tue Nov 19 10:23:00 2024, MaxMem=   536870912 cpu:               2.3 elap:               0.3
 (Enter /home/szhao/Apps/g16/l502.exe)
 Keep R1 and R2 ints in memory in canonical form, NReq=12681614.
 FoFCou: FMM=F IPFlag=           0 FMFlag=           0 FMFlg1=           0
         NFxFlg=           0 DoJE=F BraDBF=F KetDBF=F FulRan=T
         wScrn=  0.000000 ICntrl=       600 IOpCl=  0 I1Cent=           0 NGrid=           0
         NMat0=    1 NMatS0=   2346 NMatT0=    0 NMatD0=    1 NMtDS0=    0 NMtDT0=    0
 Symmetry not used in FoFCou.
 Two-electron integral symmetry not used.
 UHF open shell SCF:
 Using DIIS extrapolation, IDIIS=  1040.
 NGot=   536870912 LenX=   531353794 LenY=   531348453
 Requested convergence on RMS density matrix=1.00D-08 within 128 cycles.
 Requested convergence on MAX density matrix=1.00D-06.
 Requested convergence on             energy=1.00D-06.
 No special actions if energy rises.

 Cycle   1  Pass 1  IDiag  1:
 E= -78.1653956214936    
 DIIS: error= 6.96D-03 at cycle   1 NSaved=   1.
 NSaved= 1 IEnMin= 1 EnMin= -78.1653956214936     IErMin= 1 ErrMin= 6.96D-03
 ErrMax= 6.96D-03  0.00D+00 EMaxC= 1.00D-01 BMatC= 8.24D-03 BMatP= 8.24D-03
 IDIUse=3 WtCom= 9.30D-01 WtEn= 6.96D-02
 Coeff-Com:  0.100D+01
 Coeff-En:   0.100D+01
 Coeff:      0.100D+01
 Gap=     0.648 Goal=   None    Shift=    0.000
 Gap=     0.648 Goal=   None    Shift=    0.000
 GapD=    0.648 DampG=2.000 DampE=1.000 DampFc=2.0000 IDamp=-1.
 RMSDP=1.09D-03 MaxDP=1.58D-02              OVMax= 1.40D-02

 Cycle   2  Pass 1  IDiag  1:
 E= -78.1671093156096     Delta-E=       -0.001713694116 Rises=F Damp=F
 DIIS: error= 1.13D-03 at cycle   2 NSaved=   2.
 NSaved= 2 IEnMin= 2 EnMin= -78.1671093156096     IErMin= 2 ErrMin= 1.13D-03
 ErrMax= 1.13D-03  0.00D+00 EMaxC= 1.00D-01 BMatC= 2.20D-04 BMatP= 8.24D-03
 IDIUse=3 WtCom= 9.89D-01 WtEn= 1.13D-02
 Coeff-Com: -0.105D-01 0.101D+01
 Coeff-En:   0.000D+00 0.100D+01
 Coeff:     -0.104D-01 0.101D+01
 Gap=     0.393 Goal=   None    Shift=    0.000
 Gap=     0.393 Goal=   None    Shift=    0.000
 RMSDP=1.22D-04 MaxDP=2.12D-03 DE=-1.71D-03 OVMax= 3.88D-03

 Cycle   3  Pass 1  IDiag  1:
 E= -78.1671417433275     Delta-E=       -0.000032427718 Rises=F Damp=F
 DIIS: error= 1.08D-03 at cycle   3 NSaved=   3.
 NSaved= 3 IEnMin= 3 EnMin= -78.1671417433275     IErMin= 3 ErrMin= 1.08D-03
 ErrMax= 1.08D-03  0.00D+00 EMaxC= 1.00D-01 BMatC= 1.25D-04 BMatP= 2.20D-04
 IDIUse=3 WtCom= 9.89D-01 WtEn= 1.08D-02
 Coeff-Com: -0.295D-01 0.439D+00 0.590D+00
 Coeff-En:   0.000D+00 0.210D+00 0.790D+00
 Coeff:     -0.292D-01 0.437D+00 0.592D+00
 Gap=     0.391 Goal=   None    Shift=    0.000
 Gap=     0.391 Goal=   None    Shift=    0.000
 RMSDP=5.71D-05 MaxDP=7.79D-04 DE=-3.24D-05 OVMax= 1.48D-03

 Cycle   4  Pass 1  IDiag  1:
 E= -78.1671700342981     Delta-E=       -0.000028290971 Rises=F Damp=F
 DIIS: error= 6.18D-05 at cycle   4 NSaved=   4.
 NSaved= 4 IEnMin= 4 EnMin= -78.1671700342981     IErMin= 4 ErrMin= 6.18D-05
 ErrMax= 6.18D-05  0.00D+00 EMaxC= 1.00D-01 BMatC= 4.37D-07 BMatP= 1.25D-04
 IDIUse=1 WtCom= 1.00D+00 WtEn= 0.00D+00
 Coeff-Com: -0.375D-03-0.333D-01 0.106D-01 0.102D+01
 Coeff:     -0.375D-03-0.333D-01 0.106D-01 0.102D+01
 Gap=     0.391 Goal=   None    Shift=    0.000
 Gap=     0.391 Goal=   None    Shift=    0.000
 RMSDP=9.62D-06 MaxDP=1.52D-04 DE=-2.83D-05 OVMax= 1.64D-04

 Cycle   5  Pass 1  IDiag  1:
 E= -78.1671701928486     Delta-E=       -0.000000158551 Rises=F Damp=F
 DIIS: error= 4.00D-06 at cycle   5 NSaved=   5.
 NSaved= 5 IEnMin= 5 EnMin= -78.1671701928486     IErMin= 5 ErrMin= 4.00D-06
 ErrMax= 4.00D-06  0.00D+00 EMaxC= 1.00D-01 BMatC= 3.12D-09 BMatP= 4.37D-07
 IDIUse=1 WtCom= 1.00D+00 WtEn= 0.00D+00
 Coeff-Com:  0.266D-03-0.453D-02-0.536D-02-0.148D-01 0.102D+01
 Coeff:      0.266D-03-0.453D-02-0.536D-02-0.148D-01 0.102D+01
 Gap=     0.391 Goal=   None    Shift=    0.000
 Gap=     0.391 Goal=   None    Shift=    0.000
 RMSDP=1.70D-06 MaxDP=2.70D-05 DE=-1.59D-07 OVMax= 2.07D-05

 Cycle   6  Pass 1  IDiag  1:
 E= -78.1671701945665     Delta-E=       -0.000000001718 Rises=F Damp=F
 DIIS: error= 7.45D-07 at cycle   6 NSaved=   6.
 NSaved= 6 IEnMin= 6 EnMin= -78.1671701945665     IErMin= 6 ErrMin= 7.45D-07
 ErrMax= 7.45D-07  0.00D+00 EMaxC= 1.00D-01 BMatC= 7.28D-11 BMatP= 3.12D-09
 IDIUse=1 WtCom= 1.00D+00 WtEn= 0.00D+00
 Coeff-Com:  0.238D-04 0.475D-03-0.552D-03-0.217D-01 0.508D-01 0.971D+00
 Coeff:      0.238D-04 0.475D-03-0.552D-03-0.217D-01 0.508D-01 0.971D+00
 Gap=     0.391 Goal=   None    Shift=    0.000
 Gap=     0.391 Goal=   None    Shift=    0.000
 RMSDP=3.86D-07 MaxDP=5.12D-06 DE=-1.72D-09 OVMax= 3.30D-06

 Cycle   7  Pass 1  IDiag  1:
 E= -78.1671701945975     Delta-E=       -0.000000000031 Rises=F Damp=F
 DIIS: error= 5.67D-08 at cycle   7 NSaved=   7.
 NSaved= 7 IEnMin= 7 EnMin= -78.1671701945975     IErMin= 7 ErrMin= 5.67D-08
 ErrMax= 5.67D-08  0.00D+00 EMaxC= 1.00D-01 BMatC= 5.13D-13 BMatP= 7.28D-11
 IDIUse=1 WtCom= 1.00D+00 WtEn= 0.00D+00
 Coeff-Com: -0.589D-05 0.494D-04 0.110D-03 0.120D-02-0.152D-01-0.633D-01
 Coeff-Com:  0.108D+01
 Coeff:     -0.589D-05 0.494D-04 0.110D-03 0.120D-02-0.152D-01-0.633D-01
 Coeff:      0.108D+01
 Gap=     0.391 Goal=   None    Shift=    0.000
 Gap=     0.391 Goal=   None    Shift=    0.000
 RMSDP=3.88D-08 MaxDP=5.68D-07 DE=-3.10D-11 OVMax= 3.40D-07

 Cycle   8  Pass 1  IDiag  1:
 E= -78.1671701945977     Delta-E=       -0.000000000000 Rises=F Damp=F
 DIIS: error= 6.92D-09 at cycle   8 NSaved=   8.
 NSaved= 8 IEnMin= 8 EnMin= -78.1671701945977     IErMin= 8 ErrMin= 6.92D-09
 ErrMax= 6.92D-09  0.00D+00 EMaxC= 1.00D-01 BMatC= 3.33D-15 BMatP= 5.13D-13
 IDIUse=1 WtCom= 1.00D+00 WtEn= 0.00D+00
 Coeff-Com:  0.158D-06-0.503D-05-0.244D-05 0.448D-04 0.687D-03-0.432D-02
 Coeff-Com: -0.425D-01 0.105D+01
 Coeff:      0.158D-06-0.503D-05-0.244D-05 0.448D-04 0.687D-03-0.432D-02
 Coeff:     -0.425D-01 0.105D+01
 Gap=     0.391 Goal=   None    Shift=    0.000
 Gap=     0.391 Goal=   None    Shift=    0.000
 RMSDP=1.55D-09 MaxDP=2.15D-08 DE=-2.27D-13 OVMax= 2.18D-08

 SCF Done:  E(UM062X) =  -78.1671701946     A.U. after    8 cycles
            NFock=  8  Conv=0.16D-08     -V/T= 1.9679
 <Sx>= 0.0000 <Sy>= 0.0000 <Sz>= 0.0000 <S**2>=-0.0000 S=-0.0000
 <L.S>=  0.00000000000    
 KE= 8.075615822678D+01 PE=-2.658525476220D+02 EE= 6.558767893570D+01
 Annihilation of the first spin contaminant:
 S**2 before annihilation    -0.0000,   after     0.0000
 Leave Link  502 at Tue Nov 19 10:23:06 2024, MaxMem=   536870912 cpu:              43.4 elap:               5.5
 (Enter /home/szhao/Apps/g16/l701.exe)
 ... and contract with generalized density number  0.
 Compute integral first derivatives.
 Leave Link  701 at Tue Nov 19 10:23:06 2024, MaxMem=   536870912 cpu:               0.9 elap:               0.1
 (Enter /home/szhao/Apps/g16/l702.exe)
 L702 exits ... SP integral derivatives will be done elsewhere.
 Leave Link  702 at Tue Nov 19 10:23:06 2024, MaxMem=   536870912 cpu:               0.4 elap:               0.1
 (Enter /home/szhao/Apps/g16/l703.exe)
 Integral derivatives from FoFJK, PRISM(SPDF).
 Compute integral first derivatives, UseDBF=F ICtDFT=           0.
 Calling FoFJK, ICntrl=      2127 FMM=F ISym2X=0 I1Cent= 0 IOpClX= 1 NMat=1 NMatS=1 NMatT=0.
 FoFJK:  IHMeth= 1 ICntrl=    2127 DoSepK=F KAlg= 0 I1Cent=           0 FoldK=F
 IRaf=         0 NMat=       1 IRICut=       1 DoRegI=T DoRafI=F ISym2E= 0 IDoP0=0 IntGTp=1.
 FoFCou: FMM=F IPFlag=           0 FMFlag=      100000 FMFlg1=         800
         NFxFlg=           0 DoJE=F BraDBF=F KetDBF=F FulRan=T
         wScrn=  0.000000 ICntrl=      2127 IOpCl=  1 I1Cent=           0 NGrid=           0
         NMat0=    1 NMatS0=      1 NMatT0=    0 NMatD0=    1 NMtDS0=    0 NMtDT0=    0
 Symmetry not used in FoFCou.
 Leave Link  703 at Tue Nov 19 10:23:07 2024, MaxMem=   536870912 cpu:               9.8 elap:               1.2
 (Enter /home/szhao/Apps/g16/l716.exe)
 Dipole        = 3.43058915D-13 4.04121181D-14 7.97542973D-15
 -------------------------------------------------------------------
 Center     Atomic                   Forces (Hartrees/Bohr)
 Number     Number              X              Y              Z
 -------------------------------------------------------------------
      1        6          -0.000000000   -0.000000000   -0.000000000
      2        6          -0.000000000   -0.000000000   -0.000000000
      3        1          -0.045588003   -0.017173847   -0.000000000
      4        1          -0.045000338    0.016036054   -0.000000000
      5        1           0.045588003    0.017173847    0.000000000
      6        1           0.045000338   -0.016036054    0.000000000
 -------------------------------------------------------------------
 Cartesian Forces:  Max     0.045588003 RMS     0.022743479
 Leave Link  716 at Tue Nov 19 10:23:07 2024, MaxMem=   536870912 cpu:               0.3 elap:               0.0
 (Enter /home/szhao/Apps/g16/l103.exe)

 GradGradGradGradGradGradGradGradGradGradGradGradGradGradGradGradGradGrad
 Berny optimization.
 Using GEDIIS/GDIIS optimizer.
 FormGI is forming the generalized inverse of G from B-inverse, IUseBI=4.
 Internal  Forces:  Max     0.090588341 RMS     0.036739670
 Search for a local minimum.
 Step number   2 out of a maximum of   30
 All quantities printed in internal units (Hartrees-Bohrs-Radians)
 RMS Force = .27489D-01 SwitMx=.10000D-02 MixMth= 1
 Mixed Optimization -- RFO/linear search
 Update second derivatives using D2CorX and points    1    2
 DE= -4.01D-02 DEPred=-4.03D-02 R= 9.94D-01
 TightC=F SS=  1.41D+00  RLast= 3.00D-01 DXNew= 5.0454D-01 9.0000D-01
 Trust test= 9.94D-01 RLast= 3.00D-01 DXMaxT set to 5.05D-01
 The second derivative matrix:
                          X1        Y1        Z1        X2        Y2
           X1           0.67961
           Y1           0.00456   0.50012
           Z1          -0.00000  -0.00000   0.50000
           X2          -0.17961  -0.00456   0.00000   0.67961
           Y2          -0.00456  -0.00012   0.00000   0.00456   0.50012
           Z2           0.00000   0.00000  -0.00000  -0.00000  -0.00000
           R1          -0.10663  -0.00271   0.00000   0.10663   0.00271
           R2          -0.10229  -0.00260   0.00000   0.10229   0.00260
           R3          -0.10663  -0.00271   0.00000   0.10663   0.00271
           R4          -0.10229  -0.00260   0.00000   0.10229   0.00260
           A1          -0.03330  -0.00085   0.00000   0.03330   0.00085
           A2          -0.03412  -0.00087   0.00000   0.03412   0.00087
           A3           0.06742   0.00171  -0.00000  -0.06742  -0.00171
           A4          -0.03330  -0.00085   0.00000   0.03330   0.00085
           A5          -0.03412  -0.00087   0.00000   0.03412   0.00087
           A6           0.06742   0.00171  -0.00000  -0.06742  -0.00171
           D1           0.00000   0.00000  -0.00000  -0.00000  -0.00000
           D2          -0.00000  -0.00000   0.00000   0.00000   0.00000
           D3           0.00000   0.00000  -0.00000  -0.00000  -0.00000
           D4           0.00000   0.00000  -0.00000  -0.00000  -0.00000
                          Z2        R1        R2        R3        R4
           Z2           0.50000
           R1          -0.00000   0.47110
           R2          -0.00000   0.00479   0.46555
           R3          -0.00000   0.00499   0.00479   0.47110
           R4          -0.00000   0.00479   0.00459   0.00479   0.46555
           A1          -0.00000  -0.00010  -0.00009  -0.00010  -0.00009
           A2          -0.00000   0.00003   0.00002   0.00003   0.00002
           A3           0.00000   0.00007   0.00007   0.00007   0.00007
           A4          -0.00000  -0.00010  -0.00009  -0.00010  -0.00009
           A5          -0.00000   0.00003   0.00002   0.00003   0.00002
           A6           0.00000   0.00007   0.00007   0.00007   0.00007
           D1           0.00000  -0.00000  -0.00000  -0.00000  -0.00000
           D2          -0.00000   0.00000   0.00000   0.00000   0.00000
           D3           0.00000  -0.00000  -0.00000  -0.00000  -0.00000
           D4           0.00000  -0.00000  -0.00000  -0.00000  -0.00000
                          A1        A2        A3        A4        A5
           A1           0.15941
           A2          -0.00057   0.15946
           A3           0.00116   0.00110   0.15774
           A4          -0.00059  -0.00057   0.00116   0.15941
           A5          -0.00057  -0.00054   0.00110  -0.00057   0.15946
           A6           0.00116   0.00110  -0.00226   0.00116   0.00110
           D1          -0.00000  -0.00000   0.00000  -0.00000  -0.00000
           D2           0.00000   0.00000  -0.00000   0.00000   0.00000
           D3          -0.00000  -0.00000   0.00000  -0.00000  -0.00000
           D4          -0.00000  -0.00000   0.00000  -0.00000  -0.00000
                          A6        D1        D2        D3        D4
           A6           0.15774
           D1           0.00000   0.08157
           D2          -0.00000  -0.00000   0.08157
           D3           0.00000   0.00000  -0.00000   0.08157
           D4           0.00000   0.00000  -0.00000   0.00000   0.08157
 ITU=  1  0
 Use linear search instead of GDIIS.
 Linear search step of   0.535 exceeds DXMaxT=   0.505 but not scaled.
 Quartic linear search produced a step of  1.78230.
 Iteration  1 RMS(Cart)=  0.11490495 RMS(Int)=  0.02391669
 Iteration  2 RMS(Cart)=  0.02903428 RMS(Int)=  0.00044822
 Iteration  3 RMS(Cart)=  0.00045240 RMS(Int)=  0.00000004
 Iteration  4 RMS(Cart)=  0.00000005 RMS(Int)=  0.00000000
 ITry= 1 IFail=0 DXMaxC= 3.04D-01 DCOld= 1.00D+10 DXMaxT= 5.05D-01 DXLimC= 3.00D+00 Rises=F
 Variable       Old X    -DE/DX   Delta X   Delta X   Delta X     New X
                                 (Linear)    (Quad)   (Total)
    X1       -0.88938  -0.09059   0.00000   0.00000   0.00000  -0.88938
    Y1        0.00000  -0.00149   0.00000   0.00000   0.00000   0.00000
    Z1        0.00000  -0.00000   0.00000   0.00000   0.00000   0.00000
    X2        0.88938   0.09059   0.00000   0.00000   0.00000   0.88938
    Y2        0.00000   0.00149   0.00000   0.00000   0.00000   0.00000
    Z2        0.00000   0.00000   0.00000   0.00000   0.00000   0.00000
    R1        1.97667   0.03655   0.13401   0.00000   0.13401   2.11068
    R2        1.98017   0.03519   0.12999   0.00000   0.12999   2.11016
    R3        1.97667   0.03655   0.13401   0.00000   0.13401   2.11068
    R4        1.98017   0.03519   0.12999   0.00000   0.12999   2.11016
    A1        2.05901   0.02112   0.13301   0.00000   0.13301   2.19202
    A2        2.05657   0.02143   0.13543   0.00000   0.13543   2.19200
    A3        2.16761  -0.04255  -0.26844   0.00000  -0.26844   1.89917
    A4        2.05901   0.02112   0.13301   0.00000   0.13301   2.19202
    A5        2.05657   0.02143   0.13543   0.00000   0.13543   2.19200
    A6        2.16761  -0.04255  -0.26844   0.00000  -0.26844   1.89917
    D1        3.14159   0.00000   0.00000   0.00000   0.00000   3.14159
    D2       -0.00000  -0.00000   0.00000   0.00000   0.00000   0.00000
    D3        0.00000   0.00000   0.00000   0.00000  -0.00000   0.00000
    D4        3.14159   0.00000   0.00000   0.00000   0.00000   3.14159
         Item               Value     Threshold  Converged?
 Maximum Force            0.042545     0.000450     NO 
 RMS     Force            0.027489     0.000300     NO 
 Maximum Displacement     0.303617     0.001800     NO 
 RMS     Displacement     0.136043     0.001200     NO 
 Predicted change in Energy=-1.984955D-02
 Lowest energy point so far.  Saving SCF results.
 GradGradGradGradGradGradGradGradGradGradGradGradGradGradGradGradGradGrad

 Leave Link  103 at Tue Nov 19 10:23:07 2024, MaxMem=   536870912 cpu:               0.0 elap:               0.0
 (Enter /home/szhao/Apps/g16/l202.exe)
                          Input orientation:                          
 ---------------------------------------------------------------------
 Center     Atomic      Atomic             Coordinates (Angstroms)
 Number     Number       Type             X           Y           Z
 ---------------------------------------------------------------------
      1          6           0       -0.470639    0.000000    0.000000
      2          6           0        0.470639    0.000000    0.000000
      3          1           0       -1.120720   -0.908250    0.000000
      4          1           0       -1.120543    0.908038    0.000000
      5          1           0        1.120720    0.908250   -0.000000
      6          1           0        1.120543   -0.908038   -0.000000
 ---------------------------------------------------------------------
                    Distance matrix (angstroms):
                    1          2          3          4          5
     1  C    0.000000
     2  C    0.941278   0.000000
     3  H    1.116926   1.832305   0.000000
     4  H    1.116650   1.832046   1.816288   0.000000
     5  H    1.832305   1.116926   2.885086   2.241262   0.000000
     6  H    1.832046   1.116650   2.241262   2.884544   1.816288
                    6
     6  H    0.000000
 Symmetry turned off by external request.
 Stoichiometry    C2H4
 Framework group  C2H[SGH(C2H4)]
 Deg. of freedom     5
 Full point group                 C2H     NOp   4
 Rotational constants (GHZ):         152.0066875          48.6943718          36.8800752
 Leave Link  202 at Tue Nov 19 10:23:07 2024, MaxMem=   536870912 cpu:               0.0 elap:               0.0
 (Enter /home/szhao/Apps/g16/l301.exe)
 Standard basis: 6-311+G(d,p) (5D, 7F)
 Ernie: Thresh=  0.10000D-02 Tol=  0.10000D-05 Strict=F.
    68 basis functions,   104 primitive gaussians,    70 cartesian basis functions
     8 alpha electrons        8 beta electrons
       nuclear repulsion energy        39.9645430755 Hartrees.
 IExCor= 4336 DFT=T Ex+Corr=M062X ExCW=0 ScaHFX=  0.540000
 ScaDFX=  1.000000  1.000000  1.000000  1.000000 ScalE2=  1.000000  1.000000
 IRadAn=      7 IRanWt=     -1 IRanGd=            0 ICorTp=0 IEmpDi=  4
 NAtoms=    6 NActive=    6 NUniq=    6 SFac= 1.00D+00 NAtFMM=   60 NAOKFM=F Big=F
 Integral buffers will be    131072 words long.
 Raffenetti 2 integral format.
 Two-electron integral symmetry is turned off.
 Leave Link  301 at Tue Nov 19 10:23:07 2024, MaxMem=   536870912 cpu:               0.3 elap:               0.0
 (Enter /home/szhao/Apps/g16/l302.exe)
 NPDir=0 NMtPBC=     1 NCelOv=     1 NCel=       1 NClECP=     1 NCelD=      1
         NCelK=      1 NCelE2=     1 NClLst=     1 CellRange=     0.0.
 One-electron integrals computed using PRISM.
 NBasis=    68 RedAO= T EigKep=  2.00D-05  NBF=    68
 NBsUse=    68 1.00D-06 EigRej= -1.00D+00 NBFU=    68
 Precomputing XC quadrature grid using
 IXCGrd= 4 IRadAn=           7 IRanWt=          -1 IRanGd=           0 AccXCQ= 0.00D+00.
 Generated NRdTot=       0 NPtTot=           0 NUsed=           0 NTot=          32
 NSgBfM=    70    70    70    70    70 MxSgAt=     6 MxSgA2=     6.
 Leave Link  302 at Tue Nov 19 10:23:07 2024, MaxMem=   536870912 cpu:               1.2 elap:               0.1
 (Enter /home/szhao/Apps/g16/l303.exe)
 DipDrv:  MaxL=1.
 Leave Link  303 at Tue Nov 19 10:23:07 2024, MaxMem=   536870912 cpu:               0.3 elap:               0.0
 (Enter /home/szhao/Apps/g16/l401.exe)
 Initial guess from the checkpoint file:  "opt.chk"
 B after Tr=     0.000000   -0.000000   -0.000000
         Rot=    1.000000    0.000000   -0.000000   -0.000434 Ang=  -0.05 deg.
 Guess basis will be translated and rotated to current coordinates.
 JPrj=2 DoOrth=T DoCkMO=T.
 Initial guess <Sx>= 0.0000 <Sy>= 0.0000 <Sz>= 0.0000 <S**2>=-0.0000 S=-0.0000
 Generating alternative initial guess.
 ExpMin= 4.38D-02 ExpMax= 4.56D+03 ExpMxC= 6.82D+02 IAcc=3 IRadAn=         5 AccDes= 0.00D+00
 Harris functional with IExCor= 1009 and IRadAn=       5 diagonalized for initial guess.
 HarFok:  IExCor= 1009 AccDes= 0.00D+00 IRadAn=         5 IDoV= 1 UseB2=F ITyADJ=14
 ICtDFT=  3500011 ScaDFX=  1.000000  1.000000  1.000000  1.000000
 FoFCou: FMM=F IPFlag=           0 FMFlag=      100000 FMFlg1=           0
         NFxFlg=           0 DoJE=T BraDBF=F KetDBF=T FulRan=T
         wScrn=  0.000000 ICntrl=       500 IOpCl=  0 I1Cent=   200000004 NGrid=           0
         NMat0=    1 NMatS0=      1 NMatT0=    0 NMatD0=    1 NMtDS0=    0 NMtDT0=    0
 Symmetry not used in FoFCou.
 Harris En= -78.3794035932340    
 Leave Link  401 at Tue Nov 19 10:23:08 2024, MaxMem=   536870912 cpu:               2.2 elap:               0.3
 (Enter /home/szhao/Apps/g16/l502.exe)
 Keep R1 and R2 ints in memory in canonical form, NReq=12681614.
 FoFCou: FMM=F IPFlag=           0 FMFlag=           0 FMFlg1=           0
         NFxFlg=           0 DoJE=F BraDBF=F KetDBF=F FulRan=T
         wScrn=  0.000000 ICntrl=       600 IOpCl=  0 I1Cent=           0 NGrid=           0
         NMat0=    1 NMatS0=   2346 NMatT0=    0 NMatD0=    1 NMtDS0=    0 NMtDT0=    0
 Symmetry not used in FoFCou.
 Two-electron integral symmetry not used.
 UHF open shell SCF:
 Using DIIS extrapolation, IDIIS=  1040.
 NGot=   536870912 LenX=   531353794 LenY=   531348453
 Requested convergence on RMS density matrix=1.00D-08 within 128 cycles.
 Requested convergence on MAX density matrix=1.00D-06.
 Requested convergence on             energy=1.00D-06.
 No special actions if energy rises.

 Cycle   1  Pass 1  IDiag  1:
 E= -78.1869753352544    
 DIIS: error= 1.18D-02 at cycle   1 NSaved=   1.
 NSaved= 1 IEnMin= 1 EnMin= -78.1869753352544     IErMin= 1 ErrMin= 1.18D-02
 ErrMax= 1.18D-02  0.00D+00 EMaxC= 1.00D-01 BMatC= 2.20D-02 BMatP= 2.20D-02
 IDIUse=3 WtCom= 8.82D-01 WtEn= 1.18D-01
 Coeff-Com:  0.100D+01
 Coeff-En:   0.100D+01
 Coeff:      0.100D+01
 Recover alternate guess density for next cycle.
 RMSDP=5.87D-03 MaxDP=9.91D-02              OVMax= 0.00D+00

 Cycle   2  Pass 1  IDiag  1:
 E= -77.8488068849500     Delta-E=        0.338168450304 Rises=F Damp=F
 Switch densities from cycles 1 and 2 for lowest energy.
 DIIS: error= 1.07D-01 at cycle   2 NSaved=   2.
 NSaved= 2 IEnMin= 1 EnMin= -78.1869753352544     IErMin= 1 ErrMin= 1.18D-02
 ErrMax= 1.07D-01  0.00D+00 EMaxC= 1.00D+00 BMatC= 1.58D+00 BMatP= 2.20D-02
 IDIUse=1 WtCom= 1.00D+00 WtEn= 0.00D+00
 Coeff-Com:  0.101D+01-0.144D-01
 Coeff:      0.101D+01-0.144D-01
 Gap=     0.491 Goal=   None    Shift=    0.000
 Gap=     0.491 Goal=   None    Shift=    0.000
 RMSDP=1.62D-03 MaxDP=2.30D-02 DE= 3.38D-01 OVMax= 1.77D-01

 Cycle   3  Pass 1  IDiag  1:
 E= -78.1920711220925     Delta-E=       -0.343264237142 Rises=F Damp=F
 DIIS: error= 1.32D-03 at cycle   3 NSaved=   3.
 NSaved= 3 IEnMin= 3 EnMin= -78.1920711220925     IErMin= 3 ErrMin= 1.32D-03
 ErrMax= 1.32D-03  0.00D+00 EMaxC= 1.00D+00 BMatC= 3.07D-04 BMatP= 2.20D-02
 IDIUse=1 WtCom= 1.00D+00 WtEn= 0.00D+00
 Coeff-Com: -0.623D-01 0.950D-02 0.105D+01
 Coeff:     -0.623D-01 0.950D-02 0.105D+01
 Gap=     0.368 Goal=   None    Shift=    0.000
 Gap=     0.368 Goal=   None    Shift=    0.000
 RMSDP=2.11D-04 MaxDP=3.24D-03 DE=-3.43D-01 OVMax= 3.24D-03

 Cycle   4  Pass 1  IDiag  1:
 E= -78.1921770296289     Delta-E=       -0.000105907536 Rises=F Damp=F
 DIIS: error= 3.50D-04 at cycle   4 NSaved=   4.
 NSaved= 4 IEnMin= 4 EnMin= -78.1921770296289     IErMin= 4 ErrMin= 3.50D-04
 ErrMax= 3.50D-04  0.00D+00 EMaxC= 1.00D+00 BMatC= 5.25D-06 BMatP= 3.07D-04
 IDIUse=1 WtCom= 1.00D+00 WtEn= 0.00D+00
 Coeff-Com: -0.438D-02-0.980D-03 0.233D-02 0.100D+01
 Coeff:     -0.438D-02-0.980D-03 0.233D-02 0.100D+01
 Gap=     0.368 Goal=   None    Shift=    0.000
 Gap=     0.368 Goal=   None    Shift=    0.000
 RMSDP=3.30D-05 MaxDP=4.65D-04 DE=-1.06D-04 OVMax= 8.97D-04

 Cycle   5  Pass 1  IDiag  1:
 E= -78.1921790896694     Delta-E=       -0.000002060041 Rises=F Damp=F
 DIIS: error= 3.14D-05 at cycle   5 NSaved=   5.
 NSaved= 5 IEnMin= 5 EnMin= -78.1921790896694     IErMin= 5 ErrMin= 3.14D-05
 ErrMax= 3.14D-05  0.00D+00 EMaxC= 1.00D+00 BMatC= 1.40D-07 BMatP= 5.25D-06
 IDIUse=1 WtCom= 1.00D+00 WtEn= 0.00D+00
 Coeff-Com:  0.888D-03-0.178D-03-0.244D-01 0.539D-01 0.970D+00
 Coeff:      0.888D-03-0.178D-03-0.244D-01 0.539D-01 0.970D+00
 Gap=     0.368 Goal=   None    Shift=    0.000
 Gap=     0.368 Goal=   None    Shift=    0.000
 RMSDP=3.77D-06 MaxDP=2.78D-05 DE=-2.06D-06 OVMax= 1.05D-04

 Cycle   6  Pass 1  IDiag  1:
 E= -78.1921791468715     Delta-E=       -0.000000057202 Rises=F Damp=F
 DIIS: error= 4.19D-06 at cycle   6 NSaved=   6.
 NSaved= 6 IEnMin= 6 EnMin= -78.1921791468715     IErMin= 6 ErrMin= 4.19D-06
 ErrMax= 4.19D-06  0.00D+00 EMaxC= 1.00D+00 BMatC= 9.72D-10 BMatP= 1.40D-07
 IDIUse=1 WtCom= 1.00D+00 WtEn= 0.00D+00
 Coeff-Com:  0.149D-04 0.202D-04 0.142D-02-0.168D-01-0.733D-01 0.109D+01
 Coeff:      0.149D-04 0.202D-04 0.142D-02-0.168D-01-0.733D-01 0.109D+01
 Gap=     0.368 Goal=   None    Shift=    0.000
 Gap=     0.368 Goal=   None    Shift=    0.000
 RMSDP=9.11D-07 MaxDP=1.14D-05 DE=-5.72D-08 OVMax= 1.90D-05

 Cycle   7  Pass 1  IDiag  1:
 E= -78.1921791475858     Delta-E=       -0.000000000714 Rises=F Damp=F
 DIIS: error= 2.17D-07 at cycle   7 NSaved=   7.
 NSaved= 7 IEnMin= 7 EnMin= -78.1921791475858     IErMin= 7 ErrMin= 2.17D-07
 ErrMax= 2.17D-07  0.00D+00 EMaxC= 1.00D+00 BMatC= 6.80D-12 BMatP= 9.72D-10
 IDIUse=1 WtCom= 1.00D+00 WtEn= 0.00D+00
 Coeff-Com: -0.797D-05-0.781D-06 0.304D-04 0.103D-02 0.399D-02-0.115D+00
 Coeff-Com:  0.111D+01
 Coeff:     -0.797D-05-0.781D-06 0.304D-04 0.103D-02 0.399D-02-0.115D+00
 Coeff:      0.111D+01
 Gap=     0.368 Goal=   None    Shift=    0.000
 Gap=     0.368 Goal=   None    Shift=    0.000
 RMSDP=8.61D-08 MaxDP=1.20D-06 DE=-7.14D-10 OVMax= 1.11D-06

 Cycle   8  Pass 1  IDiag  1:
 E= -78.1921791475899     Delta-E=       -0.000000000004 Rises=F Damp=F
 DIIS: error= 2.89D-08 at cycle   8 NSaved=   8.
 NSaved= 8 IEnMin= 8 EnMin= -78.1921791475899     IErMin= 8 ErrMin= 2.89D-08
 ErrMax= 2.89D-08  0.00D+00 EMaxC= 1.00D+00 BMatC= 3.61D-14 BMatP= 6.80D-12
 IDIUse=1 WtCom= 1.00D+00 WtEn= 0.00D+00
 Coeff-Com:  0.203D-06-0.370D-07-0.805D-05 0.290D-04 0.203D-03-0.113D-02
 Coeff-Com: -0.503D-01 0.105D+01
 Coeff:      0.203D-06-0.370D-07-0.805D-05 0.290D-04 0.203D-03-0.113D-02
 Coeff:     -0.503D-01 0.105D+01
 Gap=     0.368 Goal=   None    Shift=    0.000
 Gap=     0.368 Goal=   None    Shift=    0.000
 RMSDP=7.04D-09 MaxDP=1.16D-07 DE=-4.08D-12 OVMax= 1.02D-07

 SCF Done:  E(UM062X) =  -78.1921791476     A.U. after    8 cycles
            NFock=  8  Conv=0.70D-08     -V/T= 1.9735
 <Sx>= 0.0000 <Sy>= 0.0000 <Sz>= 0.0000 <S**2>=-0.0000 S=-0.0000
 <L.S>=  0.00000000000    
 KE= 8.032196703173D+01 PE=-2.628035937178D+02 EE= 6.432490446296D+01
 Annihilation of the first spin contaminant:
 S**2 before annihilation    -0.0000,   after     0.0000
 Leave Link  502 at Tue Nov 19 10:23:13 2024, MaxMem=   536870912 cpu:              42.8 elap:               5.5
 (Enter /home/szhao/Apps/g16/l701.exe)
 ... and contract with generalized density number  0.
 Compute integral first derivatives.
 Leave Link  701 at Tue Nov 19 10:23:13 2024, MaxMem=   536870912 cpu:               0.7 elap:               0.1
 (Enter /home/szhao/Apps/g16/l702.exe)
 L702 exits ... SP integral derivatives will be done elsewhere.
 Leave Link  702 at Tue Nov 19 10:23:13 2024, MaxMem=   536870912 cpu:               0.3 elap:               0.0
 (Enter /home/szhao/Apps/g16/l703.exe)
 Integral derivatives from FoFJK, PRISM(SPDF).
 Compute integral first derivatives, UseDBF=F ICtDFT=           0.
 Calling FoFJK, ICntrl=      2127 FMM=F ISym2X=0 I1Cent= 0 IOpClX= 1 NMat=1 NMatS=1 NMatT=0.
 FoFJK:  IHMeth= 1 ICntrl=    2127 DoSepK=F KAlg= 0 I1Cent=           0 FoldK=F
 IRaf=         0 NMat=       1 IRICut=       1 DoRegI=T DoRafI=F ISym2E= 0 IDoP0=0 IntGTp=1.
 FoFCou: FMM=F IPFlag=           0 FMFlag=      100000 FMFlg1=         800
         NFxFlg=           0 DoJE=F BraDBF=F KetDBF=F FulRan=T
         wScrn=  0.000000 ICntrl=      2127 IOpCl=  1 I1Cent=           0 NGrid=           0
         NMat0=    1 NMatS0=      1 NMatT0=    0 NMatD0=    1 NMtDS0=    0 NMtDT0=    0
 Symmetry not used in FoFCou.
 Leave Link  703 at Tue Nov 19 10:23:14 2024, MaxMem=   536870912 cpu:               9.2 elap:               1.2
 (Enter /home/szhao/Apps/g16/l716.exe)
 Dipole        = 1.89626093D-13 1.86517468D-14-3.49655807D-14
 -------------------------------------------------------------------
 Center     Atomic                   Forces (Hartrees/Bohr)
 Number     Number              X              Y              Z
 -------------------------------------------------------------------
      1        6          -0.000000000   -0.000000000   -0.000000000
      2        6          -0.000000000   -0.000000000   -0.000000000
      3        1           0.002755506    0.011296159   -0.000000000
      4        1           0.002660289   -0.011186829   -0.000000000
      5        1          -0.002755506   -0.011296159    0.000000000
      6        1          -0.002660289    0.011186829    0.000000000
 -------------------------------------------------------------------
 Cartesian Forces:  Max     0.011296159 RMS     0.005450976
 Leave Link  716 at Tue Nov 19 10:23:14 2024, MaxMem=   536870912 cpu:               0.3 elap:               0.0
 (Enter /home/szhao/Apps/g16/l103.exe)

 GradGradGradGradGradGradGradGradGradGradGradGradGradGradGradGradGradGrad
 Berny optimization.
 Using GEDIIS/GDIIS optimizer.
 FormGI is forming the generalized inverse of G from B-inverse, IUseBI=4.
 Internal  Forces:  Max     0.010789473 RMS     0.005612653
 Search for a local minimum.
 Step number   3 out of a maximum of   30
 All quantities printed in internal units (Hartrees-Bohrs-Radians)
 RMS Force = .63884D-02 SwitMx=.10000D-02 MixMth= 1
 Mixed Optimization -- RFO/linear search
 Update second derivatives using D2CorX and points    2    3
 The second derivative matrix:
                          X1        Y1        Z1        X2        Y2
           X1           0.67084
           Y1           0.00279   0.50005
           Z1          -0.00000  -0.00000   0.50000
           X2          -0.17084  -0.00279   0.00000   0.67084
           Y2          -0.00279  -0.00005   0.00000   0.00279   0.50005
           Z2           0.00000   0.00000  -0.00000  -0.00000  -0.00000
           R1          -0.08424  -0.00138   0.00000   0.08424   0.00138
           R2          -0.08157  -0.00133   0.00000   0.08157   0.00133
           R3          -0.08424  -0.00138   0.00000   0.08424   0.00138
           R4          -0.08157  -0.00133   0.00000   0.08157   0.00133
           A1          -0.03217  -0.00053   0.00000   0.03217   0.00053
           A2          -0.03268  -0.00053   0.00000   0.03268   0.00053
           A3           0.06484   0.00106  -0.00000  -0.06484  -0.00106
           A4          -0.03217  -0.00053   0.00000   0.03217   0.00053
           A5          -0.03268  -0.00053   0.00000   0.03268   0.00053
           A6           0.06484   0.00106  -0.00000  -0.06484  -0.00106
           D1          -0.00000  -0.00000   0.00000   0.00000   0.00000
           D2          -0.00000  -0.00000   0.00000   0.00000   0.00000
           D3           0.00000   0.00000  -0.00000  -0.00000  -0.00000
           D4          -0.00000  -0.00000   0.00000   0.00000   0.00000
                          Z2        R1        R2        R3        R4
           Z2           0.50000
           R1          -0.00000   0.44934
           R2          -0.00000  -0.01572   0.44624
           R3          -0.00000  -0.01677  -0.01572   0.44934
           R4          -0.00000  -0.01572  -0.01472  -0.01572   0.44624
           A1          -0.00000  -0.00401  -0.00370  -0.00401  -0.00370
           A2          -0.00000  -0.00412  -0.00381  -0.00412  -0.00381
           A3           0.00000   0.00812   0.00751   0.00812   0.00751
           A4          -0.00000  -0.00401  -0.00370  -0.00401  -0.00370
           A5          -0.00000  -0.00412  -0.00381  -0.00412  -0.00381
           A6           0.00000   0.00812   0.00751   0.00812   0.00751
           D1          -0.00000   0.00000   0.00000   0.00000   0.00000
           D2          -0.00000   0.00000   0.00000   0.00000   0.00000
           D3           0.00000  -0.00000  -0.00000  -0.00000  -0.00000
           D4          -0.00000   0.00000   0.00000   0.00000   0.00000
                          A1        A2        A3        A4        A5
           A1           0.15929
           A2          -0.00074   0.15923
           A3           0.00145   0.00151   0.15704
           A4          -0.00071  -0.00074   0.00145   0.15929
           A5          -0.00074  -0.00077   0.00151  -0.00074   0.15923
           A6           0.00145   0.00151  -0.00296   0.00145   0.00151
           D1           0.00000   0.00000  -0.00000   0.00000   0.00000
           D2           0.00000   0.00000  -0.00000   0.00000   0.00000
           D3          -0.00000  -0.00000   0.00000  -0.00000  -0.00000
           D4           0.00000   0.00000  -0.00000   0.00000   0.00000
                          A6        D1        D2        D3        D4
           A6           0.15704
           D1          -0.00000   0.08157
           D2          -0.00000   0.00000   0.08157
           D3           0.00000  -0.00000  -0.00000   0.08157
           D4          -0.00000   0.00000   0.00000  -0.00000   0.08157
 ITU=  0  1  0
 Use linear search instead of GDIIS.
     Eigenvalues ---    0.08157   0.08157   0.08157   0.14822   0.16000
     Eigenvalues ---    0.16000   0.16000   0.40350   0.46096   0.46349
     Eigenvalues ---    0.466111000.000001000.000001000.000001000.00000
     Eigenvalues --- 1000.000001000.000001000.000001000.000001000.00000
 RFO step:  Lambda=-1.66903098D-03 EMin= 8.15676527D-02
 Quartic linear search produced a step of -0.01581.
 Iteration  1 RMS(Cart)=  0.01952979 RMS(Int)=  0.00020619
 Iteration  2 RMS(Cart)=  0.00022401 RMS(Int)=  0.00000003
 Iteration  3 RMS(Cart)=  0.00000003 RMS(Int)=  0.00000000
 ITry= 1 IFail=0 DXMaxC= 4.12D-02 DCOld= 1.00D+10 DXMaxT= 5.05D-01 DXLimC= 3.00D+00 Rises=F
 Variable       Old X    -DE/DX   Delta X   Delta X   Delta X     New X
                                 (Linear)    (Quad)   (Total)
    X1       -0.88938   0.00542   0.00000   0.00000   0.00000  -0.88938
    Y1        0.00000   0.00008   0.00000   0.00000   0.00000   0.00000
    Z1        0.00000  -0.00000   0.00000   0.00000   0.00000   0.00000
    X2        0.88938  -0.00542   0.00000   0.00000   0.00000   0.88938
    Y2        0.00000  -0.00008   0.00000   0.00000   0.00000   0.00000
    Z2        0.00000   0.00000   0.00000   0.00000   0.00000   0.00000
    R1        2.11068  -0.01079  -0.00212  -0.02273  -0.02485   2.08583
    R2        2.11016  -0.01065  -0.00206  -0.02267  -0.02473   2.08544
    R3        2.11068  -0.01079  -0.00212  -0.02273  -0.02485   2.08583
    R4        2.11016  -0.01065  -0.00206  -0.02267  -0.02473   2.08544
    A1        2.19202   0.00304  -0.00210   0.01912   0.01702   2.20903
    A2        2.19200   0.00307  -0.00214   0.01929   0.01715   2.20914
    A3        1.89917  -0.00611   0.00424  -0.03841  -0.03417   1.86501
    A4        2.19202   0.00304  -0.00210   0.01912   0.01702   2.20903
    A5        2.19200   0.00307  -0.00214   0.01929   0.01715   2.20914
    A6        1.89917  -0.00611   0.00424  -0.03841  -0.03417   1.86501
    D1        3.14159  -0.00000   0.00000  -0.00000   0.00000   3.14159
    D2        0.00000  -0.00000   0.00000  -0.00000  -0.00000   0.00000
    D3       -0.00000   0.00000   0.00000   0.00000   0.00000   0.00000
    D4        3.14159  -0.00000   0.00000  -0.00000   0.00000   3.14159
         Item               Value     Threshold  Converged?
 Maximum Force            0.010789     0.000450     NO 
 RMS     Force            0.006388     0.000300     NO 
 Maximum Displacement     0.041167     0.001800     NO 
 RMS     Displacement     0.019488     0.001200     NO 
[...]
           A2          -0.02715  -0.00040   0.00000   0.02715   0.00040
           A3           0.05397   0.00079  -0.00000  -0.05397  -0.00079
           A4          -0.02682  -0.00039   0.00000   0.02682   0.00039
           A5          -0.02715  -0.00040   0.00000   0.02715   0.00040
           A6           0.05397   0.00079  -0.00000  -0.05397  -0.00079
           D1           0.00000   0.00000   0.00000  -0.00000  -0.00000
           D2           0.00000   0.00000   0.00000  -0.00000  -0.00000
           D3          -0.00000  -0.00000  -0.00000   0.00000   0.00000
           D4           0.00000   0.00000   0.00000  -0.00000  -0.00000
                          Z2        R1        R2        R3        R4
           Z2           0.50000
           R1           0.00000   0.43075
           R2           0.00000  -0.03283   0.43056
           R3           0.00000  -0.03536  -0.03283   0.43075
           R4           0.00000  -0.03283  -0.03040  -0.03283   0.43056
           A1          -0.00000  -0.00003  -0.00013  -0.00003  -0.00013
           A2          -0.00000  -0.00035  -0.00043  -0.00035  -0.00043
           A3           0.00000   0.00038   0.00056   0.00038   0.00056
           A4          -0.00000  -0.00003  -0.00013  -0.00003  -0.00013
           A5          -0.00000  -0.00035  -0.00043  -0.00035  -0.00043
           A6           0.00000   0.00038   0.00056   0.00038   0.00056
           D1          -0.00000  -0.00000  -0.00000  -0.00000  -0.00000
           D2          -0.00000  -0.00000  -0.00000  -0.00000  -0.00000
           D3           0.00000   0.00000   0.00000   0.00000   0.00000
           D4          -0.00000  -0.00000  -0.00000  -0.00000  -0.00000
                          A1        A2        A3        A4        A5
           A1           0.15867
           A2          -0.00130   0.15873
           A3           0.00264   0.00258   0.15478
           A4          -0.00133  -0.00130   0.00264   0.15867
           A5          -0.00130  -0.00127   0.00258  -0.00130   0.15873
           A6           0.00264   0.00258  -0.00522   0.00264   0.00258
           D1           0.00000   0.00000  -0.00000   0.00000   0.00000
           D2           0.00000   0.00000  -0.00000   0.00000   0.00000
           D3          -0.00000  -0.00000   0.00000  -0.00000  -0.00000
           D4           0.00000   0.00000  -0.00000   0.00000   0.00000
                          A6        D1        D2        D3        D4
           A6           0.15478
           D1          -0.00000   0.08157
           D2          -0.00000   0.00000   0.08157
           D3           0.00000  -0.00000  -0.00000   0.08157
           D4          -0.00000   0.00000   0.00000  -0.00000   0.08157
 ITU=  1  1  0  1  0
 Use linear search instead of GDIIS.
     Eigenvalues ---    0.08157   0.08157   0.08157   0.14433   0.16000
     Eigenvalues ---    0.16000   0.16000   0.33209   0.46096   0.46347
     Eigenvalues ---    0.466111000.000001000.000001000.000001000.00000
     Eigenvalues --- 1000.000001000.000001000.000001000.000001000.00000
 RFO step:  Lambda=-4.98700000D-08 EMin= 8.15676527D-02
 Quartic linear search produced a step of -0.00651.
 Iteration  1 RMS(Cart)=  0.00012962 RMS(Int)=  0.00000001
 Iteration  2 RMS(Cart)=  0.00000001 RMS(Int)=  0.00000000
 ITry= 1 IFail=0 DXMaxC= 3.08D-04 DCOld= 1.00D+10 DXMaxT= 5.05D-01 DXLimC= 3.00D+00 Rises=F
 Variable       Old X    -DE/DX   Delta X   Delta X   Delta X     New X
                                 (Linear)    (Quad)   (Total)
    X1       -0.88938  -0.00010   0.00000   0.00000   0.00000  -0.88938
    Y1        0.00000   0.00004   0.00000   0.00000   0.00000   0.00000
    Z1        0.00000  -0.00000   0.00000   0.00000   0.00000   0.00000
    X2        0.88938   0.00010   0.00000   0.00000   0.00000   0.88938
    Y2        0.00000  -0.00004   0.00000   0.00000   0.00000   0.00000
    Z2        0.00000   0.00000   0.00000   0.00000   0.00000   0.00000
    R1        2.07719   0.00003   0.00006   0.00006   0.00011   2.07730
    R2        2.07705   0.00007   0.00005   0.00013   0.00019   2.07724
    R3        2.07719   0.00003   0.00006   0.00006   0.00011   2.07730
    R4        2.07705   0.00007   0.00005   0.00013   0.00019   2.07724
    A1        2.21333   0.00002  -0.00003   0.00017   0.00014   2.21348
    A2        2.21344   0.00001  -0.00003   0.00011   0.00008   2.21352
    A3        1.85642  -0.00003   0.00006  -0.00028  -0.00023   1.85619
    A4        2.21333   0.00002  -0.00003   0.00017   0.00014   2.21348
    A5        2.21344   0.00001  -0.00003   0.00011   0.00008   2.21352
    A6        1.85642  -0.00003   0.00006  -0.00028  -0.00023   1.85619
    D1        3.14159  -0.00000   0.00000  -0.00000   0.00000   3.14159
    D2        0.00000  -0.00000   0.00000  -0.00000  -0.00000   0.00000
    D3       -0.00000   0.00000   0.00000   0.00000   0.00000   0.00000
    D4        3.14159  -0.00000   0.00000  -0.00000   0.00000   3.14159
         Item               Value     Threshold  Converged?
 Maximum Force            0.000067     0.000450     YES
 RMS     Force            0.000032     0.000300     YES
 Maximum Displacement     0.000308     0.001800     YES
 RMS     Displacement     0.000130     0.001200     YES
 Predicted change in Energy=-2.765541D-08
 Optimization completed.
    -- Stationary point found.
                           ----------------------------
                           !   Optimized Parameters   !
                           ! (Angstroms and Degrees)  !
 --------------------------                            --------------------------
 ! Name  Definition              Value          Derivative Info.                !
 --------------------------------------------------------------------------------
 ! X1    R(1,-1)                -0.4706         -DE/DX =   -0.0001              !
 ! Y1    R(1,-2)                 0.0            -DE/DX =    0.0                 !
 ! Z1    R(1,-3)                 0.0            -DE/DX =    0.0                 !
 ! X2    R(2,-1)                 0.4706         -DE/DX =    0.0001              !
 ! Y2    R(2,-2)                 0.0            -DE/DX =    0.0                 !
 ! Z2    R(2,-3)                 0.0            -DE/DX =    0.0                 !
 ! R1    R(1,3)                  1.0992         -DE/DX =    0.0                 !
 ! R2    R(1,4)                  1.0991         -DE/DX =    0.0001              !
 ! R3    R(2,5)                  1.0992         -DE/DX =    0.0                 !
 ! R4    R(2,6)                  1.0991         -DE/DX =    0.0001              !
 ! A1    A(2,1,3)              126.8145         -DE/DX =    0.0                 !
 ! A2    A(2,1,4)              126.8207         -DE/DX =    0.0                 !
 ! A3    A(3,1,4)              106.3648         -DE/DX =    0.0                 !
 ! A4    A(1,2,5)              126.8145         -DE/DX =    0.0                 !
 ! A5    A(1,2,6)              126.8207         -DE/DX =    0.0                 !
 ! A6    A(5,2,6)              106.3648         -DE/DX =    0.0                 !
 ! D1    D(3,1,2,5)            180.0            -DE/DX =    0.0                 !
 ! D2    D(3,1,2,6)              0.0            -DE/DX =    0.0                 !
 ! D3    D(4,1,2,5)              0.0            -DE/DX =    0.0                 !
 ! D4    D(4,1,2,6)            180.0            -DE/DX =    0.0                 !
 --------------------------------------------------------------------------------
 Lowest energy point so far.  Saving SCF results.
 Largest change from initial coordinates is atom    4       0.261 Angstoms.
 GradGradGradGradGradGradGradGradGradGradGradGradGradGradGradGradGradGrad

 Leave Link  103 at Tue Nov 19 10:23:27 2024, MaxMem=   536870912 cpu:               0.0 elap:               0.0
 (Enter /home/szhao/Apps/g16/l202.exe)
                          Input orientation:                          
 ---------------------------------------------------------------------
 Center     Atomic      Atomic             Coordinates (Angstroms)
 Number     Number       Type             X           Y           Z
 ---------------------------------------------------------------------
      1          6           0       -0.470639    0.000000    0.000000
      2          6           0        0.470639    0.000000    0.000000
      3          1           0       -1.129308   -0.879997    0.000000
      4          1           0       -1.129362    0.879869    0.000000
      5          1           0        1.129308    0.879997   -0.000000
      6          1           0        1.129362   -0.879869   -0.000000
 ---------------------------------------------------------------------
                    Distance matrix (angstroms):
                    1          2          3          4          5
     1  C    0.000000
     2  C    0.941278   0.000000
     3  H    1.099199   1.825986   0.000000
     4  H    1.099129   1.825972   1.759866   0.000000
     5  H    1.825986   1.099199   2.863376   2.258670   0.000000
     6  H    1.825972   1.099129   2.258670   2.863305   1.759866
                    6
     6  H    0.000000
 Symmetry turned off by external request.
 Stoichiometry    C2H4
 Framework group  C2H[SGH(C2H4)]
 Deg. of freedom     5
 Full point group                 C2H     NOp   4
 Rotational constants (GHZ):         161.9097438          48.3267575          37.2179563
 Leave Link  202 at Tue Nov 19 10:23:27 2024, MaxMem=   536870912 cpu:               0.0 elap:               0.0
 (Enter /home/szhao/Apps/g16/l601.exe)
 Copying SCF densities to generalized density rwf, IOpCl= 1 IROHF=0.

 **********************************************************************

            Population analysis using the SCF density.

 **********************************************************************

 Alpha  occ. eigenvalues --  -10.49208 -10.47002  -0.94980  -0.62295  -0.59078
 Alpha  occ. eigenvalues --   -0.53305  -0.43773  -0.33363
 Alpha virt. eigenvalues --    0.03256   0.04141   0.04266   0.06530   0.07350
 Alpha virt. eigenvalues --    0.08929   0.09843   0.16096   0.17393   0.18363
 Alpha virt. eigenvalues --    0.20403   0.25061   0.34923   0.42171   0.42790
 Alpha virt. eigenvalues --    0.47573   0.51545   0.51580   0.59327   0.62557
 Alpha virt. eigenvalues --    0.72323   0.75896   0.78028   0.81758   0.86385
 Alpha virt. eigenvalues --    1.01667   1.23940   1.30246   1.31501   1.34716
 Alpha virt. eigenvalues --    1.56767   1.58578   1.69309   1.73785   1.75565
 Alpha virt. eigenvalues --    1.76117   1.80273   1.95840   2.11794   2.20425
 Alpha virt. eigenvalues --    2.20867   2.32869   2.35338   2.46086   2.50654
 Alpha virt. eigenvalues --    2.57220   2.59391   2.66637   2.70994   2.78524
 Alpha virt. eigenvalues --    2.81463   2.99785   3.49161   3.50928   3.52519
 Alpha virt. eigenvalues --    3.73848   3.98314   4.12079  24.07993  25.75205
  Beta  occ. eigenvalues --  -10.49208 -10.47002  -0.94980  -0.62295  -0.59078
  Beta  occ. eigenvalues --   -0.53305  -0.43773  -0.33363
  Beta virt. eigenvalues --    0.03256   0.04141   0.04266   0.06530   0.07350
  Beta virt. eigenvalues --    0.08929   0.09843   0.16096   0.17393   0.18363
  Beta virt. eigenvalues --    0.20403   0.25061   0.34923   0.42171   0.42790
  Beta virt. eigenvalues --    0.47573   0.51545   0.51580   0.59327   0.62557
  Beta virt. eigenvalues --    0.72323   0.75896   0.78028   0.81758   0.86385
  Beta virt. eigenvalues --    1.01667   1.23940   1.30246   1.31501   1.34716
  Beta virt. eigenvalues --    1.56767   1.58578   1.69309   1.73785   1.75565
  Beta virt. eigenvalues --    1.76117   1.80273   1.95840   2.11794   2.20425
  Beta virt. eigenvalues --    2.20867   2.32869   2.35338   2.46086   2.50654
  Beta virt. eigenvalues --    2.57220   2.59391   2.66637   2.70994   2.78524
  Beta virt. eigenvalues --    2.81463   2.99785   3.49161   3.50928   3.52519
  Beta virt. eigenvalues --    3.73848   3.98314   4.12079  24.07993  25.75205
          Condensed to atoms (all electrons):
               1          2          3          4          5          6
     1  C    4.809576   0.690837   0.409903   0.409914  -0.034165  -0.034151
     2  C    0.690837   4.809576  -0.034165  -0.034151   0.409903   0.409914
     3  H    0.409903  -0.034165   0.567746  -0.051814   0.015491  -0.033107
     4  H    0.409914  -0.034151  -0.051814   0.567704  -0.033107   0.015487
     5  H   -0.034165   0.409903   0.015491  -0.033107   0.567746  -0.051814
     6  H   -0.034151   0.409914  -0.033107   0.015487  -0.051814   0.567704
          Atomic-Atomic Spin Densities.
               1          2          3          4          5          6
     1  C   -0.000000  -0.000000   0.000000  -0.000000   0.000000  -0.000000
     2  C   -0.000000   0.000000  -0.000000   0.000000  -0.000000   0.000000
     3  H    0.000000  -0.000000  -0.000000   0.000000   0.000000   0.000000
     4  H   -0.000000   0.000000   0.000000   0.000000  -0.000000  -0.000000
     5  H    0.000000  -0.000000   0.000000  -0.000000   0.000000  -0.000000
     6  H   -0.000000   0.000000   0.000000  -0.000000  -0.000000  -0.000000
 Mulliken charges and spin densities:
               1          2
     1  C   -0.251914  -0.000000
     2  C   -0.251914   0.000000
     3  H    0.125947   0.000000
     4  H    0.125967   0.000000
     5  H    0.125947  -0.000000
     6  H    0.125967  -0.000000
 Sum of Mulliken charges =  -0.00000   0.00000
 Mulliken charges and spin densities with hydrogens summed into heavy atoms:
               1          2
     1  C   -0.000000  -0.000000
     2  C    0.000000   0.000000
 Electronic spatial extent (au):  <R**2>=             67.7835
 Charge=             -0.0000 electrons
 Dipole moment (field-independent basis, Debye):
    X=             -0.0000    Y=             -0.0000    Z=             -0.0000  Tot=              0.0000
 Quadrupole moment (field-independent basis, Debye-Ang):
   XX=            -12.5552   YY=            -12.4111   ZZ=            -14.0577
   XY=             -0.0003   XZ=             -0.0000   YZ=             -0.0000
 Traceless Quadrupole moment (field-independent basis, Debye-Ang):
   XX=              0.4528   YY=              0.5969   ZZ=             -1.0497
   XY=             -0.0003   XZ=             -0.0000   YZ=             -0.0000
 Octapole moment (field-independent basis, Debye-Ang**2):
  XXX=              0.0000  YYY=             -0.0000  ZZZ=              0.0000  XYY=             -0.0000
  XXY=             -0.0000  XXZ=             -0.0000  XZZ=             -0.0000  YZZ=              0.0000
  YYZ=             -0.0000  XYZ=              0.0000
 Hexadecapole moment (field-independent basis, Debye-Ang**3):
 XXXX=            -52.4062 YYYY=            -27.6480 ZZZZ=            -14.5029 XXXY=             -0.0018
 XXXZ=              0.0000 YYYX=             -0.0012 YYYZ=              0.0000 ZZZX=              0.0000
 ZZZY=              0.0000 XXYY=            -12.4219 XXZZ=            -11.6948 YYZZ=             -7.5345
 XXYZ=              0.0000 YYXZ=             -0.0000 ZZXY=             -0.0005
 N-N= 4.018819327345D+01 E-N=-2.633121573077D+02  KE= 8.040790367341D+01
                          Isotropic Fermi Contact Couplings
        Atom                 a.u.       MegaHertz       Gauss      10(-4) cm-1
     1  C(13)             -0.00000      -0.00000      -0.00000      -0.00000
     2  C(13)             -0.00000      -0.00000      -0.00000      -0.00000
     3  H(1)              -0.00000      -0.00000      -0.00000      -0.00000
     4  H(1)              -0.00000      -0.00000      -0.00000      -0.00000
     5  H(1)               0.00000       0.00000       0.00000       0.00000
     6  H(1)               0.00000       0.00000       0.00000       0.00000
 --------------------------------------------------------
       Center         ----  Spin Dipole Couplings  ----
                      3XX-RR        3YY-RR        3ZZ-RR
 --------------------------------------------------------
     1   Atom       -0.000000      0.000000     -0.000000
     2   Atom        0.000000     -0.000000     -0.000000
     3   Atom       -0.000000      0.000000     -0.000000
     4   Atom        0.000000      0.000000     -0.000000
     5   Atom        0.000000     -0.000000      0.000000
     6   Atom        0.000000     -0.000000      0.000000
 --------------------------------------------------------
                        XY            XZ            YZ
 --------------------------------------------------------
     1   Atom        0.000000     -0.000000     -0.000000
     2   Atom       -0.000000     -0.000000     -0.000000
     3   Atom        0.000000      0.000000      0.000000
     4   Atom       -0.000000     -0.000000      0.000000
     5   Atom       -0.000000      0.000000      0.000000
     6   Atom        0.000000      0.000000     -0.000000
 --------------------------------------------------------


 ---------------------------------------------------------------------------------
              Anisotropic Spin Dipole Couplings in Principal Axis System
 ---------------------------------------------------------------------------------

       Atom             a.u.   MegaHertz   Gauss  10(-4) cm-1        Axes

              Baa    -0.0000    -0.000    -0.000    -0.000  0.4381  0.0801  0.8953
     1 C(13)  Bbb    -0.0000    -0.000    -0.000    -0.000  0.8984 -0.0718 -0.4332
              Bcc     0.0000     0.000     0.000     0.000  0.0296  0.9942 -0.1034
 
              Baa    -0.0000    -0.000    -0.000    -0.000  0.1436  0.9875  0.0655
     2 C(13)  Bbb    -0.0000    -0.000    -0.000    -0.000  0.0393 -0.0718  0.9966
              Bcc     0.0000     0.000     0.000     0.000  0.9889 -0.1406 -0.0491
 
              Baa    -0.0000    -0.000    -0.000    -0.000  0.9726 -0.2317 -0.0205
     3 H(1)   Bbb    -0.0000    -0.000    -0.000    -0.000  0.0175 -0.0150  0.9997
              Bcc     0.0000     0.000     0.000     0.000  0.2319  0.9727  0.0105
 
              Baa    -0.0000    -0.000    -0.000    -0.000  0.1493  0.0976  0.9840
     4 H(1)   Bbb    -0.0000    -0.000    -0.000    -0.000  0.8037  0.5677 -0.1782
              Bcc     0.0000     0.000     0.000     0.000 -0.5760  0.8174  0.0063
 
              Baa    -0.0000    -0.000    -0.000    -0.000  0.2154  0.9763 -0.0210
     5 H(1)   Bbb     0.0000     0.000     0.000     0.000 -0.0412  0.0306  0.9987
              Bcc     0.0000     0.000     0.000     0.000  0.9757 -0.2143  0.0469
 
              Baa    -0.0000    -0.000    -0.000    -0.000 -0.5071  0.8618  0.0143
     6 H(1)   Bbb     0.0000     0.000     0.000     0.000  0.8619  0.5071  0.0049
              Bcc     0.0000     0.000     0.000     0.000  0.0031 -0.0148  0.9999
 

 ---------------------------------------------------------------------------------

 No NMR shielding tensors so no spin-rotation constants.
 Leave Link  601 at Tue Nov 19 10:23:27 2024, MaxMem=   536870912 cpu:               1.4 elap:               0.2
 (Enter /home/szhao/Apps/g16/l9999.exe)
 1\1\GINC-NODE01\FOpt\UM062X\6-311+G(d,p)\C2H4\SZHAO\19-Nov-2024\0\\#p 
 opt UM062X/6-311+G** nosymm int=superfine\\Title Card Required\\0,1\C,
 -0.47063912,0.,0.\C,0.47063912,0.,0.\H,-1.1293083103,-0.8799965531,0.0
 000000008\H,-1.1293620274,0.8798691786,0.0000000006\H,1.1293083103,0.8
 799965531,-0.0000000008\H,1.1293620274,-0.8798691786,-0.0000000006\\Ve
 rsion=ES64L-G16RevA.03\HF=-78.1932978\S2=0.\S2-1=0.\S2A=0.\RMSD=1.782e
 -09\RMSF=2.726e-05\Dipole=0.,0.,0.\Quadrupole=0.336632,0.4438177,-0.78
 04497,-0.0002201,0.,0.\PG=C02H [SGH(C2H4)]\\@


  THE LARGE PRINT GIVETH,
  AND THE SMALL PRINT TAKETH AWAY.

                     -- TOM WAITS
 Job cpu time:       0 days  0 hours  4 minutes 41.7 seconds.
 Elapsed time:       0 days  0 hours  0 minutes 35.8 seconds.
 File lengths (MBytes):  RWF=     10 Int=      0 D2E=      0 Chk=      2 Scr=      1
 Normal termination of Gaussian 16 at Tue Nov 19 10:23:27 2024.
