Title Card Required                                                     
FOpt      UM062X                                                      6-311+G(d,p)        
Number of atoms                            I                6
Info1-9                                    I   N=           9
          15          15           0           0           0         110
           2          18        -502
Full Title                                 C   N=           2
Title Card Required     
Route                                      C   N=           5
#p opt UM062X/6-311+G** nosymm int=superfine SCF=NoVarAcc   
Charge                                     I                1
Multiplicity                               I                2
Number of electrons                        I               15
Number of alpha electrons                  I                8
Number of beta electrons                   I                7
Number of basis functions                  I               68
Number of independent functions            I               68
Number of point charges in /Mol/           I                0
Number of translation vectors              I                0
Atomic numbers                             I   N=           6
           6           6           1           1           1           1
Nuclear charges                            R   N=           6
  6.00000000E+00  6.00000000E+00  1.00000000E+00  1.00000000E+00  1.00000000E+00
  1.00000000E+00
Current cartesian coordinates              R   N=          18
 -2.94046487E+00  0.00000000E+00  0.00000000E+00  2.94046487E+00  0.00000000E+00
  0.00000000E+00 -3.64395194E+00 -1.92819899E+00  1.16057012E-06 -3.64390962E+00
  1.92821693E+00  1.16357271E-06  3.64395229E+00  1.92819888E+00 -1.31363824E-06
  3.64390998E+00 -1.92821682E+00 -1.31069336E-06
Number of symbols in /Mol/                 I                0
Force Field                                I                0
Atom Types                                 C   N=           6
                                                            
            
Int Atom Types                             I   N=           6
           0           0           0           0           0           0
MM charges                                 R   N=           6
  0.00000000E+00  0.00000000E+00  0.00000000E+00  0.00000000E+00  0.00000000E+00
  0.00000000E+00
Integer atomic weights                     I   N=           6
          12          12           1           1           1           1
Real atomic weights                        R   N=           6
  1.20000000E+01  1.20000000E+01  1.00782504E+00  1.00782504E+00  1.00782504E+00
  1.00782504E+00
Atom fragment info                         I   N=           6
           0           0           0           0           0           0
Atom residue num                           I   N=           6
           0           0           0           0           0           0
Nuclear spins                              I   N=           6
           0           0           1           1           1           1
Nuclear ZEff                               R   N=           6
 -3.60000000E+00 -3.60000000E+00 -1.00000000E+00 -1.00000000E+00 -1.00000000E+00
 -1.00000000E+00
Nuclear ZNuc                               R   N=           6
  6.00000000E+00  6.00000000E+00  1.00000000E+00  1.00000000E+00  1.00000000E+00
  1.00000000E+00
Nuclear QMom                               R   N=           6
  0.00000000E+00  0.00000000E+00  0.00000000E+00  0.00000000E+00  0.00000000E+00
  0.00000000E+00
Nuclear GFac                               R   N=           6
  0.00000000E+00  0.00000000E+00  2.79284600E+00  2.79284600E+00  2.79284600E+00
  2.79284600E+00
MicOpt                                     I   N=           6
          -2          -2          -1          -1          -1          -1
Number of residues                         I                0
Number of secondary structures             I                0
Redundant internal dimensions              I   N=           4
          20          10           6           4
Redundant internal coordinate indices      I   N=          80
           1          -1           0           0           1          -2
           0           0           1          -3           0           0
           2          -1           0           0           2          -2
           0           0           2          -3           0           0
           1           3           0           0           1           4
           0           0           2           5           0           0
           2           6           0           0           2           1
           3           0           2           1           4           0
           3           1           4           0           1           2
           5           0           1           2           6           0
           5           2           6           0           3           1
           2           5           3           1           2           6
           4           1           2           5           4           1
           2           6
Redundant internal coordinates             R   N=          20
 -2.94046487E+00  0.00000000E+00  0.00000000E+00  2.94046487E+00  0.00000000E+00
  0.00000000E+00  2.05252172E+00  2.05252406E+00  2.05252174E+00  2.05252408E+00
  1.92063133E+00  1.92060897E+00  2.44194500E+00  1.92063151E+00  1.92060915E+00
  2.44194464E+00  3.14159257E+00  1.28167312E-06 -1.28470135E-06 -3.14159258E+00
ZRed-IntVec                                I   N=          20
          -1          -1          -1          -1          -1          -1
           0           0           0           0           0           0
           0           0           0           0           0           0
           0           0
ZRed-FPVec                                 R   N=          20
  0.00000000E+00  0.00000000E+00  0.00000000E+00  0.00000000E+00  0.00000000E+00
  0.00000000E+00  0.00000000E+00  0.00000000E+00  0.00000000E+00  0.00000000E+00
  0.00000000E+00  0.00000000E+00  0.00000000E+00  0.00000000E+00  0.00000000E+00
  0.00000000E+00  0.00000000E+00  0.00000000E+00  0.00000000E+00  0.00000000E+00
ZRed-Constraint1                           R   N=          20
 -2.94046487E+00  0.00000000E+00  0.00000000E+00  2.94046487E+00  0.00000000E+00
  0.00000000E+00  2.05067934E+00  2.05048469E+00  2.05067934E+00  2.05048469E+00
  1.98162443E+00  1.98155420E+00  2.32000667E+00  1.98162443E+00  1.98155420E+00
  2.32000667E+00  3.14159265E+00  0.00000000E+00  0.00000000E+00  3.14159265E+00
ZRed-Constraint2                           R   N=          20
 -2.94046487E+00  0.00000000E+00  0.00000000E+00  2.94046487E+00  0.00000000E+00
  0.00000000E+00  0.00000000E+00  0.00000000E+00  0.00000000E+00  0.00000000E+00
  0.00000000E+00  0.00000000E+00  0.00000000E+00  0.00000000E+00  0.00000000E+00
  0.00000000E+00  0.00000000E+00  0.00000000E+00  0.00000000E+00  0.00000000E+00
Number of contracted shells                I               28
Number of primitive shells                 I               50
Pure/Cartesian d shells                    I                0
Pure/Cartesian f shells                    I                0
Highest angular momentum                   I                2
Largest degree of contraction              I                6
Shell types                                I   N=          28
           0          -1          -1          -1          -1          -2
           0          -1          -1          -1          -1          -2
           0           0           0           1           0           0
           0           1           0           0           0           1
           0           0           0           1
Number of primitives per shell             I   N=          28
           6           3           1           1           1           1
           6           3           1           1           1           1
           3           1           1           1           3           1
           1           1           3           1           1           1
           3           1           1           1
Shell to atom map                          I   N=          28
           1           1           1           1           1           1
           2           2           2           2           2           2
           3           3           3           3           4           4
           4           4           5           5           5           5
           6           6           6           6
Primitive exponents                        R   N=          50
  4.56324000E+03  6.82024000E+02  1.54973000E+02  4.44553000E+01  1.30290000E+01
  1.82773000E+00  2.09642000E+01  4.80331000E+00  1.45933000E+00  4.83456000E-01
  1.45585000E-01  4.38000000E-02  6.26000000E-01  4.56324000E+03  6.82024000E+02
  1.54973000E+02  4.44553000E+01  1.30290000E+01  1.82773000E+00  2.09642000E+01
  4.80331000E+00  1.45933000E+00  4.83456000E-01  1.45585000E-01  4.38000000E-02
  6.26000000E-01  3.38650000E+01  5.09479000E+00  1.15879000E+00  3.25840000E-01
  1.02741000E-01  7.50000000E-01  3.38650000E+01  5.09479000E+00  1.15879000E+00
  3.25840000E-01  1.02741000E-01  7.50000000E-01  3.38650000E+01  5.09479000E+00
  1.15879000E+00  3.25840000E-01  1.02741000E-01  7.50000000E-01  3.38650000E+01
  5.09479000E+00  1.15879000E+00  3.25840000E-01  1.02741000E-01  7.50000000E-01
Contraction coefficients                   R   N=          50
  1.96665025E-03  1.52306019E-02  7.61269097E-02  2.60801033E-01  6.16462078E-01
  2.21006028E-01  1.14660081E-01  9.19999648E-01 -3.03068213E-03  1.00000000E+00
  1.00000000E+00  1.00000000E+00  1.00000000E+00  1.96665025E-03  1.52306019E-02
  7.61269097E-02  2.60801033E-01  6.16462078E-01  2.21006028E-01  1.14660081E-01
  9.19999648E-01 -3.03068213E-03  1.00000000E+00  1.00000000E+00  1.00000000E+00
  1.00000000E+00  2.54938145E-02  1.90373109E-01  8.52161486E-01  1.00000000E+00
  1.00000000E+00  1.00000000E+00  2.54938145E-02  1.90373109E-01  8.52161486E-01
  1.00000000E+00  1.00000000E+00  1.00000000E+00  2.54938145E-02  1.90373109E-01
  8.52161486E-01  1.00000000E+00  1.00000000E+00  1.00000000E+00  2.54938145E-02
  1.90373109E-01  8.52161486E-01  1.00000000E+00  1.00000000E+00  1.00000000E+00
P(S=P) Contraction coefficients            R   N=          50
  0.00000000E+00  0.00000000E+00  0.00000000E+00  0.00000000E+00  0.00000000E+00
  0.00000000E+00  4.02486927E-02  2.37593957E-01  8.15853851E-01  1.00000000E+00
  1.00000000E+00  1.00000000E+00  0.00000000E+00  0.00000000E+00  0.00000000E+00
  0.00000000E+00  0.00000000E+00  0.00000000E+00  0.00000000E+00  4.02486927E-02
  2.37593957E-01  8.15853851E-01  1.00000000E+00  1.00000000E+00  1.00000000E+00
  0.00000000E+00  0.00000000E+00  0.00000000E+00  0.00000000E+00  0.00000000E+00
  0.00000000E+00  0.00000000E+00  0.00000000E+00  0.00000000E+00  0.00000000E+00
  0.00000000E+00  0.00000000E+00  0.00000000E+00  0.00000000E+00  0.00000000E+00
  0.00000000E+00  0.00000000E+00  0.00000000E+00  0.00000000E+00  0.00000000E+00
  0.00000000E+00  0.00000000E+00  0.00000000E+00  0.00000000E+00  0.00000000E+00
Coordinates of each shell                  R   N=          84
 -2.94046487E+00  0.00000000E+00  0.00000000E+00 -2.94046487E+00  0.00000000E+00
  0.00000000E+00 -2.94046487E+00  0.00000000E+00  0.00000000E+00 -2.94046487E+00
  0.00000000E+00  0.00000000E+00 -2.94046487E+00  0.00000000E+00  0.00000000E+00
 -2.94046487E+00  0.00000000E+00  0.00000000E+00  2.94046487E+00  0.00000000E+00
  0.00000000E+00  2.94046487E+00  0.00000000E+00  0.00000000E+00  2.94046487E+00
  0.00000000E+00  0.00000000E+00  2.94046487E+00  0.00000000E+00  0.00000000E+00
  2.94046487E+00  0.00000000E+00  0.00000000E+00  2.94046487E+00  0.00000000E+00
  0.00000000E+00 -3.64395194E+00 -1.92819899E+00  1.16057012E-06 -3.64395194E+00
 -1.92819899E+00  1.16057012E-06 -3.64395194E+00 -1.92819899E+00  1.16057012E-06
 -3.64395194E+00 -1.92819899E+00  1.16057012E-06 -3.64390962E+00  1.92821693E+00
  1.16357271E-06 -3.64390962E+00  1.92821693E+00  1.16357271E-06 -3.64390962E+00
  1.92821693E+00  1.16357271E-06 -3.64390962E+00  1.92821693E+00  1.16357271E-06
  3.64395229E+00  1.92819888E+00 -1.31363824E-06  3.64395229E+00  1.92819888E+00
 -1.31363824E-06  3.64395229E+00  1.92819888E+00 -1.31363824E-06  3.64395229E+00
  1.92819888E+00 -1.31363824E-06  3.64390998E+00 -1.92821682E+00 -1.31069336E-06
  3.64390998E+00 -1.92821682E+00 -1.31069336E-06  3.64390998E+00 -1.92821682E+00
 -1.31069336E-06  3.64390998E+00 -1.92821682E+00 -1.31069336E-06
Num ILSW                                   I              100
ILSW                                       I   N=         100
           1           0           0           1           2           0
           0           0           0           0        4336          -1
           7           0           0           0           2           0
           0           0           0           0           1           0
           1           1           0           0           0           0
           0           0      100000           0          -1           0
           0           0           0           0           0           0
           0           0           0           1           0           0
           0 -2000000000           1           0           0           0
           0           0           4          52           0           0
           0           0          55           0           0           0
           0           0           0           6           0           1
           0           0           0           0           0           0
           0           0           0           0           0           0
           0           0           0           0           0           0
           0           0           0           0           0           0
           0           0           0           0
Num RLSW                                   I               52
RLSW                                       R   N=          52
  1.00000000E+00  1.00000000E+00  1.00000000E+00  1.00000000E+00  5.40000000E-01
  0.00000000E+00  0.00000000E+00  1.00000000E+00  0.00000000E+00  0.00000000E+00
  0.00000000E+00  0.00000000E+00  1.00000000E+00  0.00000000E+00  0.00000000E+00
  0.00000000E+00  0.00000000E+00  1.00000000E+00  0.00000000E+00  0.00000000E+00
  0.00000000E+00  0.00000000E+00  1.00000000E+00  0.00000000E+00  0.00000000E+00
  0.00000000E+00  0.00000000E+00  1.00000000E+00  0.00000000E+00  0.00000000E+00
  0.00000000E+00  0.00000000E+00  1.00000000E+00  0.00000000E+00  0.00000000E+00
  0.00000000E+00  0.00000000E+00  0.00000000E+00  1.00000000E+00  1.00000000E+00
  0.00000000E+00  1.00000000E+00  0.00000000E+00  0.00000000E+00  0.00000000E+00
  0.00000000E+00  0.00000000E+00  0.00000000E+00  0.00000000E+00  0.00000000E+00
  0.00000000E+00  0.00000000E+00
MxBond                                     I                3
NBond                                      I   N=           6
           3           3           1           1           1           1
IBond                                      I   N=          18
           2           3           4           1           5           6
           1           0           0           1           0           0
           2           0           0           2           0           0
RBond                                      R   N=          18
  1.00000000E-01  1.00000000E+00  1.00000000E+00  1.00000000E-01  1.00000000E+00
  1.00000000E+00  1.00000000E+00  0.00000000E+00  0.00000000E+00  1.00000000E+00
  0.00000000E+00  0.00000000E+00  1.00000000E+00  0.00000000E+00  0.00000000E+00
  1.00000000E+00  0.00000000E+00  0.00000000E+00
Virial Ratio                               R      2.007755947635993E+00
SCF Energy                                 R     -7.788260850711396E+01
Total Energy                               R     -7.788260850711396E+01
S**2                                       R      7.525055500534155E-01
S**2 after annihilation                    R      7.500049637263559E-01
RMS Force                                  R      2.091685273585527E-05
RMS Density                                R      5.495197023107427E-09
Job Status                                 I                1
Nuclear derivative order                   I                1
External E-field                           R   N=          35
  0.00000000E+00  0.00000000E+00  0.00000000E+00  0.00000000E+00  0.00000000E+00
  0.00000000E+00  0.00000000E+00  0.00000000E+00  0.00000000E+00  0.00000000E+00
  0.00000000E+00  0.00000000E+00  0.00000000E+00  0.00000000E+00  0.00000000E+00
  0.00000000E+00  0.00000000E+00  0.00000000E+00  0.00000000E+00  0.00000000E+00
  0.00000000E+00  0.00000000E+00  0.00000000E+00  0.00000000E+00  0.00000000E+00
  0.00000000E+00  0.00000000E+00  0.00000000E+00  0.00000000E+00  0.00000000E+00
  0.00000000E+00  0.00000000E+00  0.00000000E+00  0.00000000E+00  0.00000000E+00
IOpCl                                      I                1
IROHF                                      I                0
Alpha Orbital Energies                     R   N=          68
 -1.09150783E+01 -1.09150380E+01 -1.01868089E+00 -1.00818913E+00 -7.90505093E-01
 -7.87420365E-01 -5.44203798E-01 -4.97579012E-01 -3.98386397E-01 -3.73253158E-01
 -1.29784280E-01 -1.04847425E-01 -1.04707447E-01 -7.53441503E-02 -7.42217099E-02
 -6.11298756E-02 -4.84712168E-02 -4.41828179E-02 -2.97904005E-02  1.57174945E-02
  2.09617439E-02  9.34299718E-02  2.20954927E-01  2.23646449E-01  2.40217098E-01
  3.24033189E-01  3.38176929E-01  3.47193503E-01  3.84026884E-01  4.30246496E-01
  4.50202387E-01  4.57894385E-01  5.20134097E-01  5.77720602E-01  8.08866120E-01
  8.09870989E-01  1.00351344E+00  1.01140383E+00  1.03328711E+00  1.04460179E+00
  1.09823094E+00  1.10663914E+00  1.27102601E+00  1.27292152E+00  1.44435394E+00
  1.44624884E+00  1.61391330E+00  1.61732612E+00  1.63436926E+00  1.65966692E+00
  1.80931029E+00  1.80981972E+00  2.15817187E+00  2.21568874E+00  2.24361168E+00
  2.27877141E+00  2.31021224E+00  2.36753190E+00  2.44965758E+00  2.46162438E+00
  2.46247144E+00  2.47568572E+00  2.72364875E+00  2.74805254E+00  3.35308932E+00
  3.37483579E+00  2.35188153E+01  2.35242765E+01
Beta Orbital Energies                      R   N=          68
 -1.09123835E+01 -1.09123600E+01 -9.90943823E-01 -9.82543713E-01 -7.86933128E-01
 -7.83915222E-01 -5.24375402E-01 -3.51332828E-01 -3.11010534E-01 -2.94621312E-01
 -1.39527949E-01 -1.08807142E-01 -1.07683457E-01 -7.39541803E-02 -7.32206784E-02
 -6.09718157E-02 -4.41771178E-02 -3.87886403E-02 -3.39698314E-02 -1.69945944E-03
  2.26146927E-02  1.02276420E-01  2.14249457E-01  2.25857200E-01  2.44573176E-01
  3.26025910E-01  3.34403058E-01  3.42783427E-01  3.83833128E-01  4.39129820E-01
  4.58823764E-01  4.72425078E-01  5.34453408E-01  5.78816286E-01  8.37532966E-01
  8.37621564E-01  1.03532725E+00  1.03668865E+00  1.05557860E+00  1.06125969E+00
  1.11980668E+00  1.12805825E+00  1.30205567E+00  1.30335701E+00  1.45866112E+00
  1.45947778E+00  1.62360941E+00  1.62495504E+00  1.64289331E+00  1.66897054E+00
  1.82313119E+00  1.82346816E+00  2.19080768E+00  2.25018457E+00  2.26380322E+00
  2.29602755E+00  2.32676958E+00  2.38160675E+00  2.48577436E+00  2.49115529E+00
  2.49662644E+00  2.51972563E+00  2.75776355E+00  2.77531778E+00  3.38676534E+00
  3.40868293E+00  2.35308807E+01  2.35363636E+01
Alpha MO coefficients                      R   N=        4624
  3.99027409E-01  3.28168048E-01  4.27709909E-04 -4.55996880E-09 -4.42022372E-10
  7.83442890E-03 -1.37880042E-03 -8.30848512E-11  2.24788484E-09 -1.78594880E-03
  2.68262754E-04  1.59642474E-08 -2.50000462E-10 -5.61632402E-04  1.63534555E-04
  1.55197818E-08 -4.71106972E-10 -9.23480526E-04 -4.18895905E-10  2.23396620E-12
 -1.28412664E-03  3.19584596E-08  3.98947935E-01  3.28102688E-01 -4.27634339E-04
  4.55899706E-09  5.54949382E-10  7.83285553E-03  1.37854601E-03  8.25284171E-11
 -2.56027983E-09 -1.78551924E-03 -2.68255546E-04 -1.59660001E-08  2.95061550E-10
 -5.61555910E-04 -1.63462448E-04 -1.55200525E-08  5.05709812E-10 -9.23302732E-04
 -4.89089105E-10 -2.02490658E-12 -1.28387418E-03  3.19517236E-08  7.13154487E-05
 -2.35274674E-03  1.49701418E-03 -6.37587988E-04 -1.41509331E-03  1.05246803E-09
  7.13192711E-05 -2.35273296E-03  1.49696063E-03 -6.37555087E-04  1.41509916E-03
  1.05468248E-09  7.13005474E-05 -2.35229013E-03  1.49670027E-03  6.37468655E-04
  1.41481809E-03 -1.18655261E-09  7.13043692E-05 -2.35227636E-03  1.49664672E-03
  6.37435760E-04 -1.41482394E-03 -1.18425074E-09 -3.98951693E-01 -3.28102432E-01
 -3.77480519E-04  4.97806826E-09  4.37863659E-10 -7.89690055E-03  1.27655362E-03
 -1.02827063E-09 -2.25263598E-09  2.16138081E-03 -3.47692112E-05  9.08901309E-09
  3.44646249E-10  3.79732231E-04 -3.64699714E-04  1.95004106E-09  2.95770326E-10
  8.91076107E-04  4.00376750E-10 -2.14490764E-12  1.26326039E-03 -3.27003361E-08
  3.99031165E-01  3.28167792E-01 -3.77565354E-04  4.97900050E-09  5.50010701E-10
  7.89846061E-03  1.27682824E-03 -1.02903268E-09 -2.55715394E-09 -2.16173719E-03
 -3.48225503E-05  9.08589496E-09  3.90821640E-10 -3.79844005E-04 -3.64732494E-04
  1.94715119E-09  3.56858452E-10 -8.91259815E-04 -4.70915862E-10 -1.94787999E-12
 -1.26351540E-03  3.27064756E-08 -7.57682006E-05  2.28941520E-03 -1.57519066E-03
  5.99155197E-04  1.37955006E-03 -1.02572534E-09 -7.57702271E-05  2.28938704E-03
 -1.57518723E-03  5.99120158E-04 -1.37955287E-03 -1.02787856E-09  7.57826100E-05
 -2.28988343E-03  1.57548881E-03  5.99282250E-04  1.37983154E-03 -1.15687042E-09
  7.57846372E-05 -2.28985527E-03  1.57548537E-03  5.99247204E-04 -1.37983436E-03
 -1.15461978E-09 -8.06713219E-02 -1.31695450E-01 -2.07982969E-02  2.84811594E-08
  3.18818394E-08  3.71081282E-01 -3.00983554E-02  9.98562375E-08  4.80532967E-08
  2.47364794E-01 -7.13757279E-03 -4.75918042E-08  1.77646533E-08  1.09797444E-03
 -1.44876737E-03 -1.55509300E-07  5.27907860E-09 -4.15414310E-03  2.23659799E-09
  1.25444349E-11 -8.35615622E-03  2.11846633E-07 -8.06710390E-02 -1.31694984E-01
  2.07982214E-02 -2.84916105E-08 -3.59900853E-08  3.71079964E-01  3.00982223E-02
 -9.98676003E-08 -5.35892265E-08  2.47363923E-01  7.13753592E-03  4.75882561E-08
 -2.03878369E-08  1.09802004E-03  1.44874291E-03  1.55508932E-07 -5.66862721E-09
 -4.15412337E-03  1.93153076E-09 -1.25533218E-11 -8.35611366E-03  2.11845006E-07
  7.43847741E-02  8.39747673E-02 -5.54449084E-03  3.30106146E-03  1.20831877E-02
 -4.93711457E-09  7.43844413E-02  8.39743744E-02 -5.54409658E-03  3.30078024E-03
 -1.20832121E-02 -4.95575446E-09  7.43845091E-02  8.39744781E-02 -5.54448200E-03
 -3.30105673E-03 -1.20831498E-02  5.63892462E-09  7.43841763E-02  8.39740852E-02
 -5.54408774E-03 -3.30077551E-03  1.20831742E-02  5.62051532E-09  8.05011585E-02
  1.31431742E-01  2.87186135E-02 -3.49957179E-08 -3.57004667E-08 -3.70957687E-01
  4.52192013E-02 -1.19359618E-07 -5.43956138E-08 -2.44739317E-01  1.43109448E-02
 -1.96046865E-07 -2.05987700E-08  8.91573250E-03  6.05688292E-03 -2.38649438E-08
 -2.43733604E-09  4.49455505E-03 -1.64505239E-09 -1.38062109E-11  1.00811287E-02
 -2.21425928E-07 -8.05014381E-02 -1.31432195E-01  2.87187090E-02 -3.50070150E-08
 -3.99920771E-08  3.70958960E-01  4.52193262E-02 -1.19372680E-07 -6.03229210E-08
  2.44740163E-01  1.43109827E-02 -1.96050726E-07 -2.31465482E-08 -8.91572468E-03
  6.05688875E-03 -2.38650829E-08 -2.91174583E-09 -4.49456538E-03  1.27734677E-09
 -1.37152668E-11 -1.00811496E-02  2.21425695E-07 -7.69439832E-02 -8.75407313E-02
  3.69088193E-03 -2.75699015E-03 -1.21254630E-02  4.72128875E-09 -7.69435681E-02
 -8.75401082E-02  3.69094963E-03 -2.75667148E-03  1.21254498E-02  4.74029742E-09
  7.69442466E-02  8.75410416E-02 -3.69090336E-03 -2.75700723E-03 -1.21255100E-02
  5.42264153E-09  7.69438314E-02  8.75404186E-02 -3.69097106E-03 -2.75668856E-03
  1.21254968E-02  5.40381183E-09 -1.17461148E-07 -1.96059713E-07  1.66752783E-06
  1.61770553E-01  1.23291908E-10  5.76108829E-07  2.26929342E-06  2.28462859E-01
  1.74660079E-10  6.12717799E-07  1.18981419E-06  1.19260845E-01  8.82658115E-11
  2.82508880E-07  1.47537526E-07  2.47930884E-03  4.10413821E-12  4.51821481E-09
 -1.04236003E-11  1.94185353E-08 -2.98202069E-07 -1.30031855E-02  1.17456091E-07
  1.96051080E-07  1.66749633E-06  1.61768050E-01 -1.21490146E-10 -5.76082255E-07
  2.26925087E-06  2.28459339E-01 -1.70911009E-10 -6.12686432E-07  1.18979058E-06
  1.19258936E-01 -8.81533504E-11 -2.82508262E-07  1.47535703E-07  2.47917479E-03
 -3.25753107E-12 -4.51778060E-09 -1.05976120E-11 -2.16960646E-08  2.98198295E-07
  1.30029841E-02 -1.06941137E-01 -1.47249950E-01 -1.65477572E-02 -7.43432520E-03
 -1.28969212E-02  1.10403102E-08  1.06941333E-01  1.47250289E-01  1.65476855E-02
  7.43401840E-03 -1.28971215E-02 -1.10604922E-08  1.06939482E-01  1.47247689E-01
  1.65476114E-02 -7.43421956E-03 -1.28967203E-02  1.24651039E-08 -1.06939679E-01
 -1.47248028E-01 -1.65475397E-02  7.43391277E-03 -1.28969206E-02 -1.24452478E-08
  7.54287983E-08  1.28016814E-07 -1.92868148E-06 -1.62731845E-01 -1.26930344E-10
 -3.91339860E-07 -2.68417969E-06 -2.28985038E-01 -1.80283047E-10 -4.18061001E-07
 -1.49776781E-06 -1.24594328E-01 -9.69455245E-11  1.68472016E-08 -1.22930639E-07
 -8.40690341E-03 -4.04594690E-12 -1.24344754E-08  1.01925497E-11 -2.02239712E-08
  2.77318957E-07  1.39664007E-02  7.54264488E-08  1.28012741E-07  1.92870653E-06
  1.62734320E-01 -1.25424402E-10 -3.91326856E-07  2.68421560E-06  2.28988536E-01
 -1.76849926E-10 -4.18045697E-07  1.49778679E-06  1.24596153E-01 -9.72390487E-11
  1.68433396E-08  1.22933273E-07  8.40693700E-03 -2.93295297E-12 -1.24343146E-08
 -1.04104350E-11 -2.25623315E-08  2.77323791E-07  1.39666121E-02  1.07828110E-01
  1.47762945E-01  1.06582358E-02  7.16781851E-03  1.28776504E-02 -1.09175778E-08
 -1.07828074E-01 -1.47762898E-01 -1.06584230E-02 -7.16752718E-03  1.28778240E-02
  1.09373615E-08  1.07829750E-01  1.47765215E-01  1.06585099E-02 -7.16793721E-03
 -1.28778453E-02  1.23337726E-08 -1.07829714E-01 -1.47765167E-01 -1.06586971E-02
  7.16764587E-03 -1.28780189E-02 -1.23142929E-08 -1.49942721E-02 -2.48868180E-02
  1.76697274E-01 -2.18171225E-06 -1.31444769E-07  6.60637997E-02  2.73773528E-01
 -3.39186021E-06 -1.90344365E-07  1.59200562E-01  2.61674927E-01 -2.15427481E-06
 -1.53850783E-07  1.84875680E-02  1.26456425E-02  5.74485181E-08 -1.35502620E-08
  3.83550925E-03  1.60631459E-08 -8.29501044E-12  4.21086243E-03 -3.54188151E-08
 -1.49942539E-02 -2.48867850E-02 -1.76697035E-01  2.18170982E-06  1.53035869E-07
  6.60636893E-02 -2.73773182E-01  3.39185389E-06  2.23919183E-07  1.59200417E-01
 -2.61674603E-01  2.15426885E-06  1.81539908E-07  1.84875854E-02 -1.26456478E-02
 -5.74485217E-08  1.50831792E-08  3.83550802E-03  1.70711711E-08  7.73632319E-12
  4.21086759E-03 -3.54185098E-08 -4.05811992E-02 -7.46251932E-02 -2.44233126E-02
  8.97465218E-03 -7.98000772E-03 -4.63091185E-09 -4.05815453E-02 -7.46264959E-02
 -2.44245154E-02  8.97481387E-03  7.97990477E-03 -4.61813351E-09 -4.05811698E-02
 -7.46251247E-02 -2.44233045E-02 -8.97463708E-03  7.97999623E-03  5.49820306E-09
 -4.05815159E-02 -7.46264273E-02 -2.44245073E-02 -8.97479878E-03 -7.97989328E-03
  5.51042066E-09  5.06756765E-08  8.63099960E-08 -9.15996402E-08 -1.56875765E-10
  1.96428330E-01 -2.70307784E-07 -1.22337365E-07 -2.46015571E-10  3.12030116E-01
 -3.61277866E-07 -1.09517695E-07 -2.16299018E-10  3.07379431E-01  3.80732743E-08
  1.74704274E-08 -8.50782548E-13  2.35475068E-02 -6.83791458E-09 -1.69605433E-03
  2.05068125E-08 -4.26342929E-09  3.36267389E-12 -5.32934667E-08 -9.08700387E-08
 -6.80691483E-08  1.54829273E-10  1.96428127E-01  2.86216683E-07 -8.50515895E-08
  2.45702428E-10  3.12029794E-01  3.74913372E-07 -7.17689746E-08  2.05077354E-10
  3.07379160E-01 -4.05515790E-08  2.06737493E-08 -6.77765387E-14  2.35475019E-02
  6.93766988E-09  1.69605746E-03 -2.05075918E-08  5.20415040E-09  3.05877833E-12
  7.95956232E-08  1.34299507E-07  4.08126302E-08 -5.00283637E-10  1.44983944E-08
  1.48753545E-02  7.95885718E-08  1.34271078E-07  4.07725782E-08 -5.00511916E-10
 -1.45185181E-08  1.48753441E-02 -8.28392231E-08 -1.38405714E-07 -4.23948553E-08
  1.48947046E-09  1.47037618E-08  1.48753384E-02 -8.28461227E-08 -1.38437596E-07
 -4.24487415E-08  1.48926797E-09 -1.46836715E-08  1.48753280E-02  2.10292677E-08
  3.67304596E-08  1.66919832E-07 -1.55021562E-10  2.02152073E-01 -1.21799611E-07
  2.82238478E-07 -2.44050812E-10  3.21143987E-01 -1.56428447E-07  2.82582396E-07
 -2.58542206E-10  3.12805562E-01  3.05325616E-09  3.38620745E-08 -2.84444284E-11
  3.37483465E-02  3.96619995E-09 -9.34993026E-03  2.92269462E-08 -6.30665140E-09
  4.82443727E-12  3.02129874E-08  5.22881633E-08 -1.38822778E-07 -1.47831721E-10
 -2.02152242E-01 -1.69947489E-07 -2.40120677E-07 -2.36285820E-10 -3.21144257E-01
 -2.27415987E-07 -2.44450817E-07 -2.36308383E-10 -3.12805876E-01 -1.79354456E-09
 -2.94852155E-08 -2.15754061E-11 -3.37483902E-02  1.65458438E-09 -9.34994181E-03
  2.92277336E-08 -6.61628226E-09 -4.32704347E-12  3.33533857E-08  5.98726225E-08
  2.51020453E-08  1.52871690E-08  6.11174516E-09  1.65481828E-02  3.33613677E-08
  5.98932502E-08  2.51271025E-08  1.52863357E-08 -6.13840859E-09  1.65481251E-02
  4.73406235E-08  8.47523927E-08  3.77999225E-08 -1.38988472E-08 -8.52486896E-09
 -1.65481964E-02  4.73326274E-08  8.47352100E-08  3.77988860E-08 -1.38995081E-08
  8.49899608E-09 -1.65481387E-02 -2.85839359E-02 -4.80113783E-02  1.97811512E-01
 -1.97511452E-06  8.87165704E-08  1.46000504E-01  3.01224088E-01 -3.14033794E-06
  1.61909724E-07  2.17474180E-01  3.07422143E-01 -3.05349102E-06  1.85417343E-07
  7.28010311E-02  6.21716264E-02 -3.98829584E-07  2.94526452E-08  1.06946784E-02
  1.42419114E-08 -9.16120390E-12 -7.15716683E-03 -4.81873900E-08  2.85839614E-02
  4.80114167E-02  1.97811647E-01 -1.97511780E-06  1.22534591E-07 -1.46000585E-01
  3.01224328E-01 -3.14034071E-06  2.16302522E-07 -2.17474465E-01  3.07422399E-01