Title Card Required                                                     
FOpt      UM062X                                                      6-311+G(d,p)        
Number of atoms                            I                6
Info1-9                                    I   N=           9
          15          15           0           0           0         110
           2          18        -502
Full Title                                 C   N=           2
Title Card Required     
Route                                      C   N=           6
#p opt UM062X/6-311+G** nosymm int=superfine SCF=NoVarAcc SC
F=tight     
Charge                                     I                1
Multiplicity                               I                2
Number of electrons                        I               15
Number of alpha electrons                  I                8
Number of beta electrons                   I                7
Number of basis functions                  I               68
Number of independent functions            I               68
Number of point charges in /Mol/           I                0
Number of translation vectors              I                0
Atomic numbers                             I   N=           6
           6           6           1           1           1           1
Nuclear charges                            R   N=           6
  6.00000000E+00  6.00000000E+00  1.00000000E+00  1.00000000E+00  1.00000000E+00
  1.00000000E+00
Current cartesian coordinates              R   N=          18
 -6.81440343E+00  0.00000000E+00  0.00000000E+00  6.81440343E+00  0.00000000E+00
  0.00000000E+00 -7.87890623E+00 -1.77856294E+00 -1.47320862E-10 -7.87878486E+00
  1.77863429E+00  1.33938933E-10  7.87890623E+00  1.77856294E+00  1.88161133E-10
  7.87878486E+00 -1.77863429E+00  4.69364066E-10
Number of symbols in /Mol/                 I                0
Force Field                                I                0
Atom Types                                 C   N=           6
                                                            
            
Int Atom Types                             I   N=           6
           0           0           0           0           0           0
MM charges                                 R   N=           6
  0.00000000E+00  0.00000000E+00  0.00000000E+00  0.00000000E+00  0.00000000E+00
  0.00000000E+00
Integer atomic weights                     I   N=           6
          12          12           1           1           1           1
Real atomic weights                        R   N=           6
  1.20000000E+01  1.20000000E+01  1.00782504E+00  1.00782504E+00  1.00782504E+00
  1.00782504E+00
Atom fragment info                         I   N=           6
           0           0           0           0           0           0
Atom residue num                           I   N=           6
           0           0           0           0           0           0
Nuclear spins                              I   N=           6
           0           0           1           1           1           1
Nuclear ZEff                               R   N=           6
 -3.60000000E+00 -3.60000000E+00 -1.00000000E+00 -1.00000000E+00 -1.00000000E+00
 -1.00000000E+00
Nuclear ZNuc                               R   N=           6
  6.00000000E+00  6.00000000E+00  1.00000000E+00  1.00000000E+00  1.00000000E+00
  1.00000000E+00
Nuclear QMom                               R   N=           6
  0.00000000E+00  0.00000000E+00  0.00000000E+00  0.00000000E+00  0.00000000E+00
  0.00000000E+00
Nuclear GFac                               R   N=           6
  0.00000000E+00  0.00000000E+00  2.79284600E+00  2.79284600E+00  2.79284600E+00
  2.79284600E+00
MicOpt                                     I   N=           6
          -2          -2          -1          -1          -1          -1
Number of residues                         I                0
Number of secondary structures             I                0
Redundant internal dimensions              I   N=           4
          20          10           6           4
Redundant internal coordinate indices      I   N=          80
           1          -1           0           0           1          -2
           0           0           1          -3           0           0
           2          -1           0           0           2          -2
           0           0           2          -3           0           0
           1           3           0           0           1           4
           0           0           2           5           0           0
           2           6           0           0           2           1
           3           0           2           1           4           0
           3           1           4           0           1           2
           5           0           1           2           6           0
           5           2           6           0           3           1
           2           5           3           1           2           6
           4           1           2           5           4           1
           2           6
Redundant internal coordinates             R   N=          20
 -6.81440343E+00  0.00000000E+00  0.00000000E+00  6.81440343E+00  0.00000000E+00
  0.00000000E+00  2.07278854E+00  2.07278744E+00  2.07278854E+00  2.07278744E+00
  2.11012577E+00  2.11005785E+00  2.06300169E+00  2.11012577E+00  2.11005785E+00
  2.06300169E+00  3.14159265E+00 -0.00000000E+00  0.00000000E+00  3.14159265E+00
ZRed-IntVec                                I   N=          20
          -1          -1          -1          -1          -1          -1
           0           0           0           0           0           0
           0           0           0           0           0           0
           0           0
ZRed-FPVec                                 R   N=          20
  0.00000000E+00  0.00000000E+00  0.00000000E+00  0.00000000E+00  0.00000000E+00
  0.00000000E+00  0.00000000E+00  0.00000000E+00  0.00000000E+00  0.00000000E+00
  0.00000000E+00  0.00000000E+00  0.00000000E+00  0.00000000E+00  0.00000000E+00
  0.00000000E+00  0.00000000E+00  0.00000000E+00  0.00000000E+00  0.00000000E+00
ZRed-Constraint1                           R   N=          20
 -6.81440343E+00  0.00000000E+00  0.00000000E+00  6.81440343E+00  0.00000000E+00
  0.00000000E+00  2.05067934E+00  2.05048469E+00  2.05067934E+00  2.05048469E+00
  1.98162443E+00  1.98155420E+00  2.32000667E+00  1.98162443E+00  1.98155420E+00
  2.32000667E+00  3.14159265E+00  0.00000000E+00  0.00000000E+00  3.14159265E+00
ZRed-Constraint2                           R   N=          20
 -6.81440343E+00  0.00000000E+00  0.00000000E+00  6.81440343E+00  0.00000000E+00
  0.00000000E+00  0.00000000E+00  0.00000000E+00  0.00000000E+00  0.00000000E+00
  0.00000000E+00  0.00000000E+00  0.00000000E+00  0.00000000E+00  0.00000000E+00
  0.00000000E+00  0.00000000E+00  0.00000000E+00  0.00000000E+00  0.00000000E+00
Number of contracted shells                I               28
Number of primitive shells                 I               50
Pure/Cartesian d shells                    I                0
Pure/Cartesian f shells                    I                0
Highest angular momentum                   I                2
Largest degree of contraction              I                6
Shell types                                I   N=          28
           0          -1          -1          -1          -1          -2
           0          -1          -1          -1          -1          -2
           0           0           0           1           0           0
           0           1           0           0           0           1
           0           0           0           1
Number of primitives per shell             I   N=          28
           6           3           1           1           1           1
           6           3           1           1           1           1
           3           1           1           1           3           1
           1           1           3           1           1           1
           3           1           1           1
Shell to atom map                          I   N=          28
           1           1           1           1           1           1
           2           2           2           2           2           2
           3           3           3           3           4           4
           4           4           5           5           5           5
           6           6           6           6
Primitive exponents                        R   N=          50
  4.56324000E+03  6.82024000E+02  1.54973000E+02  4.44553000E+01  1.30290000E+01
  1.82773000E+00  2.09642000E+01  4.80331000E+00  1.45933000E+00  4.83456000E-01
  1.45585000E-01  4.38000000E-02  6.26000000E-01  4.56324000E+03  6.82024000E+02
  1.54973000E+02  4.44553000E+01  1.30290000E+01  1.82773000E+00  2.09642000E+01
  4.80331000E+00  1.45933000E+00  4.83456000E-01  1.45585000E-01  4.38000000E-02
  6.26000000E-01  3.38650000E+01  5.09479000E+00  1.15879000E+00  3.25840000E-01
  1.02741000E-01  7.50000000E-01  3.38650000E+01  5.09479000E+00  1.15879000E+00
  3.25840000E-01  1.02741000E-01  7.50000000E-01  3.38650000E+01  5.09479000E+00
  1.15879000E+00  3.25840000E-01  1.02741000E-01  7.50000000E-01  3.38650000E+01
  5.09479000E+00  1.15879000E+00  3.25840000E-01  1.02741000E-01  7.50000000E-01
Contraction coefficients                   R   N=          50
  1.96665025E-03  1.52306019E-02  7.61269097E-02  2.60801033E-01  6.16462078E-01
  2.21006028E-01  1.14660081E-01  9.19999648E-01 -3.03068213E-03  1.00000000E+00
  1.00000000E+00  1.00000000E+00  1.00000000E+00  1.96665025E-03  1.52306019E-02
  7.61269097E-02  2.60801033E-01  6.16462078E-01  2.21006028E-01  1.14660081E-01
  9.19999648E-01 -3.03068213E-03  1.00000000E+00  1.00000000E+00  1.00000000E+00
  1.00000000E+00  2.54938145E-02  1.90373109E-01  8.52161486E-01  1.00000000E+00
  1.00000000E+00  1.00000000E+00  2.54938145E-02  1.90373109E-01  8.52161486E-01
  1.00000000E+00  1.00000000E+00  1.00000000E+00  2.54938145E-02  1.90373109E-01
  8.52161486E-01  1.00000000E+00  1.00000000E+00  1.00000000E+00  2.54938145E-02
  1.90373109E-01  8.52161486E-01  1.00000000E+00  1.00000000E+00  1.00000000E+00
P(S=P) Contraction coefficients            R   N=          50
  0.00000000E+00  0.00000000E+00  0.00000000E+00  0.00000000E+00  0.00000000E+00
  0.00000000E+00  4.02486927E-02  2.37593957E-01  8.15853851E-01  1.00000000E+00
  1.00000000E+00  1.00000000E+00  0.00000000E+00  0.00000000E+00  0.00000000E+00
  0.00000000E+00  0.00000000E+00  0.00000000E+00  0.00000000E+00  4.02486927E-02
  2.37593957E-01  8.15853851E-01  1.00000000E+00  1.00000000E+00  1.00000000E+00
  0.00000000E+00  0.00000000E+00  0.00000000E+00  0.00000000E+00  0.00000000E+00
  0.00000000E+00  0.00000000E+00  0.00000000E+00  0.00000000E+00  0.00000000E+00
  0.00000000E+00  0.00000000E+00  0.00000000E+00  0.00000000E+00  0.00000000E+00
  0.00000000E+00  0.00000000E+00  0.00000000E+00  0.00000000E+00  0.00000000E+00
  0.00000000E+00  0.00000000E+00  0.00000000E+00  0.00000000E+00  0.00000000E+00
Coordinates of each shell                  R   N=          84
 -6.81440343E+00  0.00000000E+00  0.00000000E+00 -6.81440343E+00  0.00000000E+00
  0.00000000E+00 -6.81440343E+00  0.00000000E+00  0.00000000E+00 -6.81440343E+00
  0.00000000E+00  0.00000000E+00 -6.81440343E+00  0.00000000E+00  0.00000000E+00
 -6.81440343E+00  0.00000000E+00  0.00000000E+00  6.81440343E+00  0.00000000E+00
  0.00000000E+00  6.81440343E+00  0.00000000E+00  0.00000000E+00  6.81440343E+00
  0.00000000E+00  0.00000000E+00  6.81440343E+00  0.00000000E+00  0.00000000E+00
  6.81440343E+00  0.00000000E+00  0.00000000E+00  6.81440343E+00  0.00000000E+00
  0.00000000E+00 -7.87890623E+00 -1.77856294E+00 -1.47320862E-10 -7.87890623E+00
 -1.77856294E+00 -1.47320862E-10 -7.87890623E+00 -1.77856294E+00 -1.47320862E-10
 -7.87890623E+00 -1.77856294E+00 -1.47320862E-10 -7.87878486E+00  1.77863429E+00
  1.33938933E-10 -7.87878486E+00  1.77863429E+00  1.33938933E-10 -7.87878486E+00
  1.77863429E+00  1.33938933E-10 -7.87878486E+00  1.77863429E+00  1.33938933E-10
  7.87890623E+00  1.77856294E+00  1.88161133E-10  7.87890623E+00  1.77856294E+00
  1.88161133E-10  7.87890623E+00  1.77856294E+00  1.88161133E-10  7.87890623E+00
  1.77856294E+00  1.88161133E-10  7.87878486E+00 -1.77863429E+00  4.69364066E-10
  7.87878486E+00 -1.77863429E+00  4.69364066E-10  7.87878486E+00 -1.77863429E+00
  4.69364066E-10  7.87878486E+00 -1.77863429E+00  4.69364066E-10
Num ILSW                                   I              100
ILSW                                       I   N=         100
           1           0           0           1           2           0
           0           0           0           0        4336          -1
           7           0           0           0           2           0
           0           0           0           0           1           0
           1           1           0           0           0           0
           0           0      100000           0          -1           0
           0           0           0           0           0           0
           0           0           0           1           0           0
           0 -2000000000           1           0           0           0
           0           0           4          52           0           0
           0           0          55           0           0           0
           0           0           0           6           0           1
           0           0           0           0           0           0
           0           0           0           0           0           0
           0           0           0           0           0           0
           0           0           0           0           0           0
           0           0           0           0
Num RLSW                                   I               52
RLSW                                       R   N=          52
  1.00000000E+00  1.00000000E+00  1.00000000E+00  1.00000000E+00  5.40000000E-01
  0.00000000E+00  0.00000000E+00  1.00000000E+00  0.00000000E+00  0.00000000E+00
  0.00000000E+00  0.00000000E+00  1.00000000E+00  0.00000000E+00  0.00000000E+00
  0.00000000E+00  0.00000000E+00  1.00000000E+00  0.00000000E+00  0.00000000E+00
  0.00000000E+00  0.00000000E+00  1.00000000E+00  0.00000000E+00  0.00000000E+00
  0.00000000E+00  0.00000000E+00  1.00000000E+00  0.00000000E+00  0.00000000E+00
  0.00000000E+00  0.00000000E+00  1.00000000E+00  0.00000000E+00  0.00000000E+00
  0.00000000E+00  0.00000000E+00  0.00000000E+00  1.00000000E+00  1.00000000E+00
  0.00000000E+00  1.00000000E+00  0.00000000E+00  0.00000000E+00  0.00000000E+00
  0.00000000E+00  0.00000000E+00  0.00000000E+00  0.00000000E+00  0.00000000E+00
  0.00000000E+00  0.00000000E+00
MxBond                                     I                3
NBond                                      I   N=           6
           3           3           1           1           1           1
IBond                                      I   N=          18
           2           3           4           1           5           6
           1           0           0           1           0           0
           2           0           0           2           0           0
RBond                                      R   N=          18
  1.00000000E-01  1.00000000E+00  1.00000000E+00  1.00000000E-01  1.00000000E+00
  1.00000000E+00  1.00000000E+00  0.00000000E+00  0.00000000E+00  1.00000000E+00
  0.00000000E+00  0.00000000E+00  1.00000000E+00  0.00000000E+00  0.00000000E+00
  1.00000000E+00  0.00000000E+00  0.00000000E+00
Virial Ratio                               R      2.003506173140951E+00
SCF Energy                                 R     -7.789526430499842E+01
Total Energy                               R     -7.789526430499842E+01
S**2                                       R      7.591706924044139E-01
S**2 after annihilation                    R      7.500100028543614E-01
RMS Force                                  R      1.123518163984647E-05
RMS Density                                R      8.846508163280134E-09
Job Status                                 I                1
Nuclear derivative order                   I                1
External E-field                           R   N=          35
  0.00000000E+00  0.00000000E+00  0.00000000E+00  0.00000000E+00  0.00000000E+00
  0.00000000E+00  0.00000000E+00  0.00000000E+00  0.00000000E+00  0.00000000E+00
  0.00000000E+00  0.00000000E+00  0.00000000E+00  0.00000000E+00  0.00000000E+00
  0.00000000E+00  0.00000000E+00  0.00000000E+00  0.00000000E+00  0.00000000E+00
  0.00000000E+00  0.00000000E+00  0.00000000E+00  0.00000000E+00  0.00000000E+00
  0.00000000E+00  0.00000000E+00  0.00000000E+00  0.00000000E+00  0.00000000E+00
  0.00000000E+00  0.00000000E+00  0.00000000E+00  0.00000000E+00  0.00000000E+00
IOpCl                                      I                1
IROHF                                      I                0
Alpha Orbital Energies                     R   N=          68
 -1.08615262E+01 -1.08615259E+01 -9.77206027E-01 -9.77203250E-01 -7.23478495E-01
 -7.23478333E-01 -5.52111591E-01 -5.52055664E-01 -2.94286923E-01 -2.94261946E-01
 -1.02558298E-01 -1.00341830E-01 -6.17509817E-02 -6.04220043E-02 -5.59385298E-02
 -4.38961718E-02 -3.76836260E-02 -1.88352674E-02  2.21591042E-02  2.43958720E-02
  2.51971452E-02  3.22044387E-02  2.85329607E-01  2.95930706E-01  2.97193865E-01
  2.98871623E-01  4.03200298E-01  4.03428766E-01  4.09736800E-01  4.41709569E-01
  4.45916740E-01  4.49500762E-01  5.27874547E-01  5.37995509E-01  8.69620748E-01
  8.69620871E-01  9.63745221E-01  9.64143942E-01  1.01029729E+00  1.01029820E+00
  1.25083861E+00  1.25205562E+00  1.32579928E+00  1.32608257E+00  1.49558836E+00
  1.50160312E+00  1.59836560E+00  1.59880257E+00  1.73717074E+00  1.73717086E+00
  1.85144525E+00  1.85494961E+00  2.19465171E+00  2.20610286E+00  2.27781419E+00
  2.27785347E+00  2.29537650E+00  2.29625957E+00  2.43149840E+00  2.43255298E+00
  2.51681900E+00  2.52094113E+00  2.70970937E+00  2.73743452E+00  3.47960245E+00
  3.47974303E+00  2.35293616E+01  2.35304906E+01
Beta Orbital Energies                      R   N=          68
 -1.08542336E+01 -1.08542320E+01 -9.55935899E-01 -9.55691822E-01 -7.13459880E-01
 -7.13456863E-01 -4.17399004E-01 -3.73875075E-01 -2.78241218E-01 -2.78135960E-01
 -1.05466115E-01 -1.03113300E-01 -6.76874743E-02 -6.08545685E-02 -6.06661073E-02
 -4.91028481E-02 -4.25909801E-02 -1.71751904E-02  2.25236028E-02  2.59010396E-02
  3.00120677E-02  3.70585542E-02  2.82914974E-01  2.92993365E-01  2.94371911E-01
  2.95645614E-01  4.03792283E-01  4.10229119E-01  4.24144444E-01  4.57774307E-01
  4.59449643E-01  4.61583119E-01  5.38851594E-01  5.51368146E-01  8.82193510E-01
  8.82193633E-01  9.87504461E-01  9.87646122E-01  1.02913607E+00  1.02924009E+00
  1.26086258E+00  1.26198707E+00  1.33748376E+00  1.33775783E+00  1.50827011E+00
  1.51430808E+00  1.60348357E+00  1.60391074E+00  1.74492583E+00  1.74492665E+00
  1.86188044E+00  1.86522558E+00  2.20665853E+00  2.21775639E+00  2.29276851E+00
  2.29311314E+00  2.32428220E+00  2.32511451E+00  2.44435058E+00  2.44557611E+00
  2.53100365E+00  2.53507258E+00  2.74458546E+00  2.77156563E+00  3.50683865E+00
  3.50695743E+00  2.35345359E+01  2.35356757E+01
Alpha MO coefficients                      R   N=        4624
  5.28382905E-01  4.34676839E-01 -7.84681667E-04  2.73700329E-08  2.56531876E-13
  1.05195187E-02 -1.79856047E-03  6.71080598E-08 -2.21394510E-13 -3.41091336E-03
  1.24833001E-04 -3.84637572E-09  1.64795489E-13 -7.15078424E-04  6.05907936E-04
 -1.88252221E-08 -3.81291399E-14 -1.04766155E-03  1.05886769E-13  2.47336947E-13
 -8.45698418E-04  5.43437749E-08 -1.97681665E-01 -1.62622901E-01 -2.99095943E-04
  1.05880506E-08 -3.57643985E-14 -3.94413338E-03 -6.51025776E-04  2.32701895E-08
 -2.05668831E-13  1.30622963E-03  3.20252486E-06  2.79753184E-10  1.59876018E-14
  2.20662142E-04  2.76576913E-04 -4.21515256E-09  6.62795395E-14  3.90315544E-04
 -1.14654920E-13  9.30798631E-14  3.13852638E-04 -2.06837776E-08  2.94081664E-04
 -2.78671123E-03  2.21638386E-03 -9.64904099E-04 -1.52583882E-03 -1.26161625E-13
  2.94079540E-04 -2.78671982E-03  2.21638326E-03 -9.64803568E-04  1.52590943E-03
  9.02873369E-14 -1.10201099E-04  1.03709581E-03 -8.17159167E-04 -3.58067247E-04
 -5.68356974E-04 -7.21665061E-14 -1.10199617E-04  1.03709401E-03 -8.17147567E-04
 -3.58029493E-04  5.68382588E-04 -1.52795902E-13  1.97681653E-01  1.62625006E-01
 -2.86244944E-04  9.77828848E-09  9.48113756E-14  3.92434292E-03 -7.01865799E-04
  2.75413513E-08 -8.04520080E-14 -1.23618790E-03  1.04363396E-04 -3.71726465E-09
  5.72121289E-14 -3.29651658E-04  1.60555059E-04 -1.07913176E-08 -9.77868812E-15
 -3.94133188E-04  3.92092686E-14  9.24666115E-14 -3.19770924E-04  1.98643395E-08
  5.28382900E-01  4.34677627E-01  7.79874800E-04 -2.70671178E-08  9.47911169E-14
  1.05121155E-02  1.81758064E-03 -6.87060018E-08  5.59265791E-13 -3.38470931E-03
 -1.62679687E-04  5.34174122E-09 -5.44510983E-14 -7.55854164E-04 -5.62501268E-04
  2.12855302E-08 -1.74524168E-13 -1.04908986E-03  3.05864128E-13 -2.47719688E-13
 -8.47912703E-04  5.40372036E-08  1.09788166E-04 -1.04985045E-03  8.45174857E-04
 -3.64876903E-04 -5.74167599E-04 -4.79603787E-14  1.09788282E-04 -1.04986032E-03
  8.45189707E-04 -3.64839480E-04  5.74195080E-04  3.41819259E-14  2.93927193E-04
 -2.79148317E-03  2.22686534E-03  9.67451841E-04  1.52801277E-03  1.95546851E-13
  2.93925666E-04 -2.79149613E-03  2.22687463E-03  9.67351433E-04 -1.52808408E-03
  4.11368696E-13 -8.11605135E-02 -1.31599944E-01 -3.58660188E-02  1.30379280E-06
  1.07629037E-11  3.71466308E-01 -5.19017572E-02  1.87375615E-06  1.99605075E-11
  2.37699840E-01 -2.12600608E-02  7.78158370E-07  6.05353450E-12  1.63055871E-03
 -3.47635305E-03  7.36927870E-08 -8.45297272E-13 -5.46333194E-03  4.27624894E-12
  9.31356185E-13 -3.40016235E-03  2.12803285E-07  7.71227811E-02  1.25052526E-01
 -3.40793203E-02  1.23878939E-06 -9.22476218E-12 -3.52979496E-01 -4.93321375E-02
  1.78150340E-06 -1.27498879E-11 -2.25898210E-01 -2.01652035E-02  7.38064748E-07
 -6.00767425E-12 -1.51486617E-03 -3.35407790E-03  6.77040718E-08 -5.79561630E-13
  5.19202197E-03 -2.20098578E-12  8.70205969E-13  3.23196611E-03 -2.01994411E-07
  7.96482457E-02  9.53281139E-02 -4.91353560E-03  5.69260722E-03  1.36105847E-02
  4.79570852E-13  7.96484012E-02  9.53282206E-02 -4.91342533E-03  5.69169160E-03
 -1.36109769E-02 -1.62510099E-12 -7.56854687E-02 -9.05857538E-02  4.66493487E-03
  5.40777718E-03  1.29325864E-02  7.32892685E-13 -7.56856168E-02 -9.05858519E-02
  4.66482094E-03  5.40690700E-03 -1.29329588E-02  2.67279703E-12 -7.71241073E-02
 -1.25061370E-01 -3.41288036E-02  1.24169734E-06  1.02284673E-11  3.53116679E-01
 -4.90757432E-02  1.76161939E-06  1.89573652E-11  2.25409187E-01 -2.09319290E-02
  7.66536212E-07  5.77285833E-12  2.22758689E-03 -2.30957060E-03  1.15579670E-07
 -8.39704625E-13 -5.18199254E-03  4.06338702E-12  8.82236984E-13 -3.21220446E-03
  2.06572722E-07 -8.11617660E-02 -1.31608334E-01  3.59130510E-02 -1.30655652E-06
  9.70688729E-12  3.71596596E-01  5.16581375E-02 -1.85486212E-06  1.34211111E-11
  2.37235157E-01  2.19886577E-02 -8.05213985E-07  6.29974707E-12  2.30782575E-03
  2.48380803E-03 -1.19186548E-07  6.74320513E-13 -5.45380033E-03  2.31500892E-12
 -9.12046583E-13 -3.38138421E-03  2.17153844E-07  7.56926746E-02  9.05832178E-02
 -4.75052457E-03  5.44132858E-03  1.29508002E-02  4.57018606E-13  7.56928159E-02
  9.05833820E-02 -4.75059910E-03  5.44046067E-03 -1.29511810E-02 -1.54578615E-12
  7.96550994E-02  9.53257187E-02 -4.99485779E-03 -5.72448909E-03 -1.36278923E-02
 -7.74063842E-13  7.96552485E-02  9.53258882E-02 -4.99492660E-03 -5.72357563E-03
  1.36282926E-02 -2.81777896E-12  5.61783637E-08  9.46020877E-08  7.19259367E-06
  2.12745431E-01  1.68213952E-11 -2.86770082E-07  1.07114937E-05  3.16148012E-01
  2.46802221E-11 -4.20842333E-07  5.36258865E-06  1.56511879E-01  1.30400568E-11
 -3.55257503E-08 -1.02402204E-07 -3.74369434E-03 -1.34367563E-12 -4.15803447E-09
 -2.40215611E-12  4.88263655E-12 -2.29726503E-06 -3.37074731E-02  1.81358711E-08
  3.04412867E-08 -2.32519513E-06 -6.87969809E-02  5.44588825E-12 -9.03827312E-08
 -3.46927803E-06 -1.02260209E-01  8.01239221E-12 -1.44425548E-07 -1.72018504E-06
 -5.06121415E-02  4.15964858E-12  4.79696734E-09  1.98035383E-08  1.39726214E-03
 -3.43101968E-13 -1.10624862E-09  7.84837936E-13 -2.93811298E-12 -7.43387214E-07
 -1.09129438E-02 -1.41793480E-01 -2.03170065E-01 -5.16970960E-02 -1.11381524E-02
 -1.01357820E-02 -6.63221164E-14  1.41793435E-01  2.03169999E-01  5.16972598E-02
  1.11374650E-02 -1.01365142E-02 -1.50135173E-12 -4.58612823E-02 -6.56328880E-02
 -1.69226965E-02  3.59819354E-03  3.27160367E-03  7.30647862E-13  4.58612679E-02
  6.56328678E-02  1.69227420E-02 -3.59797286E-03  3.27184084E-03 -1.28114884E-12
  1.82062966E-08  3.07805264E-08  2.32698596E-06  6.88020992E-02  5.44155868E-12
 -9.56433426E-08  3.45741357E-06  1.02211505E-01  7.97218027E-12 -1.25819242E-07
  1.75147920E-06  5.06163632E-02  4.23990859E-12 -3.15782914E-08 -4.95372351E-08
 -9.80480863E-04 -4.51389942E-13 -1.63875518E-09 -7.75622689E-13  1.57936976E-12
 -7.42315756E-07 -1.08853414E-02 -5.62011644E-08 -9.47118385E-08  7.19317222E-06
  2.12747066E-01 -1.68465712E-11  2.88471398E-07  1.07076561E-05  3.16132233E-01
 -2.47478351E-11  4.14825529E-07  5.37270904E-06  1.56513247E-01 -1.29445718E-11
  4.72891241E-08 -1.12017667E-07 -3.60891170E-03  1.13098814E-12  4.33023971E-09
 -2.42411955E-12  9.07280913E-12  2.29691879E-06  3.36985503E-02 -4.58456443E-02
 -6.57888665E-02 -1.64659672E-02 -3.60656692E-03 -3.28541657E-03 -2.21313951E-14
  4.58456300E-02  6.57888438E-02  1.64660294E-02  3.60634266E-03 -3.28565286E-03
 -4.86810316E-13  1.41788425E-01  2.03220519E-01  5.15494223E-02 -1.11408594E-02
 -1.01402468E-02 -2.26023604E-12 -1.41788381E-01 -2.03220453E-01 -5.15495916E-02
  1.11401709E-02 -1.01409787E-02  3.97069844E-12 -3.18113653E-02 -5.36412817E-02
  1.89395263E-01 -6.42349359E-06  6.51736175E-11  1.71100685E-01  2.85139544E-01
 -9.65828800E-06  1.04336902E-10  2.03170856E-01  2.31130714E-01 -7.72062049E-06
  8.24138496E-11  8.30537275E-03  1.09646499E-02 -3.05426814E-07 -7.40487895E-13
  1.29516494E-02  5.11244061E-12 -9.98090293E-13 -5.82377651E-03  4.02417507E-07
 -3.17188424E-02 -5.34852762E-02 -1.88844396E-01  6.40481202E-06 -5.64241705E-11
  1.70603199E-01 -2.84310765E-01  9.63023415E-06 -8.49849584E-11  2.02579364E-01
 -2.30457140E-01  7.69813441E-06 -6.81113072E-11  8.28160321E-03 -1.09347254E-02
  3.04468450E-07 -2.12765735E-12  1.29139745E-02 -7.11803743E-12  1.00488267E-12
 -5.80681583E-03  4.01257885E-07 -4.74187094E-02 -7.66194897E-02 -2.77051775E-02
  8.23495096E-03 -9.01000789E-03  3.12842116E-12 -4.74186935E-02 -7.66194823E-02
 -2.77053741E-02  8.23556758E-03  9.00944968E-03  4.40590422E-12 -4.72807973E-02
 -7.63969100E-02 -2.76243247E-02 -8.21105553E-03  8.98379723E-03 -2.94767486E-12
 -4.72807815E-02 -7.63969025E-02 -2.76245210E-02 -8.21167036E-03 -8.98324063E-03
 -1.71251694E-12 -3.17339195E-02 -5.35073018E-02  1.88928212E-01 -6.40714374E-06
  6.50137149E-11  1.70625024E-01  2.84242099E-01 -9.62150567E-06  1.04075991E-10
  2.02882030E-01  2.31027234E-01 -7.71240809E-06  8.22294262E-11  8.15741128E-03
  1.02682918E-02 -3.28869785E-07 -7.62958527E-13  1.29224677E-02  5.09806557E-12
 -9.95513153E-13 -5.81918342E-03  3.97864269E-07  3.18264030E-02  5.36632499E-02
  1.89478800E-01 -6.42581743E-06  5.66057570E-11 -1.71122442E-01  2.85071025E-01
 -9.64958325E-06  8.53037600E-11 -2.03472725E-01  2.31699192E-01 -7.73485392E-06
  6.82250556E-11 -8.18157053E-03  1.03001858E-02 -3.29758134E-07  2.32697774E-12
 -1.29601229E-02  7.14238002E-12 -1.00733182E-12  5.83612019E-03 -3.99034605E-07
 -4.72997972E-02 -7.63395987E-02 -2.77352775E-02  8.19606571E-03 -8.98936190E-03
  3.12045533E-12 -4.72997761E-02 -7.63396284E-02 -2.77353721E-02  8.19667840E-03
  8.98880979E-03  4.39517489E-12  4.74376497E-02  7.65623462E-02  2.78158339E-02
  8.22000774E-03 -9.01555483E-03  2.95934439E-12  4.74376285E-02  7.65623758E-02
  2.78159291E-02  8.22062222E-03  9.01500110E-03  1.72020178E-12  1.01025092E-11
  1.53785248E-11 -4.91833252E-11 -1.43444754E-11  1.85034742E-01 -3.76758247E-11
 -7.34058005E-11 -2.42028699E-11  2.97010918E-01 -7.52674027E-11 -7.68562227E-11
 -2.44025828E-11  3.18431040E-01 -3.40193234E-11 -2.50125006E-11 -8.98339129E-12
  7.23413604E-02  1.20811315E-11 -9.66631338E-03  3.42740852E-07  2.53732588E-12
  1.43656761E-12  2.43123351E-13  3.50464761E-13 -5.53651916E-11  1.43976398E-11
  1.84016857E-01 -9.34252755E-13 -8.88796330E-11  2.37633969E-11  2.95376567E-01
 -8.58598277E-12 -9.56925927E-11  2.61651003E-11  3.16680694E-01 -9.84793065E-13
 -2.68059233E-11  1.14661936E-11  7.19414111E-02  3.09446821E-12  9.61311074E-03
 -3.40855898E-07 -3.14902853E-12  1.37200837E-12  8.97206366E-12  1.42369824E-11
  1.32525812E-11 -2.87781401E-12  2.12124642E-12  1.64675130E-02  9.15554906E-12
  1.54437585E-11  1.50190846E-11 -2.55980342E-12 -5.40278462E-12  1.64675280E-02
  9.48253395E-13  1.54534373E-12  1.00965464E-12 -4.76260337E-12  1.73502734E-12
  1.63768783E-02  1.38902344E-12  9.32369295E-13  1.27420668E-11 -5.14285337E-12
  1.56009061E-12  1.63768933E-02 -1.00062648E-11 -1.52190162E-11  4.88319019E-11
  1.42643353E-11 -1.84053760E-01  3.71155041E-11  7.26074653E-11  2.41135657E-11
 -2.95522691E-01  7.50600127E-11  7.71236264E-11  2.42735080E-11 -3.16508867E-01
  3.34971952E-11  2.34933739E-11  8.56332962E-12 -7.23352278E-02 -1.20408112E-11
  9.62139751E-03 -3.40884797E-07 -2.51789123E-12 -1.45005204E-12  2.96188276E-13
  4.51332828E-13 -5.56080398E-11  1.44763456E-11  1.85071389E-01 -1.45199819E-12
 -8.88031857E-11  2.39253673E-11  2.97156147E-01 -8.07014800E-12 -9.75443088E-11