Title Card Required                                                     
FOpt      UM062X                                                      6-311+G(d,p)        
Number of atoms                            I                4
Info1-9                                    I   N=           9
          13          13           0           0           0         110
           2          18        -502
Full Title                                 C   N=           2
Title Card Required     
Route                                      C   N=           4
#p opt UM062X/6-311+G** nosymm int=superfine    
Charge                                     I                0
Multiplicity                               I                1
Number of electrons                        I               14
Number of alpha electrons                  I                7
Number of beta electrons                   I                7
Number of basis functions                  I               56
Number of independent functions            I               56
Number of point charges in /Mol/           I                0
Number of translation vectors              I                0
Atomic numbers                             I   N=           4
           6           6           1           1
Nuclear charges                            R   N=           4
  6.00000000E+00  6.00000000E+00  1.00000000E+00  1.00000000E+00
Current cartesian coordinates              R   N=          12
 -1.45902918E+00  0.00000000E+00  0.00000000E+00  1.45902918E+00  0.00000000E+00
  0.00000000E+00 -3.48584711E+00 -4.92396850E-10 -2.45267468E-09  3.48586102E+00
 -2.12286313E-09 -1.33614140E-09
Number of symbols in /Mol/                 I                0
Force Field                                I                0
Atom Types                                 C   N=           4
                                                
Int Atom Types                             I   N=           4
           0           0           0           0
MM charges                                 R   N=           4
  0.00000000E+00  0.00000000E+00  0.00000000E+00  0.00000000E+00
Integer atomic weights                     I   N=           4
          12          12           1           1
Real atomic weights                        R   N=           4
  1.20000000E+01  1.20000000E+01  1.00782504E+00  1.00782504E+00
Atom fragment info                         I   N=           4
           0           0           0           0
Atom residue num                           I   N=           4
           0           0           0           0
Nuclear spins                              I   N=           4
           0           0           1           1
Nuclear ZEff                               R   N=           4
 -3.60000000E+00 -3.60000000E+00 -1.00000000E+00 -1.00000000E+00
Nuclear ZNuc                               R   N=           4
  6.00000000E+00  6.00000000E+00  1.00000000E+00  1.00000000E+00
Nuclear QMom                               R   N=           4
  0.00000000E+00  0.00000000E+00  0.00000000E+00  0.00000000E+00
Nuclear GFac                               R   N=           4
  0.00000000E+00  0.00000000E+00  2.79284600E+00  2.79284600E+00
MicOpt                                     I   N=           4
          -2          -2          -1          -1
Number of residues                         I                0
Number of secondary structures             I                0
Redundant internal dimensions              I   N=           4
          12           8           4           0
Redundant internal coordinate indices      I   N=          48
           1          -1           0           0           1          -2
           0           0           1          -3           0           0
           2          -1           0           0           2          -2
           0           0           2          -3           0           0
           1           3           0           0           2           4
           0           0           2           1           3          -4
           1           2           4          -4           2           1
           3          -8           1           2           4          -8
Redundant internal coordinates             R   N=          12
 -1.45902918E+00  0.00000000E+00  0.00000000E+00  1.45902918E+00  0.00000000E+00
  0.00000000E+00  2.02681793E+00  2.02683184E+00  3.14159265E+00  3.14159264E+00
  3.14159265E+00  3.14159267E+00
ZRed-IntVec                                I   N=          12
          -1          -1          -1          -1          -1          -1
           0           0           0           0           0           0
ZRed-FPVec                                 R   N=          12
  0.00000000E+00  0.00000000E+00  0.00000000E+00  0.00000000E+00  0.00000000E+00
  0.00000000E+00  0.00000000E+00  0.00000000E+00  0.00000000E+00  0.00000000E+00
  0.00000000E+00  0.00000000E+00
ZRed-Constraint1                           R   N=          12
 -1.45902918E+00  0.00000000E+00  0.00000000E+00  1.45902918E+00  0.00000000E+00
  0.00000000E+00  2.59475953E+00  2.59472052E+00  3.14159265E+00  3.14159265E+00
  3.14159265E+00  3.14159265E+00
ZRed-Constraint2                           R   N=          12
 -1.45902918E+00  0.00000000E+00  0.00000000E+00  1.45902918E+00  0.00000000E+00
  0.00000000E+00  0.00000000E+00  0.00000000E+00  0.00000000E+00  0.00000000E+00
  0.00000000E+00  0.00000000E+00
Number of contracted shells                I               20
Number of primitive shells                 I               38
Pure/Cartesian d shells                    I                0
Pure/Cartesian f shells                    I                0
Highest angular momentum                   I                2
Largest degree of contraction              I                6
Shell types                                I   N=          20
           0          -1          -1          -1          -1          -2
           0          -1          -1          -1          -1          -2
           0           0           0           1           0           0
           0           1
Number of primitives per shell             I   N=          20
           6           3           1           1           1           1
           6           3           1           1           1           1
           3           1           1           1           3           1
           1           1
Shell to atom map                          I   N=          20
           1           1           1           1           1           1
           2           2           2           2           2           2
           3           3           3           3           4           4
           4           4
Primitive exponents                        R   N=          38
  4.56324000E+03  6.82024000E+02  1.54973000E+02  4.44553000E+01  1.30290000E+01
  1.82773000E+00  2.09642000E+01  4.80331000E+00  1.45933000E+00  4.83456000E-01
  1.45585000E-01  4.38000000E-02  6.26000000E-01  4.56324000E+03  6.82024000E+02
  1.54973000E+02  4.44553000E+01  1.30290000E+01  1.82773000E+00  2.09642000E+01
  4.80331000E+00  1.45933000E+00  4.83456000E-01  1.45585000E-01  4.38000000E-02
  6.26000000E-01  3.38650000E+01  5.09479000E+00  1.15879000E+00  3.25840000E-01
  1.02741000E-01  7.50000000E-01  3.38650000E+01  5.09479000E+00  1.15879000E+00
  3.25840000E-01  1.02741000E-01  7.50000000E-01
Contraction coefficients                   R   N=          38
  1.96665025E-03  1.52306019E-02  7.61269097E-02  2.60801033E-01  6.16462078E-01
  2.21006028E-01  1.14660081E-01  9.19999648E-01 -3.03068213E-03  1.00000000E+00
  1.00000000E+00  1.00000000E+00  1.00000000E+00  1.96665025E-03  1.52306019E-02
  7.61269097E-02  2.60801033E-01  6.16462078E-01  2.21006028E-01  1.14660081E-01
  9.19999648E-01 -3.03068213E-03  1.00000000E+00  1.00000000E+00  1.00000000E+00
  1.00000000E+00  2.54938145E-02  1.90373109E-01  8.52161486E-01  1.00000000E+00
  1.00000000E+00  1.00000000E+00  2.54938145E-02  1.90373109E-01  8.52161486E-01
  1.00000000E+00  1.00000000E+00  1.00000000E+00
P(S=P) Contraction coefficients            R   N=          38
  0.00000000E+00  0.00000000E+00  0.00000000E+00  0.00000000E+00  0.00000000E+00
  0.00000000E+00  4.02486927E-02  2.37593957E-01  8.15853851E-01  1.00000000E+00
  1.00000000E+00  1.00000000E+00  0.00000000E+00  0.00000000E+00  0.00000000E+00
  0.00000000E+00  0.00000000E+00  0.00000000E+00  0.00000000E+00  4.02486927E-02
  2.37593957E-01  8.15853851E-01  1.00000000E+00  1.00000000E+00  1.00000000E+00
  0.00000000E+00  0.00000000E+00  0.00000000E+00  0.00000000E+00  0.00000000E+00
  0.00000000E+00  0.00000000E+00  0.00000000E+00  0.00000000E+00  0.00000000E+00
  0.00000000E+00  0.00000000E+00  0.00000000E+00
Coordinates of each shell                  R   N=          60
 -1.45902918E+00  0.00000000E+00  0.00000000E+00 -1.45902918E+00  0.00000000E+00
  0.00000000E+00 -1.45902918E+00  0.00000000E+00  0.00000000E+00 -1.45902918E+00
  0.00000000E+00  0.00000000E+00 -1.45902918E+00  0.00000000E+00  0.00000000E+00
 -1.45902918E+00  0.00000000E+00  0.00000000E+00  1.45902918E+00  0.00000000E+00
  0.00000000E+00  1.45902918E+00  0.00000000E+00  0.00000000E+00  1.45902918E+00
  0.00000000E+00  0.00000000E+00  1.45902918E+00  0.00000000E+00  0.00000000E+00
  1.45902918E+00  0.00000000E+00  0.00000000E+00  1.45902918E+00  0.00000000E+00
  0.00000000E+00 -3.48584711E+00 -4.92396850E-10 -2.45267468E-09 -3.48584711E+00
 -4.92396850E-10 -2.45267468E-09 -3.48584711E+00 -4.92396850E-10 -2.45267468E-09
 -3.48584711E+00 -4.92396850E-10 -2.45267468E-09  3.48586102E+00 -2.12286313E-09
 -1.33614140E-09  3.48586102E+00 -2.12286313E-09 -1.33614140E-09  3.48586102E+00
 -2.12286313E-09 -1.33614140E-09  3.48586102E+00 -2.12286313E-09 -1.33614140E-09
Num ILSW                                   I              100
ILSW                                       I   N=         100
           1           0           0           0           2           0
           0           0           0           0        4336          -1
           7           0           0           0           2           0
           0           0           0           0           1           0
           1           1           0           0           0           0
           0           0      100000           0          -1           0
           0           0           0           0           0           0
           0           0           0           1           0           0
           0 -2000000000           1           0           0           0
           0           0           4          52           0           0
           0           0          55           0           0           0
           0           0           0           4           0           1
           0           0           0           0           0           0
           0           0           0           0           0           0
           0           0           0           0           0           0
           0           0           0           0           0           0
           0           0           0           0
Num RLSW                                   I               52
RLSW                                       R   N=          52
  1.00000000E+00  1.00000000E+00  1.00000000E+00  1.00000000E+00  5.40000000E-01
  0.00000000E+00  0.00000000E+00  1.00000000E+00  0.00000000E+00  0.00000000E+00
  0.00000000E+00  0.00000000E+00  1.00000000E+00  0.00000000E+00  0.00000000E+00
  0.00000000E+00  0.00000000E+00  1.00000000E+00  0.00000000E+00  0.00000000E+00
  0.00000000E+00  0.00000000E+00  1.00000000E+00  0.00000000E+00  0.00000000E+00
  0.00000000E+00  0.00000000E+00  1.00000000E+00  0.00000000E+00  0.00000000E+00
  0.00000000E+00  0.00000000E+00  1.00000000E+00  0.00000000E+00  0.00000000E+00
  0.00000000E+00  0.00000000E+00  0.00000000E+00  1.00000000E+00  1.00000000E+00
  0.00000000E+00  1.00000000E+00  0.00000000E+00  0.00000000E+00  0.00000000E+00
  0.00000000E+00  0.00000000E+00  0.00000000E+00  0.00000000E+00  0.00000000E+00
  0.00000000E+00  0.00000000E+00
MxBond                                     I                2
NBond                                      I   N=           4
           2           2           1           1
IBond                                      I   N=           8
           2           3           1           4           1           0
           2           0
RBond                                      R   N=           8
  1.00000000E+00  1.00000000E-01  1.00000000E+00  1.00000000E-01  1.00000000E-01
  0.00000000E+00  1.00000000E-01  0.00000000E+00
Virial Ratio                               R      2.015519191491407E+00
SCF Energy                                 R     -7.717869703685543E+01
Total Energy                               R     -7.717869703685543E+01
S**2                                       R     -2.486899575160351E-14
S**2 after annihilation                    R     -1.962874307537257E-13
RMS Force                                  R      9.990823854445809E-05
RMS Density                                R      3.130618954236635E-09
Job Status                                 I                1
Nuclear derivative order                   I                1
External E-field                           R   N=          35
  0.00000000E+00  0.00000000E+00  0.00000000E+00  0.00000000E+00  0.00000000E+00
  0.00000000E+00  0.00000000E+00  0.00000000E+00  0.00000000E+00  0.00000000E+00
  0.00000000E+00  0.00000000E+00  0.00000000E+00  0.00000000E+00  0.00000000E+00
  0.00000000E+00  0.00000000E+00  0.00000000E+00  0.00000000E+00  0.00000000E+00
  0.00000000E+00  0.00000000E+00  0.00000000E+00  0.00000000E+00  0.00000000E+00
  0.00000000E+00  0.00000000E+00  0.00000000E+00  0.00000000E+00  0.00000000E+00
  0.00000000E+00  0.00000000E+00  0.00000000E+00  0.00000000E+00  0.00000000E+00
IOpCl                                      I                1
IROHF                                      I                0
Alpha Orbital Energies                     R   N=          56
 -1.06334464E+01 -1.06329794E+01 -7.92899860E-01 -6.84947824E-01 -5.47319119E-01
 -3.14825685E-01 -3.14825685E-01 -1.94427250E-02 -1.94427250E-02  1.56962153E-02
  2.37427613E-02  8.21963423E-02  8.21963423E-02  9.42063171E-02  9.52068370E-02
  1.15649287E-01  1.15649287E-01  1.80207265E-01  2.31320235E-01  3.04551403E-01
  4.63001604E-01  5.87321675E-01  5.87321675E-01  6.15382444E-01  6.15382444E-01
  6.94901586E-01  6.98412657E-01  7.45392080E-01  8.22963506E-01  1.02287405E+00
  1.02287405E+00  1.03243678E+00  1.26147263E+00  1.26147314E+00  1.38076276E+00
  1.38076276E+00  1.47215306E+00  1.47215365E+00  1.63314926E+00  1.74870313E+00
  1.74870313E+00  1.88953696E+00  2.25941538E+00  2.25941538E+00  2.44220671E+00
  2.70059147E+00  2.71527878E+00  2.73052071E+00  2.73052071E+00  2.84645419E+00
  2.84645419E+00  3.21897843E+00  3.25078309E+00  3.60646746E+00  2.35765836E+01
  2.40380479E+01
Beta Orbital Energies                      R   N=          56
 -1.06334464E+01 -1.06329794E+01 -7.92899860E-01 -6.84947824E-01 -5.47319119E-01
 -3.14825685E-01 -3.14825685E-01 -1.94427250E-02 -1.94427250E-02  1.56962153E-02
  2.37427613E-02  8.21963423E-02  8.21963423E-02  9.42063171E-02  9.52068370E-02
  1.15649287E-01  1.15649287E-01  1.80207265E-01  2.31320235E-01  3.04551403E-01
  4.63001604E-01  5.87321675E-01  5.87321675E-01  6.15382444E-01  6.15382444E-01
  6.94901586E-01  6.98412657E-01  7.45392080E-01  8.22963506E-01  1.02287405E+00
  1.02287405E+00  1.03243678E+00  1.26147263E+00  1.26147314E+00  1.38076276E+00
  1.38076276E+00  1.47215306E+00  1.47215365E+00  1.63314926E+00  1.74870313E+00
  1.74870313E+00  1.88953696E+00  2.25941538E+00  2.25941538E+00  2.44220671E+00
  2.70059147E+00  2.71527878E+00  2.73052071E+00  2.73052071E+00  2.84645419E+00
  2.84645419E+00  3.21897843E+00  3.25078309E+00  3.60646746E+00  2.35765836E+01
  2.40380479E+01
Alpha MO coefficients                      R   N=        3136
  3.98716166E-01  3.27969126E-01  3.24650544E-04  1.14084841E-12  7.24074901E-13
  7.54550854E-03 -2.10300074E-03 -1.24802368E-12 -3.02306403E-12 -3.36370302E-03
  5.38506350E-04  3.38251484E-13  7.45063832E-13 -4.40493333E-04  1.51554908E-03
 -5.39064009E-13  1.11459027E-12 -4.03118561E-04  2.22557679E-12  1.56432267E-18
  6.98221829E-04  1.97566011E-13  3.99261695E-01  3.28417473E-01 -3.24253126E-04
  2.29173060E-13  1.30180222E-12  7.55698343E-03  2.10403588E-03 -2.32577444E-12
 -2.20535174E-12 -3.37399317E-03 -5.27357379E-04  5.20731754E-13  5.35684424E-13
 -4.41350139E-04 -1.51543739E-03  1.26561511E-12 -7.32943562E-14 -4.04856368E-04
 -9.60086818E-13 -5.14421095E-18  7.01231800E-04 -2.01160306E-12  1.10514633E-04
 -2.83331939E-03  3.08204507E-03 -1.68465515E-03 -3.60729954E-13 -1.73132952E-12
  1.10576550E-04 -2.84054642E-03  3.08084673E-03  1.68778444E-03 -1.50382830E-12
 -9.68008050E-13  3.99336340E-01  3.28193251E-01 -2.86038110E-04  8.85589319E-13
  5.10450019E-13  8.45527477E-03 -8.19558316E-04 -3.73221107E-13 -2.71390949E-12
 -7.53320939E-03 -8.17530926E-03 -1.59420633E-12 -3.36215893E-12 -8.18143088E-04
 -1.28356216E-04 -5.19748369E-13 -9.89494249E-13 -1.28538316E-03  3.80511626E-12
  1.14731271E-17  2.22634894E-03  1.05190206E-12 -3.98790918E-01 -3.27744614E-01
 -2.86485427E-04 -1.18416728E-13 -9.84951003E-13 -8.44486893E-03 -8.16588773E-04
  2.34052003E-12  1.27767124E-12  7.52867914E-03 -8.17601396E-03  2.62392976E-12
  2.70503942E-12  8.17527833E-04 -1.30423838E-04  7.20153368E-13  8.36953015E-13
  1.28481024E-03  2.31398643E-12  4.97094405E-18 -2.22535661E-03  3.19183135E-12
  3.18471887E-05 -5.37873808E-03 -8.33079462E-04 -2.33094315E-03 -5.39219934E-13
 -3.98059581E-12 -3.17262269E-05  5.37472903E-03  8.37289045E-04 -2.32858350E-03
  3.53910283E-12  1.93920623E-12 -8.48471567E-02 -1.36727958E-01  1.69194487E-02
 -8.03707686E-12 -3.71046152E-11  3.72861316E-01  2.47589679E-02 -7.16673935E-12
 -5.23225033E-11  2.43852182E-01  6.38825654E-04 -2.93427194E-12 -2.09596096E-11
  1.57656751E-03 -1.47719762E-02  4.61773328E-12 -9.82866808E-12 -9.86407060E-03
  1.70849111E-11  1.37671248E-16  1.70850714E-02  4.15873626E-12 -8.48463028E-02
 -1.36726585E-01 -1.69208261E-02 -3.20916659E-11 -2.05878662E-11  3.72857796E-01
 -2.47604763E-02 -4.64713214E-11 -2.51269244E-11  2.43849853E-01 -6.39140557E-04
 -1.89956808E-11 -1.02721695E-11  1.57714015E-03  1.47717977E-02 -1.00807197E-11
  1.39926281E-12 -9.86393566E-03 -9.92104006E-12 -1.61320700E-16  1.70848377E-02
 -1.45298609E-11  7.21176375E-02  8.52945408E-02 -6.36718614E-03  9.39913055E-03
  1.04448943E-12  7.21827494E-12  7.21155238E-02  8.52923761E-02 -6.36729453E-03
 -9.39886119E-03  6.40544312E-12  3.50795736E-12  6.54481565E-02  1.06192389E-01
  8.74092443E-02  6.56818523E-12  7.59969305E-11 -2.91129585E-01  1.15716503E-01
  8.68343795E-13  9.78161518E-11 -2.21767221E-01  5.27449497E-02  5.60351497E-12
  4.48493059E-11  1.57263313E-01  5.26258144E-02  5.95513718E-12  1.16372319E-11
  7.55044258E-03 -2.89373625E-11 -1.24885880E-16 -1.30777502E-02 -8.39582061E-12
 -6.54493010E-02 -1.06194273E-01  8.74064060E-02 -6.86817228E-11 -3.31897877E-11
  2.91135129E-01  1.15713057E-01 -9.15674077E-11 -3.52994395E-11  2.21772007E-01
  5.27440877E-02 -3.93030965E-11 -2.17691726E-11 -1.57263198E-01  5.26262386E-02
 -8.87181924E-12 -9.71558251E-12 -7.55059340E-03 -1.84134065E-11 -1.25974623E-16
  1.30780114E-02 -2.40550254E-11 -1.28371678E-01 -1.65485016E-01 -1.91689014E-02
 -1.76797152E-02 -5.89781046E-12 -2.33150372E-11  1.28370317E-01  1.65483909E-01
  1.91683393E-02 -1.76795081E-02  1.96835724E-11  1.38862036E-11  1.09917997E-02
  1.84326160E-02 -1.78233221E-01 -3.11789160E-11 -1.16460057E-10 -5.85625021E-02
 -2.47360769E-01 -4.74795796E-11 -1.53422407E-10 -3.28736943E-02 -1.19023787E-01
 -1.83246699E-11 -8.10463742E-11  2.94019607E-03 -2.89285174E-03  4.53415806E-12
 -3.50749771E-12  2.26851573E-03  1.21474515E-11  1.75111692E-16 -3.92918451E-03
 -6.52982949E-12  1.09910604E-02  1.84313753E-02  1.78233963E-01 -9.78267503E-11
 -7.07657940E-11 -5.85588006E-02  2.47362444E-01 -1.27894984E-10 -9.96893530E-11
 -3.28697451E-02  1.19025047E-01 -6.77773481E-11 -4.48108413E-11  2.93657966E-03
  2.89420495E-03 -7.24654128E-12 -1.59034649E-13  2.26843366E-03  1.77305605E-12
 -1.62061304E-16 -3.92904236E-03 -1.39542728E-11  1.25303753E-01  1.85123336E-01
  4.65154303E-02  1.95220081E-02  5.12003047E-12  3.11038599E-11  1.25304851E-01
  1.85125648E-01  4.65158863E-02 -1.95221355E-02  2.73931318E-11  1.59273077E-11
  1.06471027E-11  1.86530560E-11 -8.29916146E-11  1.80969397E-01  8.71935619E-03
 -7.28125651E-11 -1.19281691E-10  2.86997297E-01  1.38279272E-02  7.86218785E-11
 -1.62132913E-11  2.59143077E-01  1.24858723E-02 -6.09362310E-10 -2.25020622E-10
  3.22321387E-02  1.55298908E-03 -4.74448259E-12  8.01173170E-04 -5.87780296E-12
 -1.44795686E-12  1.66282719E-02 -3.30907896E-11 -5.60359080E-11  1.04990519E-10
  1.80969373E-01  8.71935500E-03  1.69869131E-10  1.82893898E-10  2.86997212E-01
  1.38279231E-02  1.80559566E-10  2.12416463E-10  2.59143023E-01  1.24858697E-02
  6.48353865E-10 -1.67815802E-10  3.22322332E-02  1.55299364E-03  5.88528879E-12
 -8.01172719E-04  1.50979912E-12  4.43549393E-12 -1.66282626E-02  1.47852673E-11
  4.61576117E-11  3.10625531E-11 -5.11126834E-12  1.71049321E-02  8.24139319E-04
 -3.49367406E-11 -7.26791266E-11 -3.91382370E-11  3.06678818E-11  1.71047735E-02
  8.24131678E-04 -3.12071761E-11 -5.25679645E-11 -1.30581690E-10 -8.71935619E-03
  1.80969397E-01  1.51490074E-10 -2.27242104E-10 -1.38279272E-02  2.86997297E-01
  2.51932250E-10 -1.48043461E-10 -1.24858723E-02  2.59143077E-01  5.84100157E-10
  1.41795014E-10 -1.55298908E-03  3.22321387E-02 -6.51401373E-12  1.66282719E-02
  4.65729645E-12 -8.66331654E-13 -8.01173170E-04  1.90484088E-12  3.75554030E-12
  1.15029246E-10 -8.71935500E-03  1.80969373E-01 -2.57347101E-11  1.73340339E-10
 -1.38279231E-02  2.86997212E-01  8.54005852E-11  1.42613569E-10 -1.24858697E-02
  2.59143023E-01 -5.33482669E-10  2.19859513E-10 -1.55299364E-03  3.22322332E-02
  9.47957006E-13 -1.66282626E-02 -7.25530700E-12  1.24058863E-12  8.01172719E-04
 -3.32530240E-11 -4.86960345E-11  3.78881189E-12 -3.37177011E-11 -8.24139319E-04
  1.71049321E-02  6.24270386E-12  1.68671673E-11 -1.37477523E-11  1.42332401E-11
 -8.24131678E-04  1.71047735E-02 -1.50509858E-10 -2.53787866E-10 -1.32651205E-11
  2.75333563E-02  1.78952127E-01  7.66067000E-10 -4.69908054E-11  4.21310222E-02
  2.73829167E-01  1.17967956E-09 -1.15794494E-09  6.06521099E-02  3.94206356E-01
  4.75756130E-09  1.53576615E-09  7.75158292E-02  5.03811535E-01  2.40591484E-11
 -2.84860916E-02  1.02909457E-12 -6.17321274E-11 -4.38283536E-03  1.43225852E-10
  2.42090511E-10  5.22307298E-11 -2.75333612E-02 -1.78952159E-01 -7.48142826E-10
  4.69590580E-11 -4.21310280E-02 -2.73829205E-01 -9.71293791E-10 -9.86810068E-10
 -6.06521054E-02 -3.94206328E-01 -4.55331876E-09  1.68624272E-09 -7.75158937E-02
 -5.03811955E-01 -3.04850328E-11 -2.84860942E-02  9.97023556E-12  5.25509156E-11
 -4.38283576E-03 -2.57967229E-10 -8.97750313E-10 -1.24866857E-09 -1.47411514E-11
  4.30651551E-03  2.79900533E-02  2.17800186E-10  8.06628774E-10  1.03925002E-09
 -8.56749669E-12 -4.30650863E-03 -2.79900086E-02 -6.05691948E-11 -1.02415760E-10
  7.64653509E-11  1.78952127E-01 -2.75333563E-02  3.16889143E-10  1.08108710E-10
  2.73829167E-01 -4.21310222E-02  3.74123167E-10 -4.72333653E-10  3.94206356E-01
 -6.06521099E-02 -3.69345354E-10  4.39769398E-12  5.03811535E-01 -7.75158292E-02
  8.48161576E-12  4.38283536E-03 -1.03535110E-11 -1.74504592E-11 -2.84860916E-02
  7.63357359E-11  1.28373340E-10 -5.94788212E-11 -1.78952159E-01  2.75333612E-02
 -3.69760033E-10 -1.00554005E-10 -2.73829205E-01  4.21310280E-02 -7.09600380E-10
 -7.72884115E-10 -3.94206328E-01  6.06521054E-02  3.57252024E-11 -1.91354763E-10
 -5.03811955E-01  7.75158937E-02 -2.30372275E-11  4.38283576E-03 -3.98545039E-13
  1.87230117E-11 -2.84860942E-02 -7.22237575E-11 -3.33588967E-10 -5.20691550E-10
 -5.34359656E-12  2.79900533E-02 -4.30651551E-03  1.53487548E-10  5.24332754E-10
  7.93422017E-10 -1.83187182E-11 -2.79900086E-02  4.30650863E-03 -3.68782738E-02
 -6.24469138E-02  3.28731420E-03 -1.40308530E-10 -2.54293048E-10  1.97774624E-01
 -1.70657790E-02 -1.58605259E-10 -4.15762556E-10  3.61356651E-01  1.73379583E-01
 -4.72056958E-10 -5.28595343E-10  9.12868766E+00  3.64411329E+00  2.54356743E-10
 -6.53543883E-11  8.00905243E-03  3.16223484E-11  6.20972792E-17 -1.38720857E-02
  3.02413400E-11  3.68791323E-02  6.24483724E-02  3.28450957E-03  1.68722513E-10
  2.23647672E-10 -1.97779388E-01 -1.70702987E-02  2.70350451E-10  3.84765841E-10
 -3.61363617E-01  1.73374284E-01  4.10045606E-10  4.52735994E-10 -9.12864453E+00
  3.64416408E+00 -2.67519862E-10  2.02752043E-10 -8.00893028E-03  3.95024887E-11
  9.40992034E-17  1.38718742E-02  1.37914952E-11 -2.72344070E-02 -1.24868927E-01
  2.81812474E-01  1.77668638E-02 -1.51745384E-11 -2.91622909E-11  2.72340940E-02
  1.24875344E-01 -2.81834861E-01  1.77676099E-02  1.41079285E-11  3.18883598E-11
  1.68207359E-02  2.91719591E-02  3.10231544E-02  1.61184987E-11  2.65241896E-12
 -1.02170742E-01  6.79550857E-02  2.73195487E-11  4.09728963E-11 -4.56502477E-02
  8.09860380E-03  5.48824032E-11 -9.28318242E-11  1.11641757E+00 -1.09945314E+00
  3.27448561E-10 -8.04519517E-10  7.02346538E-03 -2.18674391E-11 -1.91327210E-16
 -1.21649989E-02 -6.27529401E-12  1.68195627E-02  2.91699329E-02 -3.10230437E-02
 -1.37893438E-12  2.12340968E-11 -1.02163721E-01 -6.79532212E-02  3.25022580E-11
  4.95069534E-11 -4.56397976E-02 -8.11332609E-03 -9.90062438E-11  2.74303953E-11
  1.11677135E+00  1.09930341E+00 -8.78054465E-10  1.85878241E-12  7.02357091E-03
  1.35827594E-11 -2.12479501E-17 -1.21651817E-02  1.90350136E-11 -2.76149516E-02
  9.07820728E-02 -7.30351200E-01 -7.23589680E-03  9.49388947E-13 -1.10512403E-11
 -2.76152320E-02  9.07788762E-02 -7.30325382E-01  7.23551599E-03 -1.04811435E-11
 -2.00946929E-12  1.27078032E-11  2.14848864E-11  7.17100915E-12  9.53548043E-04
 -7.38511542E-02 -7.40008962E-11 -3.17663525E-12  7.98961808E-04 -6.18786355E-02
 -2.51063999E-11 -8.65428391E-11  4.21711302E-03 -3.26610354E-01 -1.70405012E-09
 -1.12725775E-09 -8.56721057E-03  6.63520201E-01 -5.27944009E-12 -6.96821683E-03
 -8.88687351E-13  1.49467796E-11  8.99719116E-05 -4.88425364E-12 -7.89244771E-12
 -2.71911854E-11  9.53552852E-04 -7.38515267E-02  1.19410722E-11 -3.08725764E-11
  7.98967525E-04 -6.18790782E-02  2.45355938E-10 -5.26041071E-11  4.21712917E-03
 -3.26611605E-01  2.37254078E-09 -4.49061515E-13 -8.56725146E-03  6.63523368E-01
  2.99920487E-12  6.96821679E-03  4.00614677E-12 -4.60084655E-12 -8.99719111E-05
  3.07084934E-11 -8.81836584E-11 -4.37609697E-11  3.38554711E-13 -5.43515041E-05
  4.20945892E-03 -1.55951688E-11 -6.42980395E-11 -4.03650489E-10 -2.82411502E-12
 -5.43527916E-05  4.20955864E-03 -2.72037121E-13  2.94717428E-13  2.86591704E-11
 -7.38511542E-02 -9.53548043E-04 -8.62839551E-12  2.88067092E-11 -6.18786355E-02
 -7.98961808E-04  1.54067003E-10  2.56345788E-10 -3.26610354E-01 -4.21711302E-03
  6.10702125E-09  1.20844235E-09  6.63520201E-01  8.56721057E-03  6.74658248E-12
 -8.99719116E-05  3.42563937E-12 -9.37224470E-12 -6.96821683E-03  4.46294587E-12
  7.71645474E-12 -1.79124102E-12 -7.38515267E-02 -9.53552852E-04 -4.42404150E-11
  1.08801686E-11 -6.18790782E-02 -7.98967525E-04  1.29677350E-10  2.84721319E-10
 -3.26611605E-01 -4.21712917E-03 -5.66753376E-09  2.19328370E-09  6.63523368E-01
  8.56725146E-03 -1.56250329E-11  8.99719111E-05  7.02836445E-13  2.04703251E-11
  6.96821679E-03 -2.02750766E-11  4.32645183E-11 -3.04738085E-10  2.72635123E-12
  4.20945892E-03  5.43515041E-05  3.36103081E-11 -1.58758716E-10 -6.42307120E-11
  7.60633257E-12  4.20955864E-03  5.43527916E-05  7.60599728E-03  1.17542995E-02
 -6.44156151E-02 -2.93099887E-12 -4.28273028E-11 -1.58764364E-02 -3.97460935E-02
  8.92019876E-12 -2.33606257E-11 -2.03572060E-01 -2.72440071E-01 -1.60508693E-11
 -2.26193950E-10  4.49986835E-01  9.52731624E-01  3.22626601E-10 -3.28184015E-10
  1.85843305E-02 -3.43241514E-11  1.44930679E-16 -3.21890046E-02 -1.39372311E-11
  7.57035824E-03  1.16945657E-02  6.43710256E-02 -5.19721643E-11 -2.18967308E-11
 -1.57080310E-02  3.96714243E-02 -3.77817723E-11 -1.27090031E-12 -2.03031271E-01
  2.72690347E-01 -2.65219489E-10 -1.26753746E-10  4.50003702E-01 -9.52064147E-01
 -2.62260486E-10  2.93700892E-10  1.86020313E-02  2.42042597E-11 -7.31149587E-17
 -3.22196634E-02  2.76835230E-11 -2.98262905E-02 -5.80843645E-02 -4.35762651E-01
  2.92075037E-02  9.22884797E-12  1.44268089E-11 -2.99049982E-02 -5.82671404E-02
 -4.36898925E-01 -2.92123921E-02  1.04693268E-11  1.37910665E-11  5.04177758E-02
  8.44620571E-02 -6.34287620E-02 -3.45972981E-11  4.74508390E-11 -2.37790332E-01
 -1.06999802E-01  2.62571449E-12  1.21059964E-10 -7.66812164E-01  3.50519812E-01
 -2.01324964E-10  2.96136222E-10 -2.25967432E-01  8.68407741E-01  4.09232269E-09
  5.93770242E-09 -2.53121495E-02  1.10383290E-11 -1.56365781E-16  4.38419290E-02
 -2.27283514E-11 -5.04235267E-02 -8.44709504E-02 -6.34729270E-02 -5.07760894E-11
  1.69495927E-11  2.37802765E-01 -1.07025684E-01 -1.10598774E-10 -4.51779256E-11
  7.66962178E-01  3.50327764E-01 -3.22202114E-10  7.50716249E-11  2.25662892E-01
  8.69114892E-01 -4.20274044E-09 -5.88996639E-09  2.52990792E-02 -1.75447657E-11
 -1.67588187E-16 -4.38192905E-02  1.80121501E-11  1.10172376E-01  2.55565888E-01
  1.60406092E+00 -7.72594110E-03  3.63533580E-11  6.55250580E-11 -1.10152861E-01
 -2.55525663E-01 -1.60377023E+00 -7.70515067E-03 -4.87594115E-11 -5.73044725E-11
 -4.57503826E-11 -7.61899760E-11  6.40500656E-11 -1.12228025E-01  1.53579075E-02
  2.17156605E-10  9.72480887E-11 -1.17426417E-01  1.60692844E-02  8.34054164E-10
 -1.72070653E-10 -5.29155757E-01  7.24126187E-02  7.61163854E-09  1.13506988E-09
  1.90529688E+00 -2.60731428E-01  3.34801792E-11 -9.91267861E-04  6.36531813E-12