 Entering Gaussian System, Link 0=g16
 Initial command:
 /home/szhao/Apps/g16/l1.exe "/home/szhao/tmp/Gau-123915.inp" -scrdir="/home/szhao/tmp/"
 Default is to use a total of  16 processors:
                               16 via shared-memory
                                1 via Linda
 Entering Link 1 = /home/szhao/Apps/g16/l1.exe PID=    123916.
  
 Copyright (c) 1988,1990,1992,1993,1995,1998,2003,2009,2016,
            Gaussian, Inc.  All Rights Reserved.
  
 This is part of the Gaussian(R) 16 program.  It is based on
 the Gaussian(R) 09 system (copyright 2009, Gaussian, Inc.),
 the Gaussian(R) 03 system (copyright 2003, Gaussian, Inc.),
 the Gaussian(R) 98 system (copyright 1998, Gaussian, Inc.),
 the Gaussian(R) 94 system (copyright 1995, Gaussian, Inc.),
 the Gaussian 92(TM) system (copyright 1992, Gaussian, Inc.),
 the Gaussian 90(TM) system (copyright 1990, Gaussian, Inc.),
 the Gaussian 88(TM) system (copyright 1988, Gaussian, Inc.),
 the Gaussian 86(TM) system (copyright 1986, Carnegie Mellon
 University), and the Gaussian 82(TM) system (copyright 1983,
 Carnegie Mellon University). Gaussian is a federally registered
 trademark of Gaussian, Inc.
  
 This software contains proprietary and confidential information,
 including trade secrets, belonging to Gaussian, Inc.
  
 This software is provided under written license and may be
 used, copied, transmitted, or stored only in accord with that
 written license.
  
 The following legend is applicable only to US Government
 contracts under FAR:
  
                    RESTRICTED RIGHTS LEGEND
  
 Use, reproduction and disclosure by the US Government is
 subject to restrictions as set forth in subparagraphs (a)
 and (c) of the Commercial Computer Software - Restricted
 Rights clause in FAR 52.227-19.
  
 Gaussian, Inc.
 340 Quinnipiac St., Bldg. 40, Wallingford CT 06492
  
  
 ---------------------------------------------------------------
 Warning -- This program may not be used in any manner that
 competes with the business of Gaussian, Inc. or will provide
 assistance to any competitor of Gaussian, Inc.  The licensee
 of this program is prohibited from giving any competitor of
 Gaussian, Inc. access to this program.  By using this program,
 the user acknowledges that Gaussian, Inc. is engaged in the
 business of creating and licensing software in the field of
 computational chemistry and represents and warrants to the
 licensee that it is not a competitor of Gaussian, Inc. and that
 it will not use this program in any manner prohibited above.
 ---------------------------------------------------------------
  

 Cite this work as:
 Gaussian 16, Revision A.03,
 M. J. Frisch, G. W. Trucks, H. B. Schlegel, G. E. Scuseria, 
 M. A. Robb, J. R. Cheeseman, G. Scalmani, V. Barone, 
 G. A. Petersson, H. Nakatsuji, X. Li, M. Caricato, A. V. Marenich, 
 J. Bloino, B. G. Janesko, R. Gomperts, B. Mennucci, H. P. Hratchian, 
 J. V. Ortiz, A. F. Izmaylov, J. L. Sonnenberg, D. Williams-Young, 
 F. Ding, F. Lipparini, F. Egidi, J. Goings, B. Peng, A. Petrone, 
 T. Henderson, D. Ranasinghe, V. G. Zakrzewski, J. Gao, N. Rega, 
 G. Zheng, W. Liang, M. Hada, M. Ehara, K. Toyota, R. Fukuda, 
 J. Hasegawa, M. Ishida, T. Nakajima, Y. Honda, O. Kitao, H. Nakai, 
 T. Vreven, K. Throssell, J. A. Montgomery, Jr., J. E. Peralta, 
 F. Ogliaro, M. J. Bearpark, J. J. Heyd, E. N. Brothers, K. N. Kudin, 
 V. N. Staroverov, T. A. Keith, R. Kobayashi, J. Normand, 
 K. Raghavachari, A. P. Rendell, J. C. Burant, S. S. Iyengar, 
 J. Tomasi, M. Cossi, J. M. Millam, M. Klene, C. Adamo, R. Cammi, 
 J. W. Ochterski, R. L. Martin, K. Morokuma, O. Farkas, 
 J. B. Foresman, and D. J. Fox, Gaussian, Inc., Wallingford CT, 2016.
 
 ******************************************
 Gaussian 16:  ES64L-G16RevA.03 25-Dec-2016
                21-Apr-2025 
 ******************************************
 %chk=opt.chk
 %mem=4GB
 %nprocshared=8
 Will use up to    8 processors via shared memory.
 --------------------------------------------
 #p opt UM062X/6-311+G** nosymm int=superfine
 --------------------------------------------
 1/18=20,19=15,26=5,38=1/1,3;
 2/9=110,12=2,15=1,17=6,18=5,40=1/2;
 3/5=4,6=6,7=111,11=2,25=1,30=1,71=1,74=-55,75=-7,116=2/1,2,3;
 4//1;
 5/5=2,38=5/2;
 6/7=2,8=2,9=2,10=2,28=1/1;
 7/30=1/1,2,3,16;
 1/18=20,19=15,26=5/3(2);
 2/9=110,15=1/2;
 99//99;
 2/9=110,15=1/2;
 3/5=4,6=6,7=111,11=2,25=1,30=1,71=1,74=-55,75=-7,116=2/1,2,3;
 4/5=5,16=3,69=1/1;
 5/5=2,38=5/2;
 7/30=1/1,2,3,16;
 1/18=20,19=15,26=5/3(-5);
 2/9=110,15=1/2;
 6/7=2,8=2,9=2,10=2,19=2,28=1/1;
 99/9=1/99;
 Leave Link    1 at Mon Apr 21 18:10:43 2025, MaxMem=   536870912 cpu:               1.2 elap:               0.1
 (Enter /home/szhao/Apps/g16/l101.exe)
 -------------------
 Title Card Required
 -------------------
 Symbolic Z-matrix:
 Charge =  0 Multiplicity = 1
 C                    -1   -1.08054   0.        0. 
 N                    -1    1.08054   0.        0. 
 H                    0     1.44222  -0.946     0. 
 H                    0    -1.43758   1.03082  -0.01934 
 H                    0     1.44222   0.45736   0.82809 
 H                    0    -1.43758  -0.48144  -0.91169 
 H                    0    -1.54434  -0.50545   0.85659 
 
 Add virtual bond connecting atoms N2         and C1         Dist= 4.08D+00.
 ITRead=  2  2  0  0  0  0  0
 MicOpt= -2 -2 -1 -1 -1 -1 -1
 NAtoms=      7 NQM=        5 NQMF=       2 NMMI=      0 NMMIF=      0
                NMic=       0 NMicF=      0.
                    Isotopes and Nuclear Properties:
 (Nuclear quadrupole moments (NQMom) in fm**2, nuclear magnetic moments (NMagM)
  in nuclear magnetons)

  Atom         1           2           3           4           5           6           7
 IAtWgt=          12          14           1           1           1           1           1
 AtmWgt=  12.0000000  14.0030740   1.0078250   1.0078250   1.0078250   1.0078250   1.0078250
 NucSpn=           0           2           1           1           1           1           1
 AtZEff=  -0.0000000  -0.0000000  -0.0000000  -0.0000000  -0.0000000  -0.0000000  -0.0000000
 NQMom=    0.0000000   2.0440000   0.0000000   0.0000000   0.0000000   0.0000000   0.0000000
 NMagM=    0.0000000   0.4037610   2.7928460   2.7928460   2.7928460   2.7928460   2.7928460
 AtZNuc=   6.0000000   7.0000000   1.0000000   1.0000000   1.0000000   1.0000000   1.0000000
 Leave Link  101 at Mon Apr 21 18:10:44 2025, MaxMem=   536870912 cpu:               2.4 elap:               0.3
 (Enter /home/szhao/Apps/g16/l103.exe)

 GradGradGradGradGradGradGradGradGradGradGradGradGradGradGradGradGradGrad
 Berny optimization.
 Initialization pass.
                           ----------------------------
                           !    Initial Parameters    !
                           ! (Angstroms and Degrees)  !
 --------------------------                            --------------------------
 ! Name  Definition              Value          Derivative Info.                !
 --------------------------------------------------------------------------------
 ! X1    R(1,-1)                -1.0805         Frozen                          !
 ! Y1    R(1,-2)                 0.0            Frozen                          !
 ! Z1    R(1,-3)                 0.0            Frozen                          !
 ! X2    R(2,-1)                 1.0805         Frozen                          !
 ! Y2    R(2,-2)                 0.0            Frozen                          !
 ! Z2    R(2,-3)                 0.0            Frozen                          !
 ! R1    R(1,4)                  1.0911         estimate D2E/DX2                !
 ! R2    R(1,6)                  1.0911         estimate D2E/DX2                !
 ! R3    R(1,7)                  1.0974         estimate D2E/DX2                !
 ! R4    R(2,3)                  1.0128         estimate D2E/DX2                !
 ! R5    R(2,5)                  1.0128         estimate D2E/DX2                !
 ! A1    A(2,1,4)              109.1011         estimate D2E/DX2                !
 ! A2    A(2,1,6)              109.1011         estimate D2E/DX2                !
 ! A3    A(2,1,7)              115.0002         estimate D2E/DX2                !
 ! A4    A(4,1,6)              107.1573         estimate D2E/DX2                !
 ! A5    A(4,1,7)              108.1005         estimate D2E/DX2                !
 ! A6    A(6,1,7)              108.1005         estimate D2E/DX2                !
 ! A7    A(1,2,3)              110.9228         estimate D2E/DX2                !
 ! A8    A(1,2,5)              110.923          estimate D2E/DX2                !
 ! A9    A(3,2,5)              107.1144         estimate D2E/DX2                !
 ! D1    D(4,1,2,3)           -178.9252         estimate D2E/DX2                !
 ! D2    D(4,1,2,5)             62.1629         estimate D2E/DX2                !
 ! D3    D(6,1,2,3)            -62.1623         estimate D2E/DX2                !
 ! D4    D(6,1,2,5)            178.9258         estimate D2E/DX2                !
 ! D5    D(7,1,2,3)             59.4563         estimate D2E/DX2                !
 ! D6    D(7,1,2,5)            -59.4556         estimate D2E/DX2                !
 --------------------------------------------------------------------------------
 Trust Radius=3.00D-01 FncErr=1.00D-07 GrdErr=1.00D-07 EigMax=2.50D+02 EigMin=1.00D-04
 Number of steps in this run=     36 maximum allowed number of steps=    100.
 GradGradGradGradGradGradGradGradGradGradGradGradGradGradGradGradGradGrad

 Leave Link  103 at Mon Apr 21 18:10:44 2025, MaxMem=   536870912 cpu:               0.5 elap:               0.1
 (Enter /home/szhao/Apps/g16/l202.exe)
                          Input orientation:                          
 ---------------------------------------------------------------------
 Center     Atomic      Atomic             Coordinates (Angstroms)
 Number     Number       Type             X           Y           Z
 ---------------------------------------------------------------------
      1          6           0       -1.080542    0.000000    0.000000
      2          7           0        1.080542    0.000000    0.000000
      3          1           0        1.442216   -0.945999    0.000000
      4          1           0       -1.437579    1.030817   -0.019339
      5          1           0        1.442218    0.457356    0.828092
      6          1           0       -1.437580   -0.481444   -0.911685
      7          1           0       -1.544338   -0.505453    0.856593
 ---------------------------------------------------------------------
                    Distance matrix (angstroms):
                    1          2          3          4          5
     1  C    0.000000
     2  N    2.161084   0.000000
     3  H    2.694294   1.012779   0.000000
     4  H    1.091070   2.721010   3.493050   0.000000
     5  H    2.694296   1.012779   1.629460   3.056179   0.000000
     6  H    1.091070   2.721010   3.056175   1.755908   3.493051
     7  H    1.097425   2.806997   3.138047   1.771660   3.138046
                    6          7
     6  H    0.000000
     7  H    1.771661   0.000000
 Symmetry turned off by external request.
 Stoichiometry    CH5N
 Framework group  C1[X(CH5N)]
 Deg. of freedom    15
 Full point group                 C1      NOp   1
 Rotational constants (GHZ):         103.8092785          11.7157736          11.4724461
 Leave Link  202 at Mon Apr 21 18:10:44 2025, MaxMem=   536870912 cpu:               0.1 elap:               0.0
 (Enter /home/szhao/Apps/g16/l301.exe)
 Standard basis: 6-311+G(d,p) (5D, 7F)
 Ernie: Thresh=  0.10000D-02 Tol=  0.10000D-05 Strict=F.
    74 basis functions,   112 primitive gaussians,    76 cartesian basis functions
     9 alpha electrons        9 beta electrons
       nuclear repulsion energy        34.9219613039 Hartrees.
 IExCor= 4336 DFT=T Ex+Corr=M062X ExCW=0 ScaHFX=  0.540000
 ScaDFX=  1.000000  1.000000  1.000000  1.000000 ScalE2=  1.000000  1.000000
 IRadAn=      7 IRanWt=     -1 IRanGd=            0 ICorTp=0 IEmpDi=  4
 NAtoms=    7 NActive=    7 NUniq=    7 SFac= 1.00D+00 NAtFMM=   60 NAOKFM=F Big=F
 Integral buffers will be    131072 words long.
 Raffenetti 2 integral format.
 Two-electron integral symmetry is turned off.
 Leave Link  301 at Mon Apr 21 18:10:45 2025, MaxMem=   536870912 cpu:               0.7 elap:               0.2
 (Enter /home/szhao/Apps/g16/l302.exe)
 NPDir=0 NMtPBC=     1 NCelOv=     1 NCel=       1 NClECP=     1 NCelD=      1
         NCelK=      1 NCelE2=     1 NClLst=     1 CellRange=     0.0.
 One-electron integrals computed using PRISM.
 NBasis=    74 RedAO= T EigKep=  2.91D-03  NBF=    74
 NBsUse=    74 1.00D-06 EigRej= -1.00D+00 NBFU=    74
 Precomputing XC quadrature grid using
 IXCGrd= 4 IRadAn=           7 IRanWt=          -1 IRanGd=           0 AccXCQ= 0.00D+00.
 Generated NRdTot=       0 NPtTot=           0 NUsed=           0 NTot=          32
 NSgBfM=    76    76    76    76    76 MxSgAt=     7 MxSgA2=     7.
 Leave Link  302 at Mon Apr 21 18:10:45 2025, MaxMem=   536870912 cpu:               2.4 elap:               0.4
 (Enter /home/szhao/Apps/g16/l303.exe)
 DipDrv:  MaxL=1.
 Leave Link  303 at Mon Apr 21 18:10:46 2025, MaxMem=   536870912 cpu:               0.8 elap:               0.1
 (Enter /home/szhao/Apps/g16/l401.exe)
 ExpMin= 4.38D-02 ExpMax= 6.29D+03 ExpMxC= 9.49D+02 IAcc=3 IRadAn=         7 AccDes= 0.00D+00
 Harris functional with IExCor= 1009 and IRadAn=       7 diagonalized for initial guess.
 HarFok:  IExCor= 1009 AccDes= 0.00D+00 IRadAn=         7 IDoV= 1 UseB2=F ITyADJ=14
 ICtDFT=  3500011 ScaDFX=  1.000000  1.000000  1.000000  1.000000
 FoFCou: FMM=F IPFlag=           0 FMFlag=      100000 FMFlg1=           0
         NFxFlg=           0 DoJE=T BraDBF=F KetDBF=T FulRan=T
         wScrn=  0.000000 ICntrl=       500 IOpCl=  0 I1Cent=   200000004 NGrid=           0
         NMat0=    1 NMatS0=      1 NMatT0=    0 NMatD0=    1 NMtDS0=    0 NMtDT0=    0
 Symmetry not used in FoFCou.
 Harris En= -95.7169177276486    
 JPrj=0 DoOrth=F DoCkMO=F.
 Initial guess <Sx>= 0.0000 <Sy>= 0.0000 <Sz>= 0.0000 <S**2>=-0.0000 S=-0.0000
 Leave Link  401 at Mon Apr 21 18:10:46 2025, MaxMem=   536870912 cpu:               4.6 elap:               0.7
 (Enter /home/szhao/Apps/g16/l502.exe)
 Keep R1 and R2 ints in memory in canonical form, NReq=14944651.
 FoFCou: FMM=F IPFlag=           0 FMFlag=           0 FMFlg1=           0
         NFxFlg=           0 DoJE=F BraDBF=F KetDBF=F FulRan=T
         wScrn=  0.000000 ICntrl=       600 IOpCl=  0 I1Cent=           0 NGrid=           0
         NMat0=    1 NMatS0=   2775 NMatT0=    0 NMatD0=    1 NMtDS0=    0 NMtDT0=    0
 Symmetry not used in FoFCou.
 Two-electron integral symmetry not used.
 UHF open shell SCF:
 Using DIIS extrapolation, IDIIS=  1040.
 NGot=   536870912 LenX=   529154583 LenY=   529148366
 Requested convergence on RMS density matrix=1.00D-08 within 128 cycles.
 Requested convergence on MAX density matrix=1.00D-06.
 Requested convergence on             energy=1.00D-06.
 No special actions if energy rises.

 Cycle   1  Pass 1  IDiag  1:
 E= -95.6547781403623    
 DIIS: error= 3.90D-02 at cycle   1 NSaved=   1.
 NSaved= 1 IEnMin= 1 EnMin= -95.6547781403623     IErMin= 1 ErrMin= 3.90D-02
 ErrMax= 3.90D-02  0.00D+00 EMaxC= 1.00D-01 BMatC= 3.64D-01 BMatP= 3.64D-01
 IDIUse=3 WtCom= 6.10D-01 WtEn= 3.90D-01
 Coeff-Com:  0.100D+01
 Coeff-En:   0.100D+01
 Coeff:      0.100D+01
 Gap=     0.274 Goal=   None    Shift=    0.000
 Gap=     0.274 Goal=   None    Shift=    0.000
 GapD=    0.274 DampG=1.000 DampE=0.500 DampFc=0.5000 IDamp=-1.
 Damping current iteration by 5.00D-01
 RMSDP=4.59D-03 MaxDP=8.33D-02              OVMax= 1.61D-01

 Cycle   2  Pass 1  IDiag  1:
 E= -95.6891533848284     Delta-E=       -0.034375244466 Rises=F Damp=T
 DIIS: error= 1.24D-02 at cycle   2 NSaved=   2.
 NSaved= 2 IEnMin= 2 EnMin= -95.6891533848284     IErMin= 2 ErrMin= 1.24D-02
 ErrMax= 1.24D-02  0.00D+00 EMaxC= 1.00D-01 BMatC= 2.70D-02 BMatP= 3.64D-01
 IDIUse=3 WtCom= 8.76D-01 WtEn= 1.24D-01
 Coeff-Com: -0.327D-01 0.103D+01
 Coeff-En:   0.000D+00 0.100D+01
 Coeff:     -0.286D-01 0.103D+01
 Gap=     0.323 Goal=   None    Shift=    0.000
 Gap=     0.323 Goal=   None    Shift=    0.000
 RMSDP=1.06D-03 MaxDP=1.85D-02 DE=-3.44D-02 OVMax= 1.10D-01

 Cycle   3  Pass 1  IDiag  1:
 E= -95.7216534573586     Delta-E=       -0.032500072530 Rises=F Damp=F
 DIIS: error= 1.50D-02 at cycle   3 NSaved=   3.
 NSaved= 3 IEnMin= 3 EnMin= -95.7216534573586     IErMin= 2 ErrMin= 1.24D-02
 ErrMax= 1.50D-02  0.00D+00 EMaxC= 1.00D-01 BMatC= 2.13D-02 BMatP= 2.70D-02
 IDIUse=3 WtCom= 8.50D-01 WtEn= 1.50D-01
 Coeff-Com: -0.862D-01 0.511D+00 0.575D+00
 Coeff-En:   0.000D+00 0.000D+00 0.100D+01
 Coeff:     -0.733D-01 0.434D+00 0.639D+00
 Gap=     0.268 Goal=   None    Shift=    0.000
 Gap=     0.268 Goal=   None    Shift=    0.000
 RMSDP=8.23D-04 MaxDP=1.52D-02 DE=-3.25D-02 OVMax= 5.00D-02

 Cycle   4  Pass 1  IDiag  1:
 E= -95.7250165707215     Delta-E=       -0.003363113363 Rises=F Damp=F
 DIIS: error= 8.78D-03 at cycle   4 NSaved=   4.
 NSaved= 4 IEnMin= 4 EnMin= -95.7250165707215     IErMin= 4 ErrMin= 8.78D-03
 ErrMax= 8.78D-03  0.00D+00 EMaxC= 1.00D-01 BMatC= 7.90D-03 BMatP= 2.13D-02
 IDIUse=3 WtCom= 9.12D-01 WtEn= 8.78D-02
 Coeff-Com: -0.249D-01 0.762D-01 0.399D+00 0.550D+00
 Coeff-En:   0.000D+00 0.000D+00 0.306D+00 0.694D+00
 Coeff:     -0.228D-01 0.695D-01 0.391D+00 0.562D+00
 Gap=     0.278 Goal=   None    Shift=    0.000
 Gap=     0.278 Goal=   None    Shift=    0.000
 RMSDP=3.45D-04 MaxDP=7.03D-03 DE=-3.36D-03 OVMax= 1.77D-02

 Cycle   5  Pass 1  IDiag  1:
 E= -95.7270089136122     Delta-E=       -0.001992342891 Rises=F Damp=F
 DIIS: error= 3.40D-04 at cycle   5 NSaved=   5.
 NSaved= 5 IEnMin= 5 EnMin= -95.7270089136122     IErMin= 5 ErrMin= 3.40D-04
 ErrMax= 3.40D-04  0.00D+00 EMaxC= 1.00D-01 BMatC= 2.38D-05 BMatP= 7.90D-03
 IDIUse=3 WtCom= 9.97D-01 WtEn= 3.40D-03
 Coeff-Com: -0.256D-02 0.338D-02 0.854D-01 0.150D+00 0.764D+00
 Coeff-En:   0.000D+00 0.000D+00 0.000D+00 0.000D+00 0.100D+01
 Coeff:     -0.255D-02 0.337D-02 0.852D-01 0.150D+00 0.764D+00
 Gap=     0.278 Goal=   None    Shift=    0.000
 Gap=     0.278 Goal=   None    Shift=    0.000
 RMSDP=2.53D-05 MaxDP=3.89D-04 DE=-1.99D-03 OVMax= 1.00D-03

 Cycle   6  Pass 1  IDiag  1:
 E= -95.7270147869708     Delta-E=       -0.000005873359 Rises=F Damp=F
 DIIS: error= 5.09D-05 at cycle   6 NSaved=   6.
 NSaved= 6 IEnMin= 6 EnMin= -95.7270147869708     IErMin= 6 ErrMin= 5.09D-05
 ErrMax= 5.09D-05  0.00D+00 EMaxC= 1.00D-01 BMatC= 5.43D-07 BMatP= 2.38D-05
 IDIUse=1 WtCom= 1.00D+00 WtEn= 0.00D+00
 Coeff-Com:  0.100D-02-0.234D-02-0.151D-01-0.306D-01-0.738D-01 0.112D+01
 Coeff:      0.100D-02-0.234D-02-0.151D-01-0.306D-01-0.738D-01 0.112D+01
 Gap=     0.278 Goal=   None    Shift=    0.000
 Gap=     0.278 Goal=   None    Shift=    0.000
 RMSDP=7.69D-06 MaxDP=1.05D-04 DE=-5.87D-06 OVMax= 2.27D-04

 Cycle   7  Pass 1  IDiag  1:
 E= -95.7270149783236     Delta-E=       -0.000000191353 Rises=F Damp=F
 DIIS: error= 4.34D-06 at cycle   7 NSaved=   7.
 NSaved= 7 IEnMin= 7 EnMin= -95.7270149783236     IErMin= 7 ErrMin= 4.34D-06
 ErrMax= 4.34D-06  0.00D+00 EMaxC= 1.00D-01 BMatC= 5.58D-09 BMatP= 5.43D-07
 IDIUse=1 WtCom= 1.00D+00 WtEn= 0.00D+00
 Coeff-Com: -0.948D-04 0.208D-03 0.732D-04-0.198D-03-0.752D-02-0.835D-01
 Coeff-Com:  0.109D+01
 Coeff:     -0.948D-04 0.208D-03 0.732D-04-0.198D-03-0.752D-02-0.835D-01
 Coeff:      0.109D+01
 Gap=     0.278 Goal=   None    Shift=    0.000
 Gap=     0.278 Goal=   None    Shift=    0.000
 RMSDP=1.09D-06 MaxDP=1.95D-05 DE=-1.91D-07 OVMax= 4.80D-05

 Cycle   8  Pass 1  IDiag  1:
 E= -95.7270149819761     Delta-E=       -0.000000003653 Rises=F Damp=F
 DIIS: error= 1.15D-06 at cycle   8 NSaved=   8.
 NSaved= 8 IEnMin= 8 EnMin= -95.7270149819761     IErMin= 8 ErrMin= 1.15D-06
 ErrMax= 1.15D-06  0.00D+00 EMaxC= 1.00D-01 BMatC= 4.67D-10 BMatP= 5.58D-09
 IDIUse=1 WtCom= 1.00D+00 WtEn= 0.00D+00
 Coeff-Com: -0.574D-04 0.126D-03 0.655D-03 0.115D-02 0.288D-02-0.569D-01
 Coeff-Com:  0.109D+00 0.943D+00
 Coeff:     -0.574D-04 0.126D-03 0.655D-03 0.115D-02 0.288D-02-0.569D-01
 Coeff:      0.109D+00 0.943D+00
 Gap=     0.278 Goal=   None    Shift=    0.000
 Gap=     0.278 Goal=   None    Shift=    0.000
 RMSDP=2.30D-07 MaxDP=4.54D-06 DE=-3.65D-09 OVMax= 9.84D-06

 Cycle   9  Pass 1  IDiag  1:
 E= -95.7270149821778     Delta-E=       -0.000000000202 Rises=F Damp=F
 DIIS: error= 3.70D-07 at cycle   9 NSaved=   9.
 NSaved= 9 IEnMin= 9 EnMin= -95.7270149821778     IErMin= 9 ErrMin= 3.70D-07
 ErrMax= 3.70D-07  0.00D+00 EMaxC= 1.00D-01 BMatC= 2.65D-11 BMatP= 4.67D-10
 IDIUse=1 WtCom= 1.00D+00 WtEn= 0.00D+00
 Coeff-Com:  0.635D-05-0.125D-04-0.486D-04-0.105D-03 0.153D-03 0.413D-02
 Coeff-Com: -0.228D-01-0.146D+00 0.116D+01
 Coeff:      0.635D-05-0.125D-04-0.486D-04-0.105D-03 0.153D-03 0.413D-02
 Coeff:     -0.228D-01-0.146D+00 0.116D+01
 Gap=     0.278 Goal=   None    Shift=    0.000
 Gap=     0.278 Goal=   None    Shift=    0.000
 RMSDP=8.28D-08 MaxDP=9.51D-07 DE=-2.02D-10 OVMax= 4.03D-06

 Cycle  10  Pass 1  IDiag  1:
 E= -95.7270149821978     Delta-E=       -0.000000000020 Rises=F Damp=F
 DIIS: error= 1.67D-07 at cycle  10 NSaved=  10.
 NSaved=10 IEnMin=10 EnMin= -95.7270149821978     IErMin=10 ErrMin= 1.67D-07
 ErrMax= 1.67D-07  0.00D+00 EMaxC= 1.00D-01 BMatC= 2.71D-12 BMatP= 2.65D-11
 IDIUse=1 WtCom= 1.00D+00 WtEn= 0.00D+00
 Coeff-Com:  0.357D-06-0.170D-05 0.192D-05 0.585D-05-0.356D-04 0.279D-03
 Coeff-Com:  0.850D-02-0.348D-01-0.372D+00 0.140D+01
 Coeff:      0.357D-06-0.170D-05 0.192D-05 0.585D-05-0.356D-04 0.279D-03
 Coeff:      0.850D-02-0.348D-01-0.372D+00 0.140D+01
 Gap=     0.278 Goal=   None    Shift=    0.000
 Gap=     0.278 Goal=   None    Shift=    0.000
 RMSDP=3.51D-08 MaxDP=3.67D-07 DE=-2.00D-11 OVMax= 1.79D-06

 Cycle  11  Pass 1  IDiag  1:
 E= -95.7270149822008     Delta-E=       -0.000000000003 Rises=F Damp=F
 DIIS: error= 3.04D-08 at cycle  11 NSaved=  11.
 NSaved=11 IEnMin=11 EnMin= -95.7270149822008     IErMin=11 ErrMin= 3.04D-08
 ErrMax= 3.04D-08  0.00D+00 EMaxC= 1.00D-01 BMatC= 1.24D-13 BMatP= 2.71D-12
 IDIUse=1 WtCom= 1.00D+00 WtEn= 0.00D+00
 Coeff-Com: -0.401D-06 0.756D-06-0.119D-05 0.227D-05-0.833D-05-0.207D-03
 Coeff-Com:  0.163D-02 0.110D-01-0.360D-01-0.189D+00 0.121D+01
 Coeff:     -0.401D-06 0.756D-06-0.119D-05 0.227D-05-0.833D-05-0.207D-03
 Coeff:      0.163D-02 0.110D-01-0.360D-01-0.189D+00 0.121D+01
 Gap=     0.278 Goal=   None    Shift=    0.000
 Gap=     0.278 Goal=   None    Shift=    0.000
 RMSDP=8.02D-09 MaxDP=7.64D-08 DE=-2.98D-12 OVMax= 4.89D-07

 SCF Done:  E(UM062X) =  -95.7270149822     A.U. after   11 cycles
            NFock= 11  Conv=0.80D-08     -V/T= 2.0080
 <Sx>= 0.0000 <Sy>= 0.0000 <Sz>= 0.0000 <S**2>=-0.0000 S=-0.0000
 <L.S>=  0.00000000000    
 KE= 9.497093148131D+01 PE=-2.923042730872D+02 EE= 6.668436531970D+01
 Annihilation of the first spin contaminant:
 S**2 before annihilation    -0.0000,   after    -0.0000
 Leave Link  502 at Mon Apr 21 18:10:56 2025, MaxMem=   536870912 cpu:              70.3 elap:               9.2
 (Enter /home/szhao/Apps/g16/l601.exe)
 Copying SCF densities to generalized density rwf, IOpCl= 1 IROHF=0.

 **********************************************************************

            Population analysis using the SCF density.

 **********************************************************************

 Alpha  occ. eigenvalues --  -14.74593 -10.59576  -0.90924  -0.78249  -0.52412
 Alpha  occ. eigenvalues --   -0.48131  -0.47516  -0.39092  -0.30688
 Alpha virt. eigenvalues --   -0.02862   0.01860   0.05665   0.06193   0.07129
 Alpha virt. eigenvalues --    0.10756   0.13267   0.16343   0.18191   0.19143
 Alpha virt. eigenvalues --    0.21204   0.21272   0.22949   0.28187   0.42175
 Alpha virt. eigenvalues --    0.43239   0.50191   0.58075   0.62507   0.63556
 Alpha virt. eigenvalues --    0.64021   0.69141   0.79940   0.82239   0.88327
 Alpha virt. eigenvalues --    0.90239   1.06757   1.09532   1.11507   1.28794
 Alpha virt. eigenvalues --    1.34239   1.42348   1.49512   1.59051   1.59235
 Alpha virt. eigenvalues --    1.65110   1.71470   1.73168   1.77392   1.97796
 Alpha virt. eigenvalues --    2.00698   2.06096   2.17901   2.18174   2.35415
 Alpha virt. eigenvalues --    2.42837   2.44701   2.49170   2.52301   2.52421
 Alpha virt. eigenvalues --    2.52667   2.55505   2.58144   2.71870   2.78504
 Alpha virt. eigenvalues --    2.95627   3.05057   3.13115   3.75254   3.75284
 Alpha virt. eigenvalues --    3.95355   4.34588   4.76348  23.93848  35.61148
  Beta  occ. eigenvalues --  -14.74593 -10.59576  -0.90924  -0.78249  -0.52412
  Beta  occ. eigenvalues --   -0.48131  -0.47516  -0.39092  -0.30688
  Beta virt. eigenvalues --   -0.02862   0.01860   0.05665   0.06193   0.07129
  Beta virt. eigenvalues --    0.10756   0.13267   0.16343   0.18191   0.19143
  Beta virt. eigenvalues --    0.21204   0.21272   0.22949   0.28187   0.42175
  Beta virt. eigenvalues --    0.43239   0.50191   0.58075   0.62507   0.63556
  Beta virt. eigenvalues --    0.64021   0.69141   0.79940   0.82239   0.88327
  Beta virt. eigenvalues --    0.90239   1.06757   1.09532   1.11507   1.28794
  Beta virt. eigenvalues --    1.34239   1.42348   1.49512   1.59051   1.59235
  Beta virt. eigenvalues --    1.65110   1.71470   1.73168   1.77392   1.97796
  Beta virt. eigenvalues --    2.00698   2.06096   2.17901   2.18174   2.35415
  Beta virt. eigenvalues --    2.42837   2.44701   2.49170   2.52301   2.52421
  Beta virt. eigenvalues --    2.52667   2.55505   2.58144   2.71870   2.78504
  Beta virt. eigenvalues --    2.95627   3.05057   3.13115   3.75254   3.75284
  Beta virt. eigenvalues --    3.95355   4.34588   4.76348  23.93848  35.61148
          Condensed to atoms (all electrons):
               1          2          3          4          5          6
     1  C    5.013207   0.235232  -0.016533   0.394310  -0.016533   0.394310
     2  N    0.235232   6.683172   0.367420  -0.014736   0.367420  -0.014736
     3  H   -0.016533   0.367420   0.456829   0.000782  -0.044890  -0.000354
     4  H    0.394310  -0.014736   0.000782   0.505522  -0.000354  -0.028365
     5  H   -0.016533   0.367420  -0.044890  -0.000354   0.456828   0.000782
     6  H    0.394310  -0.014736  -0.000354  -0.028365   0.000782   0.505522
     7  H    0.384510  -0.026567   0.000963  -0.030878   0.000963  -0.030878
               7
     1  C    0.384510
     2  N   -0.026567
     3  H    0.000963
     4  H   -0.030878
     5  H    0.000963
     6  H   -0.030878
     7  H    0.535178
          Atomic-Atomic Spin Densities.
               1          2          3          4          5          6
     1  C   -0.000000  -0.000000  -0.000000  -0.000000  -0.000000   0.000000
     2  N   -0.000000   0.000000   0.000000   0.000000  -0.000000   0.000000
     3  H   -0.000000   0.000000  -0.000000  -0.000000  -0.000000  -0.000000
     4  H   -0.000000   0.000000  -0.000000  -0.000000   0.000000   0.000000
     5  H   -0.000000  -0.000000  -0.000000   0.000000   0.000000   0.000000
     6  H    0.000000   0.000000  -0.000000   0.000000   0.000000  -0.000000
     7  H   -0.000000   0.000000   0.000000  -0.000000  -0.000000  -0.000000
               7
     1  C   -0.000000
     2  N    0.000000
     3  H    0.000000
     4  H   -0.000000
     5  H   -0.000000
     6  H   -0.000000
     7  H    0.000000
 Mulliken charges and spin densities:
               1          2
     1  C   -0.388503  -0.000000
     2  N   -0.597206   0.000000
     3  H    0.235782  -0.000000
     4  H    0.173718  -0.000000
     5  H    0.235782  -0.000000
     6  H    0.173718   0.000000
     7  H    0.166709   0.000000
 Sum of Mulliken charges =  -0.00000  -0.00000
 Mulliken charges and spin densities with hydrogens summed into heavy atoms:
               1          2
     1  C    0.125642  -0.000000
     2  N   -0.125642   0.000000
 Electronic spatial extent (au):  <R**2>=            140.0789
 Charge=             -0.0000 electrons
 Dipole moment (field-independent basis, Debye):
    X=             -1.3445    Y=             -0.7023    Z=              1.1902  Tot=              1.9281
 Quadrupole moment (field-independent basis, Debye-Ang):
   XX=            -11.9153   YY=            -13.7209   ZZ=            -15.0202
   XY=             -1.3517   XZ=              2.2907   YZ=              1.1763
 Traceless Quadrupole moment (field-independent basis, Debye-Ang):
   XX=              1.6368   YY=             -0.1688   ZZ=             -1.4681
   XY=             -1.3517   XZ=              2.2907   YZ=              1.1763
 Octapole moment (field-independent basis, Debye-Ang**2):
  XXX=              1.5521  YYY=              0.4882  ZZZ=             -0.6697  XYY=              1.2803
  XXY=             -1.6681  XXZ=              2.8270  XZZ=             -0.4489  YZZ=              0.0365
  YYZ=             -0.2196  XYZ=              1.5654
 Hexadecapole moment (field-independent basis, Debye-Ang**3):
 XXXX=           -132.1833 YYYY=            -24.8007 ZZZZ=            -26.4154 XXXY=             -2.0665
 XXXZ=              3.5021 YYYX=             -2.2297 YYYZ=              0.5112 ZZZX=              0.1141
 ZZZY=              0.9505 XXYY=            -23.5482 XXZZ=            -25.7259 YYZZ=             -8.7203
 XXYZ=              1.9715 YYXZ=             -0.0455 ZZXY=              2.1892
 N-N= 3.492196130395D+01 E-N=-2.923042725436D+02  KE= 9.497093148131D+01
                          Isotropic Fermi Contact Couplings
        Atom                 a.u.       MegaHertz       Gauss      10(-4) cm-1
     1  C(13)             -0.00000      -0.00000      -0.00000      -0.00000
     2  N(14)              0.00000       0.00000       0.00000       0.00000
     3  H(1)               0.00000       0.00000       0.00000       0.00000
     4  H(1)              -0.00000      -0.00000      -0.00000      -0.00000
     5  H(1)               0.00000       0.00000       0.00000       0.00000
     6  H(1)              -0.00000      -0.00000      -0.00000      -0.00000
     7  H(1)              -0.00000      -0.00000      -0.00000      -0.00000
 --------------------------------------------------------
       Center         ----  Spin Dipole Couplings  ----
                      3XX-RR        3YY-RR        3ZZ-RR
 --------------------------------------------------------
     1   Atom        0.000000      0.000000      0.000000
     2   Atom        0.000000      0.000000      0.000000
     3   Atom        0.000000      0.000000      0.000000
     4   Atom        0.000000      0.000000      0.000000
     5   Atom        0.000000      0.000000      0.000000
     6   Atom        0.000000      0.000000      0.000000
     7   Atom        0.000000      0.000000      0.000000
 --------------------------------------------------------
                        XY            XZ            YZ
 --------------------------------------------------------
     1   Atom        0.000000      0.000000      0.000000
     2   Atom        0.000000      0.000000      0.000000
     3   Atom        0.000000      0.000000      0.000000
     4   Atom        0.000000      0.000000      0.000000
     5   Atom        0.000000      0.000000      0.000000
     6   Atom        0.000000      0.000000      0.000000
     7   Atom        0.000000      0.000000      0.000000
 --------------------------------------------------------


 ---------------------------------------------------------------------------------
              Anisotropic Spin Dipole Couplings in Principal Axis System
 ---------------------------------------------------------------------------------

       Atom             a.u.   MegaHertz   Gauss  10(-4) cm-1        Axes

              Baa     0.0000     0.000     0.000     0.000  1.0000  0.0000  0.0000
     1 C(13)  Bbb     0.0000     0.000     0.000     0.000 -0.0000  1.0000  0.0000
              Bcc     0.0000     0.000     0.000     0.000  0.0000  0.0000  1.0000
 
              Baa     0.0000     0.000     0.000     0.000  1.0000  0.0000  0.0000
     2 N(14)  Bbb     0.0000     0.000     0.000     0.000 -0.0000  1.0000  0.0000
              Bcc     0.0000     0.000     0.000     0.000  0.0000  0.0000  1.0000
 
              Baa     0.0000     0.000     0.000     0.000  1.0000  0.0000  0.0000
     3 H(1)   Bbb     0.0000     0.000     0.000     0.000 -0.0000  1.0000  0.0000
              Bcc     0.0000     0.000     0.000     0.000  0.0000  0.0000  1.0000
 
              Baa     0.0000     0.000     0.000     0.000  1.0000  0.0000  0.0000
     4 H(1)   Bbb     0.0000     0.000     0.000     0.000 -0.0000  1.0000  0.0000
              Bcc     0.0000     0.000     0.000     0.000  0.0000  0.0000  1.0000
 
              Baa     0.0000     0.000     0.000     0.000  1.0000  0.0000  0.0000
     5 H(1)   Bbb     0.0000     0.000     0.000     0.000 -0.0000  1.0000  0.0000
              Bcc     0.0000     0.000     0.000     0.000  0.0000  0.0000  1.0000
 
              Baa     0.0000     0.000     0.000     0.000  1.0000  0.0000  0.0000
     6 H(1)   Bbb     0.0000     0.000     0.000     0.000 -0.0000  1.0000  0.0000
              Bcc     0.0000     0.000     0.000     0.000  0.0000  0.0000  1.0000
 
              Baa     0.0000     0.000     0.000     0.000  1.0000  0.0000  0.0000
     7 H(1)   Bbb     0.0000     0.000     0.000     0.000 -0.0000  1.0000  0.0000
              Bcc     0.0000     0.000     0.000     0.000  0.0000  0.0000  1.0000
 

 ---------------------------------------------------------------------------------

 No NMR shielding tensors so no spin-rotation constants.
 Leave Link  601 at Mon Apr 21 18:10:56 2025, MaxMem=   536870912 cpu:               1.5 elap:               0.2
 (Enter /home/szhao/Apps/g16/l701.exe)
 ... and contract with generalized density number  0.
 Compute integral first derivatives.
 Leave Link  701 at Mon Apr 21 18:10:57 2025, MaxMem=   536870912 cpu:               1.5 elap:               0.2
 (Enter /home/szhao/Apps/g16/l702.exe)
 L702 exits ... SP integral derivatives will be done elsewhere.
 Leave Link  702 at Mon Apr 21 18:10:57 2025, MaxMem=   536870912 cpu:               0.4 elap:               0.1
 (Enter /home/szhao/Apps/g16/l703.exe)
 Integral derivatives from FoFJK, PRISM(SPDF).
 Compute integral first derivatives, UseDBF=F ICtDFT=           0.
 Calling FoFJK, ICntrl=      2127 FMM=F ISym2X=0 I1Cent= 0 IOpClX= 1 NMat=1 NMatS=1 NMatT=0.
 FoFJK:  IHMeth= 1 ICntrl=    2127 DoSepK=F KAlg= 0 I1Cent=           0 FoldK=F
 IRaf=         0 NMat=       1 IRICut=       1 DoRegI=T DoRafI=F ISym2E= 0 IDoP0=0 IntGTp=1.
 FoFCou: FMM=F IPFlag=           0 FMFlag=      100000 FMFlg1=         800
         NFxFlg=           0 DoJE=F BraDBF=F KetDBF=F FulRan=T
         wScrn=  0.000000 ICntrl=      2127 IOpCl=  1 I1Cent=           0 NGrid=           0
         NMat0=    1 NMatS0=      1 NMatT0=    0 NMatD0=    1 NMtDS0=    0 NMtDT0=    0
 Symmetry not used in FoFCou.
 Leave Link  703 at Mon Apr 21 18:10:58 2025, MaxMem=   536870912 cpu:              10.8 elap:               1.4
 (Enter /home/szhao/Apps/g16/l716.exe)
 Dipole        =-5.28974964D-01-2.76311188D-01 4.68259789D-01
 -------------------------------------------------------------------
 Center     Atomic                   Forces (Hartrees/Bohr)
 Number     Number              X              Y              Z
 -------------------------------------------------------------------
      1        6          -0.000000000   -0.000000000   -0.000000000
      2        7          -0.000000000   -0.000000000   -0.000000000
      3        1          -0.012080440   -0.008992594    0.003959950
      4        1           0.018391233    0.003387442    0.001533159
      5        1          -0.012081771    0.000882142    0.009785760
      6        1           0.018389490   -0.002977980   -0.002225758
      7        1           0.016947612   -0.000675893    0.001144130
 -------------------------------------------------------------------
 Cartesian Forces:  Max     0.018391233 RMS     0.008389447
 Leave Link  716 at Mon Apr 21 18:10:59 2025, MaxMem=   536870912 cpu:               0.3 elap:               0.2
 (Enter /home/szhao/Apps/g16/l103.exe)

 GradGradGradGradGradGradGradGradGradGradGradGradGradGradGradGradGradGrad
 Berny optimization.
 FormGI is forming the generalized inverse of G from B-inverse, IUseBI=4.
 Internal  Forces:  Max     0.053728335 RMS     0.016898682
 Search for a local minimum.
 Step number   1 out of a maximum of   36
 All quantities printed in internal units (Hartrees-Bohrs-Radians)
 RMS Force = .12727D-01 SwitMx=.10000D-02 MixMth= 1
 Mixed Optimization -- RFO/linear search
 Second derivative matrix not updated -- first step.
 ITU=  0
     Eigenvalues ---    0.00230   0.03652   0.06492   0.07285   0.16000
     Eigenvalues ---    0.16000   0.16000   0.16000   0.16000   0.33969
     Eigenvalues ---    0.34689   0.34689   0.45510   0.455101000.00000
     Eigenvalues --- 1000.000001000.000001000.000001000.000001000.00000
     Eigenvalues --- 1000.000001000.000001000.000001000.000001000.00000
     Eigenvalues --- 1000.00000
 RFO step:  Lambda=-2.07064191D-02 EMin= 2.30000000D-03
 Linear search not attempted -- first point.
 Maximum step size (   0.300) exceeded in Quadratic search.
    -- Step size scaled by   0.918
 Iteration  1 RMS(Cart)=  0.10754242 RMS(Int)=  0.01106491
 Iteration  2 RMS(Cart)=  0.00944662 RMS(Int)=  0.00700339
 Iteration  3 RMS(Cart)=  0.00017058 RMS(Int)=  0.00700276
 Iteration  4 RMS(Cart)=  0.00000526 RMS(Int)=  0.00700276
 Iteration  5 RMS(Cart)=  0.00000017 RMS(Int)=  0.00700276
 ITry= 1 IFail=0 DXMaxC= 2.71D-01 DCOld= 1.00D+10 DXMaxT= 3.00D-01 DXLimC= 3.00D+00 Rises=F
 Variable       Old X    -DE/DX   Delta X   Delta X   Delta X     New X
                                 (Linear)    (Quad)   (Total)
    X1       -2.04193   0.05373   0.00000   0.00000   0.00000  -2.04193
    Y1        0.00000   0.00446   0.00000   0.00000   0.00000   0.00000
    Z1        0.00000  -0.00755   0.00000   0.00000   0.00000   0.00000
    X2        2.04193  -0.02416   0.00000   0.00000   0.00000   2.04193
    Y2        0.00000  -0.01283   0.00000   0.00000   0.00000   0.00000
    Z2        0.00000   0.02175   0.00000   0.00000   0.00000   0.00000
    R1        2.06182  -0.00285   0.00000  -0.00710  -0.00710   2.05472
    R2        2.06182  -0.00284   0.00000  -0.00710  -0.00710   2.05472
    R3        2.07383  -0.00596   0.00000  -0.01517  -0.01517   2.05866
    R4        1.91387   0.00409   0.00000   0.00788   0.00788   1.92176
    R5        1.91387   0.00409   0.00000   0.00788   0.00788   1.92175
    A1        1.90417  -0.01884   0.00000  -0.09482  -0.09889   1.80528
    A2        1.90417  -0.01884   0.00000  -0.09480  -0.09887   1.80530
    A3        2.00713  -0.01393   0.00000  -0.07263  -0.07638   1.93075
    A4        1.87025   0.01872   0.00000   0.09919   0.09385   1.96410
    A5        1.88671   0.01793   0.00000   0.08932   0.08494   1.97165
    A6        1.88671   0.01793   0.00000   0.08932   0.08495   1.97165
    A7        1.93597  -0.02116   0.00000  -0.14139  -0.14884   1.78713
    A8        1.93597  -0.02116   0.00000  -0.14140  -0.14885   1.78712
    A9        1.86950   0.01272   0.00000  -0.00093  -0.02667   1.84283
    D1       -3.12283  -0.00637   0.00000  -0.09832  -0.09087   3.06948
    D2        1.08495   0.00512   0.00000   0.08606   0.07747   1.16242
    D3       -1.08494  -0.00513   0.00000  -0.08611  -0.07752  -1.16246
    D4        3.12284   0.00637   0.00000   0.09827   0.09082  -3.06952
    D5        1.03771  -0.00575   0.00000  -0.09221  -0.08419   0.95352
    D6       -1.03770   0.00575   0.00000   0.09217   0.08415  -0.95354
         Item               Value     Threshold  Converged?
 Maximum Force            0.021158     0.000450     NO 
 RMS     Force            0.012727     0.000300     NO 
 Maximum Displacement     0.270987     0.001800     NO 
 RMS     Displacement     0.110717     0.001200     NO 
 Predicted change in Energy=-1.104120D-02
 Lowest energy point so far.  Saving SCF results.
 GradGradGradGradGradGradGradGradGradGradGradGradGradGradGradGradGradGrad

 Leave Link  103 at Mon Apr 21 18:10:59 2025, MaxMem=   536870912 cpu:               0.8 elap:               0.2
 (Enter /home/szhao/Apps/g16/l202.exe)
                          Input orientation:                          
 ---------------------------------------------------------------------
 Center     Atomic      Atomic             Coordinates (Angstroms)
 Number     Number       Type             X           Y           Z
 ---------------------------------------------------------------------
      1          6           0       -1.080542    0.000000    0.000000
      2          7           0        1.080542    0.000000    0.000000
      3          1           0        1.298828   -0.989856    0.081992
      4          1           0       -1.333170    1.057497   -0.011136
      5          1           0        1.298818    0.404019    0.907364
      6          1           0       -1.333189   -0.498630   -0.932623
      7          1           0       -1.464263   -0.519501    0.877302
 ---------------------------------------------------------------------
                    Distance matrix (angstroms):
                    1          2          3          4          5
     1  C    0.000000
     2  N    2.161084   0.000000
     3  H    2.578360   1.016950   0.000000
     4  H    1.087311   2.635229   3.335827   0.000000
     5  H    2.578351   1.016949   1.619915   2.863222   0.000000
     6  H    1.087312   2.635245   2.863261   1.808499   3.335834
     7  H    1.089395   2.741455   2.913490   1.814780   2.913488
                    6          7
     6  H    0.000000
     7  H    1.814785   0.000000
 Symmetry turned off by external request.
 Stoichiometry    CH5N
 Framework group  C1[X(CH5N)]
 Deg. of freedom    15
 Full point group                 C1      NOp   1
 Rotational constants (GHZ):          97.2579349          12.0978733          11.8859991
 Leave Link  202 at Mon Apr 21 18:10:59 2025, MaxMem=   536870912 cpu:               0.3 elap:               0.1
 (Enter /home/szhao/Apps/g16/l301.exe)
 Standard basis: 6-311+G(d,p) (5D, 7F)
 Ernie: Thresh=  0.10000D-02 Tol=  0.10000D-05 Strict=F.
    74 basis functions,   112 primitive gaussians,    76 cartesian basis functions
     9 alpha electrons        9 beta electrons
       nuclear repulsion energy        35.2021218761 Hartrees.
 IExCor= 4336 DFT=T Ex+Corr=M062X ExCW=0 ScaHFX=  0.540000
 ScaDFX=  1.000000  1.000000  1.000000  1.000000 ScalE2=  1.000000  1.000000
 IRadAn=      7 IRanWt=     -1 IRanGd=            0 ICorTp=0 IEmpDi=  4
 NAtoms=    7 NActive=    7 NUniq=    7 SFac= 1.00D+00 NAtFMM=   60 NAOKFM=F Big=F
 Integral buffers will be    131072 words long.
 Raffenetti 2 integral format.
 Two-electron integral symmetry is turned off.
 Leave Link  301 at Mon Apr 21 18:11:00 2025, MaxMem=   536870912 cpu:               1.3 elap:               0.3
 (Enter /home/szhao/Apps/g16/l302.exe)
 NPDir=0 NMtPBC=     1 NCelOv=     1 NCel=       1 NClECP=     1 NCelD=      1
         NCelK=      1 NCelE2=     1 NClLst=     1 CellRange=     0.0.
 One-electron integrals computed using PRISM.
 NBasis=    74 RedAO= T EigKep=  2.31D-03  NBF=    74
 NBsUse=    74 1.00D-06 EigRej= -1.00D+00 NBFU=    74
 Precomputing XC quadrature grid using
 IXCGrd= 4 IRadAn=           7 IRanWt=          -1 IRanGd=           0 AccXCQ= 0.00D+00.
 Generated NRdTot=       0 NPtTot=           0 NUsed=           0 NTot=          32
 NSgBfM=    76    76    76    76    76 MxSgAt=     7 MxSgA2=     7.
 Leave Link  302 at Mon Apr 21 18:11:01 2025, MaxMem=   536870912 cpu:               2.2 elap:               0.4
 (Enter /home/szhao/Apps/g16/l303.exe)
 DipDrv:  MaxL=1.
 Leave Link  303 at Mon Apr 21 18:11:01 2025, MaxMem=   536870912 cpu:               1.2 elap:               0.2
 (Enter /home/szhao/Apps/g16/l401.exe)
 Initial guess from the checkpoint file:  "opt.chk"
 B after Tr=     0.001676   -0.010953    0.018503
         Rot=    0.999968   -0.000771    0.006855    0.004052 Ang=  -0.92 deg.
 Guess basis will be translated and rotated to current coordinates.
 JPrj=2 DoOrth=T DoCkMO=T.
 Initial guess <Sx>= 0.0000 <Sy>= 0.0000 <Sz>= 0.0000 <S**2>= 0.0000 S= 0.0000
 Generating alternative initial guess.
 ExpMin= 4.38D-02 ExpMax= 6.29D+03 ExpMxC= 9.49D+02 IAcc=3 IRadAn=         5 AccDes= 0.00D+00
 Harris functional with IExCor= 1009 and IRadAn=       5 diagonalized for initial guess.
 HarFok:  IExCor= 1009 AccDes= 0.00D+00 IRadAn=         5 IDoV= 1 UseB2=F ITyADJ=14
 ICtDFT=  3500011 ScaDFX=  1.000000  1.000000  1.000000  1.000000
 FoFCou: FMM=F IPFlag=           0 FMFlag=      100000 FMFlg1=           0
         NFxFlg=           0 DoJE=T BraDBF=F KetDBF=T FulRan=T
         wScrn=  0.000000 ICntrl=       500 IOpCl=  0 I1Cent=   200000004 NGrid=           0
         NMat0=    1 NMatS0=      1 NMatT0=    0 NMatD0=    1 NMtDS0=    0 NMtDT0=    0
 Symmetry not used in FoFCou.
 Harris En= -95.7299263179397    
 Leave Link  401 at Mon Apr 21 18:11:02 2025, MaxMem=   536870912 cpu:               3.5 elap:               0.5
 (Enter /home/szhao/Apps/g16/l502.exe)
 Keep R1 and R2 ints in memory in canonical form, NReq=14944651.
 FoFCou: FMM=F IPFlag=           0 FMFlag=           0 FMFlg1=           0
         NFxFlg=           0 DoJE=F BraDBF=F KetDBF=F FulRan=T
         wScrn=  0.000000 ICntrl=       600 IOpCl=  0 I1Cent=           0 NGrid=           0
         NMat0=    1 NMatS0=   2775 NMatT0=    0 NMatD0=    1 NMtDS0=    0 NMtDT0=    0
 Symmetry not used in FoFCou.
 Two-electron integral symmetry not used.
 UHF open shell SCF:
 Using DIIS extrapolation, IDIIS=  1040.
 NGot=   536870912 LenX=   529154583 LenY=   529148366
 Requested convergence on RMS density matrix=1.00D-08 within 128 cycles.
 Requested convergence on MAX density matrix=1.00D-06.
 Requested convergence on             energy=1.00D-06.
 No special actions if energy rises.

 Cycle   1  Pass 1  IDiag  1:
 E= -95.7355355699339    
 DIIS: error= 7.91D-03 at cycle   1 NSaved=   1.
 NSaved= 1 IEnMin= 1 EnMin= -95.7355355699339     IErMin= 1 ErrMin= 7.91D-03
 ErrMax= 7.91D-03  0.00D+00 EMaxC= 1.00D-01 BMatC= 1.69D-02 BMatP= 1.69D-02
 IDIUse=3 WtCom= 9.21D-01 WtEn= 7.91D-02
 Coeff-Com:  0.100D+01
 Coeff-En:   0.100D+01
 Coeff:      0.100D+01
 Gap=     0.524 Goal=   None    Shift=    0.000
 Gap=     0.524 Goal=   None    Shift=    0.000
 GapD=    0.524 DampG=2.000 DampE=1.000 DampFc=2.0000 IDamp=-1.
 RMSDP=1.04D-03 MaxDP=1.31D-02              OVMax= 3.24D-02

 Cycle   2  Pass 1  IDiag  1:
 E= -95.7407254670258     Delta-E=       -0.005189897092 Rises=F Damp=F
 DIIS: error= 1.62D-03 at cycle   2 NSaved=   2.
 NSaved= 2 IEnMin= 2 EnMin= -95.7407254670258     IErMin= 2 ErrMin= 1.62D-03
 ErrMax= 1.62D-03  0.00D+00 EMaxC= 1.00D-01 BMatC= 7.78D-04 BMatP= 1.69D-02
 IDIUse=3 WtCom= 9.84D-01 WtEn= 1.62D-02
 Coeff-Com: -0.411D-01 0.104D+01
 Coeff-En:   0.000D+00 0.100D+01
 Coeff:     -0.404D-01 0.104D+01
 Gap=     0.298 Goal=   None    Shift=    0.000
 Gap=     0.298 Goal=   None    Shift=    0.000
 RMSDP=3.26D-04 MaxDP=5.22D-03 DE=-5.19D-03 OVMax= 1.83D-02

 Cycle   3  Pass 1  IDiag  1:
 E= -95.7407133252908     Delta-E=        0.000012141735 Rises=F Damp=F
 DIIS: error= 3.69D-03 at cycle   3 NSaved=   3.
 NSaved= 3 IEnMin= 2 EnMin= -95.7407254670258     IErMin= 2 ErrMin= 1.62D-03
 ErrMax= 3.69D-03  0.00D+00 EMaxC= 1.00D-01 BMatC= 1.41D-03 BMatP= 7.78D-04
 IDIUse=3 WtCom= 1.41D-01 WtEn= 8.59D-01
 Coeff-Com: -0.692D-01 0.639D+00 0.430D+00
 Coeff-En:   0.000D+00 0.514D+00 0.486D+00
 Coeff:     -0.978D-02 0.531D+00 0.478D+00
 Gap=     0.294 Goal=   None    Shift=    0.000
 Gap=     0.294 Goal=   None    Shift=    0.000
 RMSDP=1.81D-04 MaxDP=3.21D-03 DE= 1.21D-05 OVMax= 9.76D-03

 Cycle   4  Pass 1  IDiag  1:
 E= -95.7410066346665     Delta-E=       -0.000293309376 Rises=F Damp=F
 DIIS: error= 1.33D-03 at cycle   4 NSaved=   4.
 NSaved= 4 IEnMin= 4 EnMin= -95.7410066346665     IErMin= 4 ErrMin= 1.33D-03
 ErrMax= 1.33D-03  0.00D+00 EMaxC= 1.00D-01 BMatC= 1.97D-04 BMatP= 7.78D-04
 IDIUse=3 WtCom= 9.87D-01 WtEn= 1.33D-02
 Coeff-Com: -0.170D-01 0.992D-02 0.276D+00 0.731D+00
 Coeff-En:   0.000D+00 0.000D+00 0.133D+00 0.867D+00
 Coeff:     -0.168D-01 0.979D-02 0.274D+00 0.733D+00
 Gap=     0.295 Goal=   None    Shift=    0.000
 Gap=     0.295 Goal=   None    Shift=    0.000
 RMSDP=7.14D-05 MaxDP=1.05D-03 DE=-2.93D-04 OVMax= 4.75D-03

 Cycle   5  Pass 1  IDiag  1:
 E= -95.7410618985680     Delta-E=       -0.000055263902 Rises=F Damp=F
 DIIS: error= 1.27D-04 at cycle   5 NSaved=   5.
 NSaved= 5 IEnMin= 5 EnMin= -95.7410618985680     IErMin= 5 ErrMin= 1.27D-04
 ErrMax= 1.27D-04  0.00D+00 EMaxC= 1.00D-01 BMatC= 1.74D-06 BMatP= 1.97D-04
 IDIUse=3 WtCom= 9.99D-01 WtEn= 1.27D-03
 Coeff-Com:  0.692D-02-0.608D-01-0.641D-01-0.198D-01 0.114D+01
 Coeff-En:   0.000D+00 0.000D+00 0.000D+00 0.000D+00 0.100D+01
 Coeff:      0.691D-02-0.607D-01-0.640D-01-0.197D-01 0.114D+01
 Gap=     0.295 Goal=   None    Shift=    0.000
 Gap=     0.295 Goal=   None    Shift=    0.000
 RMSDP=2.77D-05 MaxDP=3.22D-04 DE=-5.53D-05 OVMax= 1.15D-03

 Cycle   6  Pass 1  IDiag  1:
 E= -95.7410637512824     Delta-E=       -0.000001852714 Rises=F Damp=F
 DIIS: error= 2.98D-05 at cycle   6 NSaved=   6.
 NSaved= 6 IEnMin= 6 EnMin= -95.7410637512824     IErMin= 6 ErrMin= 2.98D-05
 ErrMax= 2.98D-05  0.00D+00 EMaxC= 1.00D-01 BMatC= 1.29D-07 BMatP= 1.74D-06
 IDIUse=1 WtCom= 1.00D+00 WtEn= 0.00D+00
 Coeff-Com: -0.119D-02 0.194D-01-0.368D-02-0.432D-01-0.348D+00 0.138D+01
 Coeff:     -0.119D-02 0.194D-01-0.368D-02-0.432D-01-0.348D+00 0.138D+01
 Gap=     0.295 Goal=   None    Shift=    0.000
 Gap=     0.295 Goal=   None    Shift=    0.000
 RMSDP=7.82D-06 MaxDP=7.63D-05 DE=-1.85D-06 OVMax= 3.90D-04

 Cycle   7  Pass 1  IDiag  1:
 E= -95.7410638975658     Delta-E=       -0.000000146283 Rises=F Damp=F
 DIIS: error= 3.80D-06 at cycle   7 NSaved=   7.
 NSaved= 7 IEnMin= 7 EnMin= -95.7410638975658     IErMin= 7 ErrMin= 3.80D-06
 ErrMax= 3.80D-06  0.00D+00 EMaxC= 1.00D-01 BMatC= 3.59D-09 BMatP= 1.29D-07
 IDIUse=1 WtCom= 1.00D+00 WtEn= 0.00D+00
 Coeff-Com: -0.510D-03 0.521D-02 0.425D-02 0.495D-03-0.914D-01 0.162D+00
 Coeff-Com:  0.920D+00
 Coeff:     -0.510D-03 0.521D-02 0.425D-02 0.495D-03-0.914D-01 0.162D+00
 Coeff:      0.920D+00
 Gap=     0.295 Goal=   None    Shift=    0.000
 Gap=     0.295 Goal=   None    Shift=    0.000
 RMSDP=1.42D-06 MaxDP=1.85D-05 DE=-1.46D-07 OVMax= 4.86D-05

 Cycle   8  Pass 1  IDiag  1:
 E= -95.7410639002796     Delta-E=       -0.000000002714 Rises=F Damp=F
 DIIS: error= 2.02D-06 at cycle   8 NSaved=   8.
 NSaved= 8 IEnMin= 8 EnMin= -95.7410639002796     IErMin= 8 ErrMin= 2.02D-06
 ErrMax= 2.02D-06  0.00D+00 EMaxC= 1.00D-01 BMatC= 4.53D-10 BMatP= 3.59D-09
 IDIUse=1 WtCom= 1.00D+00 WtEn= 0.00D+00
 Coeff-Com:  0.299D-04-0.679D-03 0.446D-03 0.272D-02 0.627D-02-0.656D-01
 Coeff-Com:  0.402D-01 0.102D+01
 Coeff:      0.299D-04-0.679D-03 0.446D-03 0.272D-02 0.627D-02-0.656D-01
 Coeff:      0.402D-01 0.102D+01
 Gap=     0.295 Goal=   None    Shift=    0.000
 Gap=     0.295 Goal=   None    Shift=    0.000
 RMSDP=4.26D-07 MaxDP=7.74D-06 DE=-2.71D-09 OVMax= 1.59D-05

 Cycle   9  Pass 1  IDiag  1:
 E= -95.7410639005972     Delta-E=       -0.000000000318 Rises=F Damp=F
 DIIS: error= 6.70D-07 at cycle   9 NSaved=   9.
 NSaved= 9 IEnMin= 9 EnMin= -95.7410639005972     IErMin= 9 ErrMin= 6.70D-07
 ErrMax= 6.70D-07  0.00D+00 EMaxC= 1.00D-01 BMatC= 6.51D-11 BMatP= 4.53D-10
 IDIUse=1 WtCom= 1.00D+00 WtEn= 0.00D+00
 Coeff-Com:  0.500D-04-0.677D-03-0.120D-03 0.121D-02 0.945D-02-0.387D-01
 Coeff-Com: -0.535D-01 0.407D+00 0.675D+00
 Coeff:      0.500D-04-0.677D-03-0.120D-03 0.121D-02 0.945D-02-0.387D-01
 Coeff:     -0.535D-01 0.407D+00 0.675D+00
 Gap=     0.295 Goal=   None    Shift=    0.000
 Gap=     0.295 Goal=   None    Shift=    0.000
 RMSDP=8.65D-08 MaxDP=1.11D-06 DE=-3.18D-10 OVMax= 3.03D-06

 Cycle  10  Pass 1  IDiag  1:
 E= -95.7410639006181     Delta-E=       -0.000000000021 Rises=F Damp=F
 DIIS: error= 8.12D-08 at cycle  10 NSaved=  10.
 NSaved=10 IEnMin=10 EnMin= -95.7410639006181     IErMin=10 ErrMin= 8.12D-08
 ErrMax= 8.12D-08  0.00D+00 EMaxC= 1.00D-01 BMatC= 1.74D-12 BMatP= 6.51D-11
 IDIUse=1 WtCom= 1.00D+00 WtEn= 0.00D+00
 Coeff-Com:  0.171D-05 0.440D-05-0.630D-04-0.132D-03 0.208D-03 0.403D-02
 Coeff-Com: -0.947D-02-0.707D-01 0.269D-01 0.105D+01
 Coeff:      0.171D-05 0.440D-05-0.630D-04-0.132D-03 0.208D-03 0.403D-02
 Coeff:     -0.947D-02-0.707D-01 0.269D-01 0.105D+01
 Gap=     0.295 Goal=   None    Shift=    0.000
 Gap=     0.295 Goal=   None    Shift=    0.000
 RMSDP=2.67D-08 MaxDP=3.62D-07 DE=-2.09D-11 OVMax= 1.06D-06

 Cycle  11  Pass 1  IDiag  1:
 E= -95.7410639006193     Delta-E=       -0.000000000001 Rises=F Damp=F
 DIIS: error= 1.45D-08 at cycle  11 NSaved=  11.
 NSaved=11 IEnMin=11 EnMin= -95.7410639006193     IErMin=11 ErrMin= 1.45D-08
 ErrMax= 1.45D-08  0.00D+00 EMaxC= 1.00D-01 BMatC= 3.80D-14 BMatP= 1.74D-12
 IDIUse=1 WtCom= 1.00D+00 WtEn= 0.00D+00
 Coeff-Com: -0.103D-05 0.151D-04 0.396D-05-0.321D-04-0.240D-03 0.107D-02
 Coeff-Com:  0.861D-03-0.121D-01-0.133D-01 0.486D-01 0.975D+00
 Coeff:     -0.103D-05 0.151D-04 0.396D-05-0.321D-04-0.240D-03 0.107D-02
 Coeff:      0.861D-03-0.121D-01-0.133D-01 0.486D-01 0.975D+00
 Gap=     0.295 Goal=   None    Shift=    0.000
 Gap=     0.295 Goal=   None    Shift=    0.000
 RMSDP=3.85D-09 MaxDP=4.67D-08 DE=-1.25D-12 OVMax= 1.03D-07

 SCF Done:  E(UM062X) =  -95.7410639006     A.U. after   11 cycles
            NFock= 11  Conv=0.39D-08     -V/T= 2.0076
 <Sx>= 0.0000 <Sy>= 0.0000 <Sz>= 0.0000 <S**2>=-0.0000 S=-0.0000
 <L.S>=  0.00000000000    
 KE= 9.501724443331D+01 PE=-2.929159408517D+02 EE= 6.695551064161D+01
 Annihilation of the first spin contaminant:
 S**2 before annihilation    -0.0000,   after     0.0000
 Leave Link  502 at Mon Apr 21 18:11:11 2025, MaxMem=   536870912 cpu:              67.0 elap:               8.9
 (Enter /home/szhao/Apps/g16/l701.exe)
 ... and contract with generalized density number  0.
 Compute integral first derivatives.
 Leave Link  701 at Mon Apr 21 18:11:11 2025, MaxMem=   536870912 cpu:               1.0 elap:               0.2
 (Enter /home/szhao/Apps/g16/l702.exe)
 L702 exits ... SP integral derivatives will be done elsewhere.
 Leave Link  702 at Mon Apr 21 18:11:12 2025, MaxMem=   536870912 cpu:               0.8 elap:               0.1
 (Enter /home/szhao/Apps/g16/l703.exe)
 Integral derivatives from FoFJK, PRISM(SPDF).
 Compute integral first derivatives, UseDBF=F ICtDFT=           0.
 Calling FoFJK, ICntrl=      2127 FMM=F ISym2X=0 I1Cent= 0 IOpClX= 1 NMat=1 NMatS=1 NMatT=0.
 FoFJK:  IHMeth= 1 ICntrl=    2127 DoSepK=F KAlg= 0 I1Cent=           0 FoldK=F
 IRaf=         0 NMat=       1 IRICut=       1 DoRegI=T DoRafI=F ISym2E= 0 IDoP0=0 IntGTp=1.
 FoFCou: FMM=F IPFlag=           0 FMFlag=      100000 FMFlg1=         800
         NFxFlg=           0 DoJE=F BraDBF=F KetDBF=F FulRan=T
         wScrn=  0.000000 ICntrl=      2127 IOpCl=  1 I1Cent=           0 NGrid=           0
         NMat0=    1 NMatS0=      1 NMatT0=    0 NMatD0=    1 NMtDS0=    0 NMtDT0=    0
 Symmetry not used in FoFCou.
 Leave Link  703 at Mon Apr 21 18:11:13 2025, MaxMem=   536870912 cpu:              10.7 elap:               1.5
 (Enter /home/szhao/Apps/g16/l716.exe)
 Dipole        =-6.19405592D-01-3.25840241D-01 5.50278175D-01
 -------------------------------------------------------------------
 Center     Atomic                   Forces (Hartrees/Bohr)
 Number     Number              X              Y              Z
 -------------------------------------------------------------------
      1        6          -0.000000000   -0.000000000   -0.000000000
      2        7          -0.000000000   -0.000000000   -0.000000000
      3        1          -0.005458841   -0.004141505    0.001844165
      4        1           0.007794085   -0.000877395    0.000240572
      5        1          -0.005456378    0.000379771    0.004515742
      6        1           0.007794595    0.000209829    0.000885532
      7        1           0.008182644    0.000009919   -0.000018027
 -------------------------------------------------------------------
 Cartesian Forces:  Max     0.008182644 RMS     0.003721083
 Leave Link  716 at Mon Apr 21 18:11:13 2025, MaxMem=   536870912 cpu:               1.0 elap:               0.2
 (Enter /home/szhao/Apps/g16/l103.exe)

 GradGradGradGradGradGradGradGradGradGradGradGradGradGradGradGradGradGrad
 Berny optimization.
 Using GEDIIS/GDIIS optimizer.
 FormGI is forming the generalized inverse of G from B-inverse, IUseBI=4.
 Internal  Forces:  Max     0.023771324 RMS     0.007688685
 Search for a local minimum.
 Step number   2 out of a maximum of   36
 All quantities printed in internal units (Hartrees-Bohrs-Radians)
 RMS Force = .60283D-02 SwitMx=.10000D-02 MixMth= 1
 Mixed Optimization -- RFO/linear search
 Update second derivatives using D2CorX and points    1    2
 DE= -1.40D-02 DEPred=-1.10D-02 R= 1.27D+00
 TightC=F SS=  1.41D+00  RLast= 3.70D-01 DXNew= 5.0454D-01 1.1096D+00
 Trust test= 1.27D+00 RLast= 3.70D-01 DXMaxT set to 5.05D-01
 ITU=  1  0
 Use linear search instead of GDIIS.
     Eigenvalues ---    0.00230   0.04767   0.07527   0.08279   0.10551
     Eigenvalues ---    0.16000   0.16000   0.16000   0.16237   0.33899
     Eigenvalues ---    0.34659   0.34689   0.45402   0.455101000.00000
     Eigenvalues --- 1000.000001000.000001000.000001000.000001000.00000
     Eigenvalues --- 1000.000001000.000001000.000001000.000001000.00000
     Eigenvalues --- 1000.00000
 RFO step:  Lambda=-2.59035771D-04 EMin= 2.29999995D-03
 Quartic linear search produced a step of  0.63981.
 Iteration  1 RMS(Cart)=  0.07648137 RMS(Int)=  0.00862152
 Iteration  2 RMS(Cart)=  0.00420394 RMS(Int)=  0.00757310
 Iteration  3 RMS(Cart)=  0.00002731 RMS(Int)=  0.00757308
 Iteration  4 RMS(Cart)=  0.00000056 RMS(Int)=  0.00757308
 ITry= 1 IFail=0 DXMaxC= 1.97D-01 DCOld= 1.00D+10 DXMaxT= 5.05D-01 DXLimC= 3.00D+00 Rises=F
 Variable       Old X    -DE/DX   Delta X   Delta X   Delta X     New X
                                 (Linear)    (Quad)   (Total)
    X1       -2.04193   0.02377   0.00000   0.00000   0.00000  -2.04193
    Y1        0.00000   0.00117   0.00000   0.00000   0.00000   0.00000
    Z1        0.00000  -0.00199   0.00000   0.00000   0.00000   0.00000
    X2        2.04193  -0.01092   0.00000   0.00000   0.00000   2.04193
    Y2        0.00000  -0.00560   0.00000   0.00000   0.00000   0.00000
    Z2        0.00000   0.00945   0.00000   0.00000   0.00000   0.00000
    R1        2.05472  -0.00267  -0.00455  -0.00730  -0.01185   2.04287
    R2        2.05472  -0.00267  -0.00454  -0.00730  -0.01185   2.04287
    R3        2.05866  -0.00290  -0.00971  -0.00237  -0.01208   2.04657
    R4        1.92176   0.00301   0.00504   0.00506   0.01011   1.93186
    R5        1.92175   0.00301   0.00504   0.00507   0.01011   1.93186
    A1        1.80528  -0.00877  -0.06327   0.00158  -0.06704   1.73824
    A2        1.80530  -0.00877  -0.06326   0.00154  -0.06707   1.73823
    A3        1.93075  -0.00900  -0.04887  -0.02327  -0.07743   1.85332
    A4        1.96410   0.00698   0.06005  -0.00238   0.04939   2.01349
    A5        1.97165   0.00787   0.05435   0.00981   0.05628   2.02793
    A6        1.97165   0.00787   0.05435   0.00979   0.05626   2.02792
    A7        1.78713  -0.01115  -0.09523  -0.00533  -0.10444   1.68268
    A8        1.78712  -0.01115  -0.09524  -0.00527  -0.10439   1.68273
    A9        1.84283   0.00297  -0.01706   0.02301  -0.02087   1.82196
    D1        3.06948  -0.00225  -0.05814   0.01094  -0.03879   3.03069
    D2        1.16242   0.00147   0.04957  -0.01040   0.03000   1.19242
    D3       -1.16246  -0.00147  -0.04960   0.00956  -0.03088  -1.19333
    D4       -3.06952   0.00225   0.05811  -0.01178   0.03791  -3.03161
    D5        0.95352  -0.00186  -0.05386   0.01023  -0.03485   0.91867
    D6       -0.95354   0.00186   0.05384  -0.01111   0.03394  -0.91960
         Item               Value     Threshold  Converged?
 Maximum Force            0.011150     0.000450     NO 
 RMS     Force            0.006028     0.000300     NO 
 Maximum Displacement     0.196801     0.001800     NO 
 RMS     Displacement     0.076749     0.001200     NO 
 Predicted change in Energy=-3.882763D-03
 Lowest energy point so far.  Saving SCF results.
 GradGradGradGradGradGradGradGradGradGradGradGradGradGradGradGradGradGrad

 Leave Link  103 at Mon Apr 21 18:11:14 2025, MaxMem=   536870912 cpu:               1.8 elap:               0.3
 (Enter /home/szhao/Apps/g16/l202.exe)
                          Input orientation:                          
 ---------------------------------------------------------------------
 Center     Atomic      Atomic             Coordinates (Angstroms)
 Number     Number       Type             X           Y           Z
 ---------------------------------------------------------------------
      1          6           0       -1.080542    0.000000    0.000000
      2          7           0        1.080542    0.000000    0.000000
      3          1           0        1.194686   -1.008968    0.118528
      4          1           0       -1.260710    1.065903   -0.006436
      5          1           0        1.194729    0.380982    0.941758
      6          1           0       -1.260704   -0.505786   -0.938283
      7          1           0       -1.382460   -0.530436    0.894636
 ---------------------------------------------------------------------
                    Distance matrix (angstroms):
                    1          2          3          4          5
     1  C    0.000000
     2  N    2.161084   0.000000
     3  H    2.491732   1.022298   0.000000
     4  H    1.081042   2.572480   3.217091   0.000000
     5  H    2.491770   1.022299   1.615447   2.719811   0.000000
     6  H    1.081043   2.572476   2.720107   1.827169   3.217152
     7  H    1.083001   2.673596   2.733682   1.837132   2.734010
                    6          7
     6  H    0.000000
     7  H    1.837124   0.000000
 Symmetry turned off by external request.
 Stoichiometry    CH5N
 Framework group  C1[X(CH5N)]
 Deg. of freedom    15
 Full point group                 C1      NOp   1
 Rotational constants (GHZ):          94.2760997          12.3951653          12.2053354
 Leave Link  202 at Mon Apr 21 18:11:14 2025, MaxMem=   536870912 cpu:               0.5 elap:               0.1
 (Enter /home/szhao/Apps/g16/l301.exe)
 Standard basis: 6-311+G(d,p) (5D, 7F)
 Ernie: Thresh=  0.10000D-02 Tol=  0.10000D-05 Strict=F.
    74 basis functions,   112 primitive gaussians,    76 cartesian basis functions
     9 alpha electrons        9 beta electrons
       nuclear repulsion energy        35.4494301983 Hartrees.
 IExCor= 4336 DFT=T Ex+Corr=M062X ExCW=0 ScaHFX=  0.540000
 ScaDFX=  1.000000  1.000000  1.000000  1.000000 ScalE2=  1.000000  1.000000
 IRadAn=      7 IRanWt=     -1 IRanGd=            0 ICorTp=0 IEmpDi=  4
 NAtoms=    7 NActive=    7 NUniq=    7 SFac= 1.00D+00 NAtFMM=   60 NAOKFM=F Big=F
 Integral buffers will be    131072 words long.
 Raffenetti 2 integral format.
 Two-electron integral symmetry is turned off.
 Leave Link  301 at Mon Apr 21 18:11:15 2025, MaxMem=   536870912 cpu:               0.9 elap:               0.2
 (Enter /home/szhao/Apps/g16/l302.exe)
 NPDir=0 NMtPBC=     1 NCelOv=     1 NCel=       1 NClECP=     1 NCelD=      1
         NCelK=      1 NCelE2=     1 NClLst=     1 CellRange=     0.0.
 One-electron integrals computed using PRISM.
 NBasis=    74 RedAO= T EigKep=  2.00D-03  NBF=    74
 NBsUse=    74 1.00D-06 EigRej= -1.00D+00 NBFU=    74
 Precomputing XC quadrature grid using
 IXCGrd= 4 IRadAn=           7 IRanWt=          -1 IRanGd=           0 AccXCQ= 0.00D+00.
 Generated NRdTot=       0 NPtTot=           0 NUsed=           0 NTot=          32
 NSgBfM=    76    76    76    76    76 MxSgAt=     7 MxSgA2=     7.
 Leave Link  302 at Mon Apr 21 18:11:15 2025, MaxMem=   536870912 cpu:               2.1 elap:               0.3
 (Enter /home/szhao/Apps/g16/l303.exe)
 DipDrv:  MaxL=1.
 Leave Link  303 at Mon Apr 21 18:11:15 2025, MaxMem=   536870912 cpu:               0.5 elap:               0.1
 (Enter /home/szhao/Apps/g16/l401.exe)
 Initial guess from the checkpoint file:  "opt.chk"
 B after Tr=     0.002804   -0.005591    0.009503
         Rot=    0.999993   -0.000192    0.003295    0.001942 Ang=  -0.44 deg.
 Guess basis will be translated and rotated to current coordinates.
 JPrj=2 DoOrth=T DoCkMO=T.
 Initial guess <Sx>= 0.0000 <Sy>= 0.0000 <Sz>= 0.0000 <S**2>= 0.0000 S= 0.0000
 Generating alternative initial guess.
 ExpMin= 4.38D-02 ExpMax= 6.29D+03 ExpMxC= 9.49D+02 IAcc=3 IRadAn=         5 AccDes= 0.00D+00
 Harris functional with IExCor= 1009 and IRadAn=       5 diagonalized for initial guess.
 HarFok:  IExCor= 1009 AccDes= 0.00D+00 IRadAn=         5 IDoV= 1 UseB2=F ITyADJ=14
 ICtDFT=  3500011 ScaDFX=  1.000000  1.000000  1.000000  1.000000
 FoFCou: FMM=F IPFlag=           0 FMFlag=      100000 FMFlg1=           0
         NFxFlg=           0 DoJE=T BraDBF=F KetDBF=T FulRan=T
         wScrn=  0.000000 ICntrl=       500 IOpCl=  0 I1Cent=   200000004 NGrid=           0
         NMat0=    1 NMatS0=      1 NMatT0=    0 NMatD0=    1 NMtDS0=    0 NMtDT0=    0
 Symmetry not used in FoFCou.
 Harris En= -95.7333291344982    
 Leave Link  401 at Mon Apr 21 18:11:16 2025, MaxMem=   536870912 cpu:               3.5 elap:               0.5
 (Enter /home/szhao/Apps/g16/l502.exe)
 Keep R1 and R2 ints in memory in canonical form, NReq=14944651.
 FoFCou: FMM=F IPFlag=           0 FMFlag=           0 FMFlg1=           0
         NFxFlg=           0 DoJE=F BraDBF=F KetDBF=F FulRan=T
         wScrn=  0.000000 ICntrl=       600 IOpCl=  0 I1Cent=           0 NGrid=           0
         NMat0=    1 NMatS0=   2775 NMatT0=    0 NMatD0=    1 NMtDS0=    0 NMtDT0=    0
 Symmetry not used in FoFCou.
 Two-electron integral symmetry not used.
 UHF open shell SCF:
 Using DIIS extrapolation, IDIIS=  1040.
 NGot=   536870912 LenX=   529154583 LenY=   529148366
 Requested convergence on RMS density matrix=1.00D-08 within 128 cycles.
 Requested convergence on MAX density matrix=1.00D-06.
 Requested convergence on             energy=1.00D-06.
 No special actions if energy rises.

 Cycle   1  Pass 1  IDiag  1:
 E= -95.7415539756620    
 DIIS: error= 6.07D-03 at cycle   1 NSaved=   1.
 NSaved= 1 IEnMin= 1 EnMin= -95.7415539756620     IErMin= 1 ErrMin= 6.07D-03
 ErrMax= 6.07D-03  0.00D+00 EMaxC= 1.00D-01 BMatC= 8.07D-03 BMatP= 8.07D-03
 IDIUse=3 WtCom= 9.39D-01 WtEn= 6.07D-02
 Coeff-Com:  0.100D+01
 Coeff-En:   0.100D+01
 Coeff:      0.100D+01
 Gap=     0.526 Goal=   None    Shift=    0.000
 Gap=     0.526 Goal=   None    Shift=    0.000
 GapD=    0.526 DampG=2.000 DampE=1.000 DampFc=2.0000 IDamp=-1.
 RMSDP=6.94D-04 MaxDP=9.12D-03              OVMax= 2.23D-02

 Cycle   2  Pass 1  IDiag  1:
 E= -95.7440881493711     Delta-E=       -0.002534173709 Rises=F Damp=F
 DIIS: error= 1.61D-03 at cycle   2 NSaved=   2.
 NSaved= 2 IEnMin= 2 EnMin= -95.7440881493711     IErMin= 2 ErrMin= 1.61D-03
 ErrMax= 1.61D-03  0.00D+00 EMaxC= 1.00D-01 BMatC= 6.23D-04 BMatP= 8.07D-03
 IDIUse=3 WtCom= 9.84D-01 WtEn= 1.61D-02
 Coeff-Com:  0.146D-01 0.985D+00
 Coeff-En:   0.000D+00 0.100D+01
 Coeff:      0.144D-01 0.986D+00
 Gap=     0.304 Goal=   None    Shift=    0.000
 Gap=     0.304 Goal=   None    Shift=    0.000
 RMSDP=2.79D-04 MaxDP=4.65D-03 DE=-2.53D-03 OVMax= 1.70D-02

 Cycle   3  Pass 1  IDiag  1:
 E= -95.7439863126838     Delta-E=        0.000101836687 Rises=F Damp=F
 DIIS: error= 3.70D-03 at cycle   3 NSaved=   3.
 NSaved= 3 IEnMin= 2 EnMin= -95.7440881493711     IErMin= 2 ErrMin= 1.61D-03
 ErrMax= 3.70D-03  0.00D+00 EMaxC= 1.00D-01 BMatC= 1.38D-03 BMatP= 6.23D-04
 IDIUse=3 WtCom= 1.41D-01 WtEn= 8.59D-01
 Coeff-Com: -0.727D-01 0.649D+00 0.424D+00
 Coeff-En:   0.000D+00 0.606D+00 0.394D+00
 Coeff:     -0.103D-01 0.612D+00 0.398D+00
 Gap=     0.301 Goal=   None    Shift=    0.000
 Gap=     0.301 Goal=   None    Shift=    0.000
 RMSDP=1.44D-04 MaxDP=2.59D-03 DE= 1.02D-04 OVMax= 8.58D-03

 Cycle   4  Pass 1  IDiag  1:
 E= -95.7443122539243     Delta-E=       -0.000325941241 Rises=F Damp=F
 DIIS: error= 3.72D-04 at cycle   4 NSaved=   4.
 NSaved= 4 IEnMin= 4 EnMin= -95.7443122539243     IErMin= 4 ErrMin= 3.72D-04
 ErrMax= 3.72D-04  0.00D+00 EMaxC= 1.00D-01 BMatC= 2.44D-05 BMatP= 6.23D-04
 IDIUse=3 WtCom= 9.96D-01 WtEn= 3.72D-03
 Coeff-Com: -0.193D-01 0.656D-02 0.107D+00 0.906D+00
 Coeff-En:   0.000D+00 0.000D+00 0.000D+00 0.100D+01
 Coeff:     -0.193D-01 0.653D-02 0.107D+00 0.906D+00
 Gap=     0.302 Goal=   None    Shift=    0.000
 Gap=     0.302 Goal=   None    Shift=    0.000
 RMSDP=4.63D-05 MaxDP=4.44D-04 DE=-3.26D-04 OVMax= 2.54D-03

 Cycle   5  Pass 1  IDiag  1:
 E= -95.7443237462627     Delta-E=       -0.000011492338 Rises=F Damp=F
 DIIS: error= 9.79D-05 at cycle   5 NSaved=   5.
 NSaved= 5 IEnMin= 5 EnMin= -95.7443237462627     IErMin= 5 ErrMin= 9.79D-05
 ErrMax= 9.79D-05  0.00D+00 EMaxC= 1.00D-01 BMatC= 1.12D-06 BMatP= 2.44D-05
 IDIUse=1 WtCom= 1.00D+00 WtEn= 0.00D+00
 Coeff-Com:  0.740D-02-0.668D-01-0.548D-01-0.139D-01 0.113D+01
 Coeff:      0.740D-02-0.668D-01-0.548D-01-0.139D-01 0.113D+01
 Gap=     0.302 Goal=   None    Shift=    0.000
 Gap=     0.302 Goal=   None    Shift=    0.000
 RMSDP=2.08D-05 MaxDP=2.25D-04 DE=-1.15D-05 OVMax= 1.05D-03

 Cycle   6  Pass 1  IDiag  1:
 E= -95.7443249212663     Delta-E=       -0.000001175004 Rises=F Damp=F
 DIIS: error= 2.66D-05 at cycle   6 NSaved=   6.
 NSaved= 6 IEnMin= 6 EnMin= -95.7443249212663     IErMin= 6 ErrMin= 2.66D-05
 ErrMax= 2.66D-05  0.00D+00 EMaxC= 1.00D-01 BMatC= 1.40D-07 BMatP= 1.12D-06
 IDIUse=1 WtCom= 1.00D+00 WtEn= 0.00D+00
 Coeff-Com:  0.264D-02-0.131D-01-0.197D-01-0.637D-01 0.262D+00 0.832D+00
 Coeff:      0.264D-02-0.131D-01-0.197D-01-0.637D-01 0.262D+00 0.832D+00
 Gap=     0.302 Goal=   None    Shift=    0.000
 Gap=     0.302 Goal=   None    Shift=    0.000
 RMSDP=3.97D-06 MaxDP=5.08D-05 DE=-1.18D-06 OVMax= 2.05D-04

 Cycle   7  Pass 1  IDiag  1:
 E= -95.7443250046105     Delta-E=       -0.000000083344 Rises=F Damp=F
 DIIS: error= 1.06D-05 at cycle   7 NSaved=   7.
 NSaved= 7 IEnMin= 7 EnMin= -95.7443250046105     IErMin= 7 ErrMin= 1.06D-05
 ErrMax= 1.06D-05  0.00D+00 EMaxC= 1.00D-01 BMatC= 2.59D-08 BMatP= 1.40D-07
 IDIUse=1 WtCom= 1.00D+00 WtEn= 0.00D+00
 Coeff-Com: -0.989D-03 0.120D-01 0.602D-02-0.161D-01-0.192D+00 0.201D+00
 Coeff-Com:  0.990D+00
 Coeff:     -0.989D-03 0.120D-01 0.602D-02-0.161D-01-0.192D+00 0.201D+00
 Coeff:      0.990D+00
 Gap=     0.302 Goal=   None    Shift=    0.000
 Gap=     0.302 Goal=   None    Shift=    0.000
 RMSDP=2.31D-06 MaxDP=2.82D-05 DE=-8.33D-08 OVMax= 1.32D-04

 Cycle   8  Pass 1  IDiag  1:
 E= -95.7443250207793     Delta-E=       -0.000000016169 Rises=F Damp=F
 DIIS: error= 1.09D-06 at cycle   8 NSaved=   8.
 NSaved= 8 IEnMin= 8 EnMin= -95.7443250207793     IErMin= 8 ErrMin= 1.09D-06
 ErrMax= 1.09D-06  0.00D+00 EMaxC= 1.00D-01 BMatC= 3.73D-10 BMatP= 2.59D-08
 IDIUse=1 WtCom= 1.00D+00 WtEn= 0.00D+00
 Coeff-Com: -0.159D-03 0.130D-02 0.128D-02 0.256D-02-0.214D-01-0.859D-02
 Coeff-Com:  0.102D+00 0.923D+00
 Coeff:     -0.159D-03 0.130D-02 0.128D-02 0.256D-02-0.214D-01-0.859D-02
 Coeff:      0.102D+00 0.923D+00
 Gap=     0.302 Goal=   None    Shift=    0.000
 Gap=     0.302 Goal=   None    Shift=    0.000
 RMSDP=3.94D-07 MaxDP=4.65D-06 DE=-1.62D-08 OVMax= 1.16D-05

 Cycle   9  Pass 1  IDiag  1:
 E= -95.7443250209777     Delta-E=       -0.000000000198 Rises=F Damp=F
 DIIS: error= 5.54D-07 at cycle   9 NSaved=   9.
 NSaved= 9 IEnMin= 9 EnMin= -95.7443250209777     IErMin= 9 ErrMin= 5.54D-07
 ErrMax= 5.54D-07  0.00D+00 EMaxC= 1.00D-01 BMatC= 3.17D-11 BMatP= 3.73D-10
 IDIUse=1 WtCom= 1.00D+00 WtEn= 0.00D+00
 Coeff-Com:  0.495D-04-0.649D-03-0.340D-03 0.118D-02 0.812D-02-0.160D-01
 Coeff-Com: -0.552D-01 0.338D-02 0.106D+01
 Coeff:      0.495D-04-0.649D-03-0.340D-03 0.118D-02 0.812D-02-0.160D-01
 Coeff:     -0.552D-01 0.338D-02 0.106D+01
 Gap=     0.302 Goal=   None    Shift=    0.000
 Gap=     0.302 Goal=   None    Shift=    0.000
 RMSDP=1.14D-07 MaxDP=1.98D-06 DE=-1.98D-10 OVMax= 4.80D-06

 Cycle  10  Pass 1  IDiag  1:
 E= -95.7443250210042     Delta-E=       -0.000000000026 Rises=F Damp=F
 DIIS: error= 4.15D-08 at cycle  10 NSaved=  10.
 NSaved=10 IEnMin=10 EnMin= -95.7443250210042     IErMin=10 ErrMin= 4.15D-08
 ErrMax= 4.15D-08  0.00D+00 EMaxC= 1.00D-01 BMatC= 5.81D-13 BMatP= 3.17D-11
 IDIUse=1 WtCom= 1.00D+00 WtEn= 0.00D+00
 Coeff-Com:  0.199D-05-0.205D-05-0.286D-04-0.114D-03 0.231D-03 0.164D-02
 Coeff-Com:  0.173D-02-0.343D-01-0.805D-01 0.111D+01
 Coeff:      0.199D-05-0.205D-05-0.286D-04-0.114D-03 0.231D-03 0.164D-02
 Coeff:      0.173D-02-0.343D-01-0.805D-01 0.111D+01
 Gap=     0.302 Goal=   None    Shift=    0.000
 Gap=     0.302 Goal=   None    Shift=    0.000
 RMSDP=1.72D-08 MaxDP=2.58D-07 DE=-2.64D-11 OVMax= 6.88D-07

 Cycle  11  Pass 1  IDiag  1:
 E= -95.7443250210046     Delta-E=       -0.000000000000 Rises=F Damp=F
 DIIS: error= 8.08D-09 at cycle  11 NSaved=  11.
 NSaved=11 IEnMin=11 EnMin= -95.7443250210046     IErMin=11 ErrMin= 8.08D-09
 ErrMax= 8.08D-09  0.00D+00 EMaxC= 1.00D-01 BMatC= 1.29D-14 BMatP= 5.81D-13
 IDIUse=1 WtCom= 1.00D+00 WtEn= 0.00D+00
 Coeff-Com: -0.670D-06 0.102D-04 0.618D-05-0.224D-04-0.155D-03 0.352D-03
 Coeff-Com:  0.108D-02-0.221D-02-0.216D-01 0.596D-01 0.963D+00
 Coeff:     -0.670D-06 0.102D-04 0.618D-05-0.224D-04-0.155D-03 0.352D-03
 Coeff:      0.108D-02-0.221D-02-0.216D-01 0.596D-01 0.963D+00
 Gap=     0.302 Goal=   None    Shift=    0.000
 Gap=     0.302 Goal=   None    Shift=    0.000
 RMSDP=2.04D-09 MaxDP=2.80D-08 DE=-3.98D-13 OVMax= 5.68D-08

 SCF Done:  E(UM062X) =  -95.7443250210     A.U. after   11 cycles
            NFock= 11  Conv=0.20D-08     -V/T= 2.0073
 <Sx>= 0.0000 <Sy>= 0.0000 <Sz>= 0.0000 <S**2>=-0.0000 S=-0.0000
 <L.S>=  0.00000000000    
 KE= 9.505345993054D+01 PE=-2.934347469339D+02 EE= 6.718753178402D+01
 Annihilation of the first spin contaminant:
 S**2 before annihilation    -0.0000,   after     0.0000
 Leave Link  502 at Mon Apr 21 18:11:25 2025, MaxMem=   536870912 cpu:              70.0 elap:               9.2
 (Enter /home/szhao/Apps/g16/l701.exe)
 ... and contract with generalized density number  0.
 Compute integral first derivatives.
 Leave Link  701 at Mon Apr 21 18:11:26 2025, MaxMem=   536870912 cpu:               1.3 elap:               0.2
 (Enter /home/szhao/Apps/g16/l702.exe)
 L702 exits ... SP integral derivatives will be done elsewhere.
 Leave Link  702 at Mon Apr 21 18:11:26 2025, MaxMem=   536870912 cpu:               0.5 elap:               0.1
 (Enter /home/szhao/Apps/g16/l703.exe)
 Integral derivatives from FoFJK, PRISM(SPDF).
 Compute integral first derivatives, UseDBF=F ICtDFT=           0.
 Calling FoFJK, ICntrl=      2127 FMM=F ISym2X=0 I1Cent= 0 IOpClX= 1 NMat=1 NMatS=1 NMatT=0.
 FoFJK:  IHMeth= 1 ICntrl=    2127 DoSepK=F KAlg= 0 I1Cent=           0 FoldK=F
 IRaf=         0 NMat=       1 IRICut=       1 DoRegI=T DoRafI=F ISym2E= 0 IDoP0=0 IntGTp=1.
 FoFCou: FMM=F IPFlag=           0 FMFlag=      100000 FMFlg1=         800
         NFxFlg=           0 DoJE=F BraDBF=F KetDBF=F FulRan=T
         wScrn=  0.000000 ICntrl=      2127 IOpCl=  1 I1Cent=           0 NGrid=           0
         NMat0=    1 NMatS0=      1 NMatT0=    0 NMatD0=    1 NMtDS0=    0 NMtDT0=    0
 Symmetry not used in FoFCou.
 Leave Link  703 at Mon Apr 21 18:11:27 2025, MaxMem=   536870912 cpu:              10.0 elap:               1.3
 (Enter /home/szhao/Apps/g16/l716.exe)
 Dipole        =-6.90453794D-01-3.47314315D-01 5.86412096D-01
 -------------------------------------------------------------------
 Center     Atomic                   Forces (Hartrees/Bohr)
 Number     Number              X              Y              Z
 -------------------------------------------------------------------
      1        6          -0.000000000   -0.000000000   -0.000000000
      2        7          -0.000000000   -0.000000000   -0.000000000
      3        1          -0.000256916    0.000148572    0.000432415
      4        1           0.000249021    0.000384266   -0.000010120
      5        1          -0.000258976   -0.000450622    0.000077109
      6        1           0.000251455   -0.000173680   -0.000341683
      7        1           0.001371293   -0.000169118    0.000285826
 -------------------------------------------------------------------
 Cartesian Forces:  Max     0.001371293 RMS     0.000375550
 Leave Link  716 at Mon Apr 21 18:11:27 2025, MaxMem=   536870912 cpu:               0.4 elap:               0.1
 (Enter /home/szhao/Apps/g16/l103.exe)

 GradGradGradGradGradGradGradGradGradGradGradGradGradGradGradGradGradGrad
 Berny optimization.
 Using GEDIIS/GDIIS optimizer.
 FormGI is forming the generalized inverse of G from B-inverse, IUseBI=4.
 Internal  Forces:  Max     0.002375342 RMS     0.000683160
 Search for a local minimum.
 Step number   3 out of a maximum of   36
 All quantities printed in internal units (Hartrees-Bohrs-Radians)
 RMS Force = .64150D-03 SwitMx=.10000D-02 MixMth= 2
 Mixed Optimization -- En-DIIS/RFO-DIIS
 Update second derivatives using D2CorX and points    1    2    3
 DE= -3.26D-03 DEPred=-3.88D-03 R= 8.40D-01
 TightC=F SS=  1.41D+00  RLast= 2.32D-01 DXNew= 8.4853D-01 6.9582D-01
 Trust test= 8.40D-01 RLast= 2.32D-01 DXMaxT set to 6.96D-01
 ITU=  1  1  0
 Use linear search instead of GDIIS.
     Eigenvalues ---    0.00230   0.05939   0.08341   0.08887   0.11512
     Eigenvalues ---    0.15898   0.16000   0.16000   0.16688   0.33901
     Eigenvalues ---    0.34667   0.34689   0.45390   0.455101000.00000
     Eigenvalues --- 1000.000001000.000001000.000001000.000001000.00000
     Eigenvalues --- 1000.000001000.000001000.000001000.000001000.00000
     Eigenvalues --- 1000.00000
 RFO step:  Lambda=-3.14589224D-05 EMin= 2.30000043D-03
 Quartic linear search produced a step of  0.07883.
 Iteration  1 RMS(Cart)=  0.00845316 RMS(Int)=  0.00028040
 Iteration  2 RMS(Cart)=  0.00007189 RMS(Int)=  0.00027165
 Iteration  3 RMS(Cart)=  0.00000002 RMS(Int)=  0.00027165
 ITry= 1 IFail=0 DXMaxC= 3.55D-02 DCOld= 1.00D+10 DXMaxT= 6.96D-01 DXLimC= 3.00D+00 Rises=F
 Variable       Old X    -DE/DX   Delta X   Delta X   Delta X     New X
                                 (Linear)    (Quad)   (Total)
    X1       -2.04193   0.00187   0.00000   0.00000   0.00000  -2.04193
    Y1        0.00000  -0.00015   0.00000   0.00000   0.00000   0.00000
    Z1        0.00000   0.00025   0.00000   0.00000   0.00000   0.00000
    X2        2.04193  -0.00052   0.00000   0.00000   0.00000   2.04193
    Y2        0.00000  -0.00011   0.00000   0.00000   0.00000   0.00000
    Z2        0.00000   0.00020   0.00000   0.00000   0.00000   0.00000
    R1        2.04287   0.00034  -0.00093   0.00164   0.00070   2.04357
    R2        2.04287   0.00034  -0.00093   0.00163   0.00070   2.04357
    R3        2.04657  -0.00006  -0.00095   0.00044  -0.00052   2.04606
    R4        1.93186  -0.00013   0.00080  -0.00079   0.00000   1.93187
    R5        1.93186  -0.00013   0.00080  -0.00079   0.00000   1.93187
    A1        1.73824  -0.00022  -0.00528   0.00315  -0.00240   1.73583
    A2        1.73823  -0.00023  -0.00529   0.00313  -0.00243   1.73580
    A3        1.85332  -0.00238  -0.00610  -0.01154  -0.01794   1.83537
    A4        2.01349   0.00040   0.00389   0.00099   0.00450   2.01799
    A5        2.02793   0.00076   0.00444   0.00135   0.00533   2.03327
    A6        2.02792   0.00076   0.00444   0.00136   0.00534   2.03326
    A7        1.68268  -0.00051  -0.00823   0.00190  -0.00644   1.67624
    A8        1.68273  -0.00051  -0.00823   0.00187  -0.00647   1.67626
    A9        1.82196  -0.00025  -0.00165  -0.00403  -0.00649   1.81547
    D1        3.03069  -0.00035  -0.00306  -0.00310  -0.00586   3.02483
[...]
     Eigenvalues ---    0.34689   0.35155   0.45510   0.459861000.00000
     Eigenvalues --- 1000.000001000.000001000.000001000.000001000.00000
     Eigenvalues --- 1000.000001000.000001000.000001000.000001000.00000
     Eigenvalues --- 1000.00000
 En-DIIS/RFO-DIIS/Sim-DIIS IScMMF=       -3 using points:     6    5    4    3
 RFO step:  Lambda=-1.85623058D-08.
 NNeg= 0 NGDIIS= 4 SimSw=  2.50D-01 Rises=F DC= -5.82D-07 SmlDif=  1.00D-05
 NRisDI= 0 DoIntr=F SqrtH=F CThrHd= 10.0 CDAdj=  3.0
 RMS Error=  0.1133345934D-03 NUsed= 4 OKEnD=F EnDIS=F
 InvSVX:  RCond= 2.63D-08 Info=           0 Equed=N FErr=  1.34D-13 BErr=  4.37D-17
 DIIS inversion failure, remove point   4.
 InvSVX:  RCond= 2.89D-07 Info=           0 Equed=N FErr=  3.95D-15 BErr=  7.68D-17
 RFO-DIIS uses    3 points instead of    4
 DidBck=F Rises=F RFO-DIIS coefs:    1.16212   -0.19495    0.03283    0.00000
 Iteration  1 RMS(Cart)=  0.00017830 RMS(Int)=  0.00000005
 Iteration  2 RMS(Cart)=  0.00000002 RMS(Int)=  0.00000004
 ITry= 1 IFail=0 DXMaxC= 4.56D-04 DCOld= 1.00D+10 DXMaxT= 6.96D-01 DXLimC= 3.00D+00 Rises=F
 Variable       Old X    -DE/DX   Delta X   Delta X   Delta X     New X
                                 (Linear)    (Quad)   (Total)
    X1       -2.04193  -0.00004   0.00000   0.00000   0.00000  -2.04193
    Y1        0.00000  -0.00001   0.00000   0.00000   0.00000   0.00000
    Z1        0.00000   0.00001   0.00000   0.00000   0.00000   0.00000
    X2        2.04193  -0.00003   0.00000   0.00000   0.00000   2.04193
    Y2        0.00000   0.00000   0.00000   0.00000   0.00000   0.00000
    Z2        0.00000   0.00000   0.00000   0.00000   0.00000   0.00000
    R1        2.04346  -0.00000   0.00001  -0.00001  -0.00000   2.04346
    R2        2.04346  -0.00000   0.00001  -0.00001  -0.00000   2.04345
    R3        2.04586   0.00001   0.00001   0.00001   0.00002   2.04589
    R4        1.93200  -0.00000  -0.00002   0.00002  -0.00000   1.93199
    R5        1.93200  -0.00000  -0.00002   0.00002  -0.00000   1.93200
    A1        1.73986   0.00002   0.00023  -0.00000   0.00023   1.74009
    A2        1.73981   0.00002   0.00023  -0.00001   0.00021   1.74003
    A3        1.82734   0.00002  -0.00011   0.00011   0.00000   1.82734
    A4        2.01846  -0.00001  -0.00003   0.00003   0.00001   2.01846
    A5        2.03310  -0.00002  -0.00010  -0.00005  -0.00015   2.03295
    A6        2.03312  -0.00002  -0.00010  -0.00005  -0.00014   2.03297
    A7        1.67567  -0.00003  -0.00000  -0.00019  -0.00019   1.67547
    A8        1.67571  -0.00003  -0.00000  -0.00019  -0.00020   1.67551
    A9        1.81611   0.00001   0.00008  -0.00001   0.00007   1.81618
    D1        3.02323  -0.00000  -0.00005  -0.00016  -0.00020   3.02303
    D2        1.19289  -0.00000  -0.00013  -0.00009  -0.00022   1.19267
    D3       -1.19466   0.00000   0.00006  -0.00012  -0.00007  -1.19473
    D4       -3.02500   0.00000  -0.00002  -0.00006  -0.00009  -3.02508
    D5        0.91429   0.00000   0.00001  -0.00014  -0.00013   0.91415
    D6       -0.91605  -0.00000  -0.00008  -0.00008  -0.00015  -0.91621
         Item               Value     Threshold  Converged?
 Maximum Force            0.000027     0.000450     YES
 RMS     Force            0.000013     0.000300     YES
 Maximum Displacement     0.000456     0.001800     YES
 RMS     Displacement     0.000178     0.001200     YES
 Predicted change in Energy=-1.296032D-08
 Optimization completed.
    -- Stationary point found.
                           ----------------------------
                           !   Optimized Parameters   !
                           ! (Angstroms and Degrees)  !
 --------------------------                            --------------------------
 ! Name  Definition              Value          Derivative Info.                !
 --------------------------------------------------------------------------------
 ! X1    R(1,-1)                -1.0805         -DE/DX =    0.0                 !
 ! Y1    R(1,-2)                 0.0            -DE/DX =    0.0                 !
 ! Z1    R(1,-3)                 0.0            -DE/DX =    0.0                 !
 ! X2    R(2,-1)                 1.0805         -DE/DX =    0.0                 !
 ! Y2    R(2,-2)                 0.0            -DE/DX =    0.0                 !
 ! Z2    R(2,-3)                 0.0            -DE/DX =    0.0                 !
 ! R1    R(1,4)                  1.0814         -DE/DX =    0.0                 !
 ! R2    R(1,6)                  1.0814         -DE/DX =    0.0                 !
 ! R3    R(1,7)                  1.0826         -DE/DX =    0.0                 !
 ! R4    R(2,3)                  1.0224         -DE/DX =    0.0                 !
 ! R5    R(2,5)                  1.0224         -DE/DX =    0.0                 !
 ! A1    A(2,1,4)               99.6868         -DE/DX =    0.0                 !
 ! A2    A(2,1,6)               99.6839         -DE/DX =    0.0                 !
 ! A3    A(2,1,7)              104.6988         -DE/DX =    0.0                 !
 ! A4    A(4,1,6)              115.649          -DE/DX =    0.0                 !
 ! A5    A(4,1,7)              116.4879         -DE/DX =    0.0                 !
 ! A6    A(6,1,7)              116.489          -DE/DX =    0.0                 !
 ! A7    A(1,2,3)               96.0088         -DE/DX =    0.0                 !
 ! A8    A(1,2,5)               96.011          -DE/DX =    0.0                 !
 ! A9    A(3,2,5)              104.0556         -DE/DX =    0.0                 !
 ! D1    D(4,1,2,3)            173.2182         -DE/DX =    0.0                 !
 ! D2    D(4,1,2,5)             68.3475         -DE/DX =    0.0                 !
 ! D3    D(6,1,2,3)            -68.4489         -DE/DX =    0.0                 !
 ! D4    D(6,1,2,5)           -173.3196         -DE/DX =    0.0                 !
 ! D5    D(7,1,2,3)             52.3847         -DE/DX =    0.0                 !
 ! D6    D(7,1,2,5)            -52.486          -DE/DX =    0.0                 !
 --------------------------------------------------------------------------------
 Lowest energy point so far.  Saving SCF results.
 Largest change from initial coordinates is atom    5       0.196 Angstoms.
 GradGradGradGradGradGradGradGradGradGradGradGradGradGradGradGradGradGrad

 Leave Link  103 at Mon Apr 21 18:12:02 2025, MaxMem=   536870912 cpu:               0.4 elap:               0.1
 (Enter /home/szhao/Apps/g16/l202.exe)
                          Input orientation:                          
 ---------------------------------------------------------------------
 Center     Atomic      Atomic             Coordinates (Angstroms)
 Number     Number       Type             X           Y           Z
 ---------------------------------------------------------------------
      1          6           0       -1.080542    0.000000    0.000000
      2          7           0        1.080542    0.000000    0.000000
      3          1           0        1.187565   -1.009304    0.122852
      4          1           0       -1.262492    1.065932   -0.002942
      5          1           0        1.187605    0.377763    0.943969
      6          1           0       -1.262439   -0.508477   -0.936848
      7          1           0       -1.355246   -0.534250    0.900661
 ---------------------------------------------------------------------
                    Distance matrix (angstroms):
                    1          2          3          4          5
     1  C    0.000000
     2  N    2.161084   0.000000
     3  H    2.485578   1.022370   0.000000
     4  H    1.081354   2.574108   3.213287   0.000000
     5  H    2.485613   1.022372   1.611889   2.715362   0.000000
     6  H    1.081351   2.574062   2.715937   1.830559   3.213348
     7  H    1.082624   2.651353   2.701212   1.840023   2.701801
                    6          7
     6  H    0.000000
     7  H    1.840031   0.000000
 Symmetry turned off by external request.
 Stoichiometry    CH5N
 Framework group  C1[X(CH5N)]
 Deg. of freedom    15
 Full point group                 C1      NOp   1
 Rotational constants (GHZ):          93.9993533          12.4208252          12.2346132
 Leave Link  202 at Mon Apr 21 18:12:02 2025, MaxMem=   536870912 cpu:               0.1 elap:               0.1
 (Enter /home/szhao/Apps/g16/l601.exe)
 Copying SCF densities to generalized density rwf, IOpCl= 1 IROHF=0.

 **********************************************************************

            Population analysis using the SCF density.

 **********************************************************************

 Alpha  occ. eigenvalues --  -14.74744 -10.59003  -0.91209  -0.77970  -0.52247
 Alpha  occ. eigenvalues --   -0.50118  -0.48571  -0.37128  -0.32000
 Alpha virt. eigenvalues --   -0.01851   0.01481   0.05119   0.05811   0.07571
 Alpha virt. eigenvalues --    0.11035   0.13666   0.16018   0.16654   0.18362
 Alpha virt. eigenvalues --    0.21105   0.22303   0.22464   0.31734   0.41848
 Alpha virt. eigenvalues --    0.42712   0.48843   0.55122   0.64086   0.64932
 Alpha virt. eigenvalues --    0.65188   0.66443   0.80013   0.84304   0.88854
 Alpha virt. eigenvalues --    0.91328   1.08772   1.11005   1.15287   1.28620
 Alpha virt. eigenvalues --    1.33214   1.41170   1.45118   1.55799   1.56456
 Alpha virt. eigenvalues --    1.68000   1.71877   1.80539   1.80776   1.86212
 Alpha virt. eigenvalues --    1.95748   2.06805   2.11653   2.12130   2.40908
 Alpha virt. eigenvalues --    2.44577   2.45649   2.46656   2.49767   2.55766
 Alpha virt. eigenvalues --    2.56957   2.62935   2.65214   2.71561   2.83909
 Alpha virt. eigenvalues --    2.93831   3.10806   3.13381   3.74814   3.75048
 Alpha virt. eigenvalues --    3.96829   4.37717   4.71221  23.96145  35.59226
  Beta  occ. eigenvalues --  -14.74744 -10.59003  -0.91209  -0.77970  -0.52247
  Beta  occ. eigenvalues --   -0.50118  -0.48571  -0.37128  -0.32000
  Beta virt. eigenvalues --   -0.01851   0.01481   0.05119   0.05811   0.07571
  Beta virt. eigenvalues --    0.11035   0.13666   0.16018   0.16654   0.18362
  Beta virt. eigenvalues --    0.21105   0.22303   0.22464   0.31734   0.41848
  Beta virt. eigenvalues --    0.42712   0.48843   0.55122   0.64086   0.64932
  Beta virt. eigenvalues --    0.65188   0.66443   0.80013   0.84304   0.88854
  Beta virt. eigenvalues --    0.91328   1.08772   1.11005   1.15287   1.28620
  Beta virt. eigenvalues --    1.33214   1.41170   1.45118   1.55799   1.56456
  Beta virt. eigenvalues --    1.68000   1.71877   1.80539   1.80776   1.86212
  Beta virt. eigenvalues --    1.95748   2.06805   2.11653   2.12130   2.40908
  Beta virt. eigenvalues --    2.44577   2.45649   2.46656   2.49767   2.55766
  Beta virt. eigenvalues --    2.56957   2.62935   2.65214   2.71561   2.83909
  Beta virt. eigenvalues --    2.93831   3.10806   3.13381   3.74814   3.75048
  Beta virt. eigenvalues --    3.96829   4.37717   4.71221  23.96145  35.59226
          Condensed to atoms (all electrons):
               1          2          3          4          5          6
     1  C    5.075487   0.205450  -0.018354   0.400072  -0.018353   0.400071
     2  N    0.205450   6.688260   0.374042  -0.020062   0.374038  -0.020055
     3  H   -0.018354   0.374042   0.465033   0.001860  -0.055068  -0.001253
     4  H    0.400072  -0.020062   0.001860   0.480359  -0.001254  -0.020025
     5  H   -0.018353   0.374038  -0.055068  -0.001254   0.465038   0.001860
     6  H    0.400071  -0.020055  -0.001253  -0.020025   0.001860   0.480321
     7  H    0.384575  -0.023742  -0.000798  -0.025182  -0.000796  -0.025181
               7
     1  C    0.384575
     2  N   -0.023742
     3  H   -0.000798
     4  H   -0.025182
     5  H   -0.000796
     6  H   -0.025181
     7  H    0.521816
          Atomic-Atomic Spin Densities.
               1          2          3          4          5          6
     1  C    0.000000  -0.000000   0.000000   0.000000   0.000000  -0.000000
     2  N   -0.000000  -0.000000   0.000000   0.000000   0.000000   0.000000
     3  H    0.000000   0.000000   0.000000  -0.000000   0.000000   0.000000
     4  H    0.000000   0.000000  -0.000000   0.000000  -0.000000   0.000000
     5  H    0.000000   0.000000   0.000000  -0.000000  -0.000000  -0.000000
     6  H   -0.000000   0.000000   0.000000   0.000000  -0.000000   0.000000
     7  H    0.000000  -0.000000   0.000000   0.000000   0.000000   0.000000
               7
     1  C    0.000000
     2  N   -0.000000
     3  H    0.000000
     4  H    0.000000
     5  H    0.000000
     6  H    0.000000
     7  H   -0.000000
 Mulliken charges and spin densities:
               1          2
     1  C   -0.428948   0.000000
     2  N   -0.577932  -0.000000
     3  H    0.234539   0.000000
     4  H    0.184233   0.000000
     5  H    0.234535   0.000000
     6  H    0.184263   0.000000
     7  H    0.169309  -0.000000
 Sum of Mulliken charges =  -0.00000  -0.00000
 Mulliken charges and spin densities with hydrogens summed into heavy atoms:
               1          2
     1  C    0.108858   0.000000
     2  N   -0.108858  -0.000000
 Electronic spatial extent (au):  <R**2>=            133.3219
 Charge=             -0.0000 electrons
 Dipole moment (field-independent basis, Debye):
    X=             -1.7765    Y=             -0.8904    Z=              1.5041  Tot=              2.4922
 Quadrupole moment (field-independent basis, Debye-Ang):
   XX=            -15.1754   YY=            -13.2858   ZZ=            -14.1615
   XY=             -1.3172   XZ=              2.2252   YZ=              0.7981
 Traceless Quadrupole moment (field-independent basis, Debye-Ang):
   XX=             -0.9678   YY=              0.9218   ZZ=              0.0461
   XY=             -1.3172   XZ=              2.2252   YZ=              0.7981
 Octapole moment (field-independent basis, Debye-Ang**2):
  XXX=             -0.9041  YYY=              0.6639  ZZZ=             -0.6725  XYY=              0.6873
  XXY=             -1.4817  XXZ=              2.5031  XZZ=             -0.3660  YZZ=             -0.1423
  YYZ=             -0.2089  XYZ=              0.9600
 Hexadecapole moment (field-independent basis, Debye-Ang**3):
 XXXX=           -137.0507 YYYY=            -24.0330 ZZZZ=            -25.3396 XXXY=             -1.2417
 XXXZ=              2.0984 YYYX=             -2.1249 YYYZ=              0.2014 ZZZX=              0.1013
 ZZZY=              0.9897 XXYY=            -23.6168 XXZZ=            -24.7616 YYZZ=             -8.5638
 XXYZ=              1.0431 YYXZ=             -0.0627 ZZXY=              2.1022
 N-N= 3.546930714657D+01 E-N=-2.934750554565D+02  KE= 9.505531846082D+01
                          Isotropic Fermi Contact Couplings
        Atom                 a.u.       MegaHertz       Gauss      10(-4) cm-1
     1  C(13)             -0.00000      -0.00000      -0.00000      -0.00000
     2  N(14)             -0.00000      -0.00000      -0.00000      -0.00000
     3  H(1)               0.00000       0.00000       0.00000       0.00000
     4  H(1)               0.00000       0.00000       0.00000       0.00000
     5  H(1)               0.00000       0.00000       0.00000       0.00000
     6  H(1)              -0.00000      -0.00000      -0.00000      -0.00000
     7  H(1)              -0.00000      -0.00000      -0.00000      -0.00000
 --------------------------------------------------------
       Center         ----  Spin Dipole Couplings  ----
                      3XX-RR        3YY-RR        3ZZ-RR
 --------------------------------------------------------
     1   Atom        0.000000      0.000000      0.000000
     2   Atom        0.000000      0.000000      0.000000
     3   Atom        0.000000      0.000000      0.000000
     4   Atom        0.000000      0.000000      0.000000
     5   Atom        0.000000      0.000000      0.000000
     6   Atom        0.000000      0.000000      0.000000
     7   Atom        0.000000      0.000000      0.000000
 --------------------------------------------------------
                        XY            XZ            YZ
 --------------------------------------------------------
     1   Atom        0.000000      0.000000      0.000000
     2   Atom        0.000000      0.000000      0.000000
     3   Atom        0.000000      0.000000      0.000000
     4   Atom        0.000000      0.000000      0.000000
     5   Atom        0.000000      0.000000      0.000000
     6   Atom        0.000000      0.000000      0.000000
     7   Atom        0.000000      0.000000      0.000000
 --------------------------------------------------------


 ---------------------------------------------------------------------------------
              Anisotropic Spin Dipole Couplings in Principal Axis System
 ---------------------------------------------------------------------------------

       Atom             a.u.   MegaHertz   Gauss  10(-4) cm-1        Axes

              Baa     0.0000     0.000     0.000     0.000  1.0000  0.0000  0.0000
     1 C(13)  Bbb     0.0000     0.000     0.000     0.000 -0.0000  1.0000  0.0000
              Bcc     0.0000     0.000     0.000     0.000  0.0000  0.0000  1.0000
 
              Baa     0.0000     0.000     0.000     0.000  1.0000  0.0000  0.0000
     2 N(14)  Bbb     0.0000     0.000     0.000     0.000 -0.0000  1.0000  0.0000
              Bcc     0.0000     0.000     0.000     0.000  0.0000  0.0000  1.0000
 
              Baa     0.0000     0.000     0.000     0.000  1.0000  0.0000  0.0000
     3 H(1)   Bbb     0.0000     0.000     0.000     0.000 -0.0000  1.0000  0.0000
              Bcc     0.0000     0.000     0.000     0.000  0.0000  0.0000  1.0000
 
              Baa     0.0000     0.000     0.000     0.000  1.0000  0.0000  0.0000
     4 H(1)   Bbb     0.0000     0.000     0.000     0.000 -0.0000  1.0000  0.0000
              Bcc     0.0000     0.000     0.000     0.000  0.0000  0.0000  1.0000
 
              Baa     0.0000     0.000     0.000     0.000  1.0000  0.0000  0.0000
     5 H(1)   Bbb     0.0000     0.000     0.000     0.000 -0.0000  1.0000  0.0000
              Bcc     0.0000     0.000     0.000     0.000  0.0000  0.0000  1.0000
 
              Baa     0.0000     0.000     0.000     0.000  1.0000  0.0000  0.0000
     6 H(1)   Bbb     0.0000     0.000     0.000     0.000 -0.0000  1.0000  0.0000
              Bcc     0.0000     0.000     0.000     0.000  0.0000  0.0000  1.0000
 
              Baa     0.0000     0.000     0.000     0.000  1.0000  0.0000  0.0000
     7 H(1)   Bbb     0.0000     0.000     0.000     0.000 -0.0000  1.0000  0.0000
              Bcc     0.0000     0.000     0.000     0.000  0.0000  0.0000  1.0000
 

 ---------------------------------------------------------------------------------

 No NMR shielding tensors so no spin-rotation constants.
 Leave Link  601 at Mon Apr 21 18:12:02 2025, MaxMem=   536870912 cpu:               1.5 elap:               0.2
 (Enter /home/szhao/Apps/g16/l9999.exe)
 1\1\GINC-NODE05\FOpt\UM062X\6-311+G(d,p)\C1H5N1\SZHAO\21-Apr-2025\0\\#
 p opt UM062X/6-311+G** nosymm int=superfine\\Title Card Required\\0,1\
 C,-1.08054223,0.,0.\N,1.08054223,0.,0.\H,1.1875653003,-1.0093038933,0.
 122852396\H,-1.2624924368,1.0659320382,-0.0029419568\H,1.1876045038,0.
 3777632788,0.9439687052\H,-1.2624387834,-0.5084772604,-0.9368482578\H,
 -1.3552455256,-0.5342501863,0.9006605293\\Version=ES64L-G16RevA.03\HF=
 -95.7443683\S2=0.\S2-1=0.\S2A=0.\RMSD=6.111e-09\RMSF=7.887e-06\Dipole=
 -0.6989382,-0.3503114,0.5917682\Quadrupole=-0.7195553,0.685311,0.03424
 43,-0.9792851,1.6543549,0.5933856\PG=C01 [X(C1H5N1)]\\@


 IF MATHEMATICALLY YOU END UP WITH THE INCORRECT ANSWER,
 TRY MULTIPLYING BY THE PAGE NUMBER.
 Job cpu time:       0 days  0 hours  8 minutes 23.8 seconds.
 Elapsed time:       0 days  0 hours  1 minutes  9.1 seconds.
 File lengths (MBytes):  RWF=     22 Int=      0 D2E=      0 Chk=      2 Scr=      2
 Normal termination of Gaussian 16 at Mon Apr 21 18:12:02 2025.
