Title Card Required                                                     
FOpt      UM062X                                                      6-311+G(d,p)        
Number of atoms                            I                4
Info1-9                                    I   N=           9
          13          13           0           0           0         110
           2          18        -502
Full Title                                 C   N=           2
Title Card Required     
Route                                      C   N=           4
#p opt UM062X/6-311+G** nosymm int=superfine    
Charge                                     I                1
Multiplicity                               I                2
Number of electrons                        I               13
Number of alpha electrons                  I                7
Number of beta electrons                   I                6
Number of basis functions                  I               56
Number of independent functions            I               56
Number of point charges in /Mol/           I                0
Number of translation vectors              I                0
Atomic numbers                             I   N=           4
           6           6           1           1
Nuclear charges                            R   N=           4
  6.00000000E+00  6.00000000E+00  1.00000000E+00  1.00000000E+00
Current cartesian coordinates              R   N=          12
 -1.60860901E+00  0.00000000E+00  0.00000000E+00  1.60860901E+00  0.00000000E+00
  0.00000000E+00 -3.68059301E+00  5.96970390E-06  2.86193403E-06  3.68055577E+00
 -1.90208890E-05 -2.05755946E-05
Number of symbols in /Mol/                 I                0
Force Field                                I                0
Atom Types                                 C   N=           4
                                                
Int Atom Types                             I   N=           4
           0           0           0           0
MM charges                                 R   N=           4
  0.00000000E+00  0.00000000E+00  0.00000000E+00  0.00000000E+00
Integer atomic weights                     I   N=           4
          12          12           1           1
Real atomic weights                        R   N=           4
  1.20000000E+01  1.20000000E+01  1.00782504E+00  1.00782504E+00
Atom fragment info                         I   N=           4
           0           0           0           0
Atom residue num                           I   N=           4
           0           0           0           0
Nuclear spins                              I   N=           4
           0           0           1           1
Nuclear ZEff                               R   N=           4
 -3.60000000E+00 -3.60000000E+00 -1.00000000E+00 -1.00000000E+00
Nuclear ZNuc                               R   N=           4
  6.00000000E+00  6.00000000E+00  1.00000000E+00  1.00000000E+00
Nuclear QMom                               R   N=           4
  0.00000000E+00  0.00000000E+00  0.00000000E+00  0.00000000E+00
Nuclear GFac                               R   N=           4
  0.00000000E+00  0.00000000E+00  2.79284600E+00  2.79284600E+00
MicOpt                                     I   N=           4
          -2          -2          -1          -1
Number of residues                         I                0
Number of secondary structures             I                0
Redundant internal dimensions              I   N=           4
          12           8           4           0
Redundant internal coordinate indices      I   N=          48
           1          -1           0           0           1          -2
           0           0           1          -3           0           0
           2          -1           0           0           2          -2
           0           0           2          -3           0           0
           1           3           0           0           2           4
           0           0           2           1           3          -4
           1           2           4          -4           2           1
           3          -8           1           2           4          -8
Redundant internal coordinates             R   N=          12
 -1.60860901E+00  0.00000000E+00  0.00000000E+00  1.60860901E+00  0.00000000E+00
  0.00000000E+00  2.07198400E+00  2.07194676E+00  3.14159127E+00  3.14158272E+00
  3.14159553E+00  3.14160183E+00
ZRed-IntVec                                I   N=          12
          -1          -1          -1          -1          -1          -1
           0           0           0           0           0           0
ZRed-FPVec                                 R   N=          12
  0.00000000E+00  0.00000000E+00  0.00000000E+00  0.00000000E+00  0.00000000E+00
  0.00000000E+00  0.00000000E+00  0.00000000E+00  0.00000000E+00  0.00000000E+00
  0.00000000E+00  0.00000000E+00
ZRed-Constraint1                           R   N=          12
 -1.60860901E+00  0.00000000E+00  0.00000000E+00  1.60860901E+00  0.00000000E+00
  0.00000000E+00  2.79880633E+00  2.79877784E+00  3.14159265E+00  3.14159265E+00
  3.14159265E+00  3.14159265E+00
ZRed-Constraint2                           R   N=          12
 -1.60860901E+00  0.00000000E+00  0.00000000E+00  1.60860901E+00  0.00000000E+00
  0.00000000E+00  0.00000000E+00  0.00000000E+00  0.00000000E+00  0.00000000E+00
  0.00000000E+00  0.00000000E+00
Number of contracted shells                I               20
Number of primitive shells                 I               38
Pure/Cartesian d shells                    I                0
Pure/Cartesian f shells                    I                0
Highest angular momentum                   I                2
Largest degree of contraction              I                6
Shell types                                I   N=          20
           0          -1          -1          -1          -1          -2
           0          -1          -1          -1          -1          -2
           0           0           0           1           0           0
           0           1
Number of primitives per shell             I   N=          20
           6           3           1           1           1           1
           6           3           1           1           1           1
           3           1           1           1           3           1
           1           1
Shell to atom map                          I   N=          20
           1           1           1           1           1           1
           2           2           2           2           2           2
           3           3           3           3           4           4
           4           4
Primitive exponents                        R   N=          38
  4.56324000E+03  6.82024000E+02  1.54973000E+02  4.44553000E+01  1.30290000E+01
  1.82773000E+00  2.09642000E+01  4.80331000E+00  1.45933000E+00  4.83456000E-01
  1.45585000E-01  4.38000000E-02  6.26000000E-01  4.56324000E+03  6.82024000E+02
  1.54973000E+02  4.44553000E+01  1.30290000E+01  1.82773000E+00  2.09642000E+01
  4.80331000E+00  1.45933000E+00  4.83456000E-01  1.45585000E-01  4.38000000E-02
  6.26000000E-01  3.38650000E+01  5.09479000E+00  1.15879000E+00  3.25840000E-01
  1.02741000E-01  7.50000000E-01  3.38650000E+01  5.09479000E+00  1.15879000E+00
  3.25840000E-01  1.02741000E-01  7.50000000E-01
Contraction coefficients                   R   N=          38
  1.96665025E-03  1.52306019E-02  7.61269097E-02  2.60801033E-01  6.16462078E-01
  2.21006028E-01  1.14660081E-01  9.19999648E-01 -3.03068213E-03  1.00000000E+00
  1.00000000E+00  1.00000000E+00  1.00000000E+00  1.96665025E-03  1.52306019E-02
  7.61269097E-02  2.60801033E-01  6.16462078E-01  2.21006028E-01  1.14660081E-01
  9.19999648E-01 -3.03068213E-03  1.00000000E+00  1.00000000E+00  1.00000000E+00
  1.00000000E+00  2.54938145E-02  1.90373109E-01  8.52161486E-01  1.00000000E+00
  1.00000000E+00  1.00000000E+00  2.54938145E-02  1.90373109E-01  8.52161486E-01
  1.00000000E+00  1.00000000E+00  1.00000000E+00
P(S=P) Contraction coefficients            R   N=          38
  0.00000000E+00  0.00000000E+00  0.00000000E+00  0.00000000E+00  0.00000000E+00
  0.00000000E+00  4.02486927E-02  2.37593957E-01  8.15853851E-01  1.00000000E+00
  1.00000000E+00  1.00000000E+00  0.00000000E+00  0.00000000E+00  0.00000000E+00
  0.00000000E+00  0.00000000E+00  0.00000000E+00  0.00000000E+00  4.02486927E-02
  2.37593957E-01  8.15853851E-01  1.00000000E+00  1.00000000E+00  1.00000000E+00
  0.00000000E+00  0.00000000E+00  0.00000000E+00  0.00000000E+00  0.00000000E+00
  0.00000000E+00  0.00000000E+00  0.00000000E+00  0.00000000E+00  0.00000000E+00
  0.00000000E+00  0.00000000E+00  0.00000000E+00
Coordinates of each shell                  R   N=          60
 -1.60860901E+00  0.00000000E+00  0.00000000E+00 -1.60860901E+00  0.00000000E+00
  0.00000000E+00 -1.60860901E+00  0.00000000E+00  0.00000000E+00 -1.60860901E+00
  0.00000000E+00  0.00000000E+00 -1.60860901E+00  0.00000000E+00  0.00000000E+00
 -1.60860901E+00  0.00000000E+00  0.00000000E+00  1.60860901E+00  0.00000000E+00
  0.00000000E+00  1.60860901E+00  0.00000000E+00  0.00000000E+00  1.60860901E+00
  0.00000000E+00  0.00000000E+00  1.60860901E+00  0.00000000E+00  0.00000000E+00
  1.60860901E+00  0.00000000E+00  0.00000000E+00  1.60860901E+00  0.00000000E+00
  0.00000000E+00 -3.68059301E+00  5.96970390E-06  2.86193403E-06 -3.68059301E+00
  5.96970390E-06  2.86193403E-06 -3.68059301E+00  5.96970390E-06  2.86193403E-06
 -3.68059301E+00  5.96970390E-06  2.86193403E-06  3.68055577E+00 -1.90208890E-05
 -2.05755946E-05  3.68055577E+00 -1.90208890E-05 -2.05755946E-05  3.68055577E+00
 -1.90208890E-05 -2.05755946E-05  3.68055577E+00 -1.90208890E-05 -2.05755946E-05
Num ILSW                                   I              100
ILSW                                       I   N=         100
           1           0           0           1           2           0
           0           0           0           0        4336          -1
           7           0           0           0           2           0
           0           0           0           0           1           0
           1           1           0           0           0           0
           0           0      100000           0          -1           0
           0           0           0           0           0           0
           0           0           0           1           0           0
           0 -2000000000           1           0           0           0
           0           0           4          52           0           0
           0           0          55           0           0           0
           0           0           0           4           0           1
           0           0           0           0           0           0
           0           0           0           0           0           0
           0           0           0           0           0           0
           0           0           0           0           0           0
           0           0           0           0
Num RLSW                                   I               52
RLSW                                       R   N=          52
  1.00000000E+00  1.00000000E+00  1.00000000E+00  1.00000000E+00  5.40000000E-01
  0.00000000E+00  0.00000000E+00  1.00000000E+00  0.00000000E+00  0.00000000E+00
  0.00000000E+00  0.00000000E+00  1.00000000E+00  0.00000000E+00  0.00000000E+00
  0.00000000E+00  0.00000000E+00  1.00000000E+00  0.00000000E+00  0.00000000E+00
  0.00000000E+00  0.00000000E+00  1.00000000E+00  0.00000000E+00  0.00000000E+00
  0.00000000E+00  0.00000000E+00  1.00000000E+00  0.00000000E+00  0.00000000E+00
  0.00000000E+00  0.00000000E+00  1.00000000E+00  0.00000000E+00  0.00000000E+00
  0.00000000E+00  0.00000000E+00  0.00000000E+00  1.00000000E+00  1.00000000E+00
  0.00000000E+00  1.00000000E+00  0.00000000E+00  0.00000000E+00  0.00000000E+00
  0.00000000E+00  0.00000000E+00  0.00000000E+00  0.00000000E+00  0.00000000E+00
  0.00000000E+00  0.00000000E+00
MxBond                                     I                2
NBond                                      I   N=           4
           2           2           1           1
IBond                                      I   N=           8
           2           3           1           4           1           0
           2           0
RBond                                      R   N=           8
  1.00000000E+00  1.00000000E-01  1.00000000E+00  1.00000000E-01  1.00000000E-01
  0.00000000E+00  1.00000000E-01  0.00000000E+00
Virial Ratio                               R      2.014395547509484E+00
SCF Energy                                 R     -7.672835884419712E+01
Total Energy                               R     -7.672835884419712E+01
S**2                                       R      7.524305826113942E-01
S**2 after annihilation                    R      7.500038386224661E-01
RMS Force                                  R      3.079870554104619E-06
RMS Density                                R      6.299322278981260E-09
Job Status                                 I                1
Nuclear derivative order                   I                1
External E-field                           R   N=          35
  0.00000000E+00  0.00000000E+00  0.00000000E+00  0.00000000E+00  0.00000000E+00
  0.00000000E+00  0.00000000E+00  0.00000000E+00  0.00000000E+00  0.00000000E+00
  0.00000000E+00  0.00000000E+00  0.00000000E+00  0.00000000E+00  0.00000000E+00
  0.00000000E+00  0.00000000E+00  0.00000000E+00  0.00000000E+00  0.00000000E+00
  0.00000000E+00  0.00000000E+00  0.00000000E+00  0.00000000E+00  0.00000000E+00
  0.00000000E+00  0.00000000E+00  0.00000000E+00  0.00000000E+00  0.00000000E+00
  0.00000000E+00  0.00000000E+00  0.00000000E+00  0.00000000E+00  0.00000000E+00
IOpCl                                      I                1
IROHF                                      I                0
Alpha Orbital Energies                     R   N=          56
 -1.10003100E+01 -1.09999583E+01 -1.09991945E+00 -9.92439729E-01 -8.40852985E-01
 -6.34029013E-01 -6.12929896E-01 -3.64324809E-01 -3.44414048E-01 -2.83106549E-01
 -1.41881969E-01 -1.13094854E-01 -1.05402086E-01 -9.05957934E-02 -8.82449365E-02
 -5.31919767E-02 -5.00743873E-02  1.33248497E-02  3.73030009E-02  7.45074858E-02
  2.27064361E-01  3.14020675E-01  3.28431659E-01  3.53312888E-01  3.57101230E-01
  3.63771040E-01  4.36108582E-01  5.14363682E-01  5.49617050E-01  6.99185040E-01
  7.10971483E-01  7.49447635E-01  9.55635086E-01  9.57085105E-01  1.05072450E+00
  1.05797945E+00  1.10091071E+00  1.10207827E+00  1.24073045E+00  1.44076983E+00
  1.44900685E+00  1.55441682E+00  1.82191257E+00  1.83750466E+00  2.07294112E+00
  2.28462589E+00  2.37014925E+00  2.39644804E+00  2.44453634E+00  2.44568217E+00
  2.47361593E+00  2.79392121E+00  2.95943699E+00  3.16429196E+00  2.32065677E+01
  2.34123490E+01
Beta Orbital Energies                      R   N=          56
 -1.09977953E+01 -1.09975533E+01 -1.06180367E+00 -9.74679572E-01 -8.31932388E-01
 -5.93288264E-01 -4.06840816E-01 -3.27200594E-01 -2.82369463E-01 -2.61968102E-01
 -1.52202708E-01 -1.16273894E-01 -1.09990008E-01 -9.43429975E-02 -9.26326319E-02
 -5.26692302E-02 -4.97709187E-02  4.37147371E-03  3.83058356E-02  7.74798583E-02
  2.33940865E-01  3.13363151E-01  3.28268766E-01  3.41840186E-01  3.60085252E-01
  3.60737757E-01  4.23007576E-01  5.18141373E-01  5.60698711E-01  7.24039346E-01
  7.25686950E-01  7.32172834E-01  9.87204042E-01  1.01016047E+00  1.06414852E+00
  1.07396550E+00  1.12755923E+00  1.15034268E+00  1.26156741E+00  1.45166786E+00
  1.46147221E+00  1.56825218E+00  1.84158327E+00  1.84931493E+00  2.10141276E+00
  2.30007532E+00  2.40431358E+00  2.41281998E+00  2.46200408E+00  2.48223716E+00
  2.49314087E+00  2.85856732E+00  2.98839463E+00  3.18075199E+00  2.32172032E+01
  2.34241916E+01
Alpha MO coefficients                      R   N=        3136
  3.99924107E-01  3.28884164E-01  8.62036352E-04  6.40133314E-09  5.31598817E-09
  7.12767211E-03 -2.08911729E-03  2.88547187E-09  6.54633545E-10 -3.40078808E-03
  6.55717928E-04 -1.38118390E-09 -1.13915267E-09 -4.05256331E-04  1.40207026E-03
 -1.01742698E-08 -8.40141351E-09 -3.94376280E-04 -3.31280270E-09  3.51268903E-05
  6.97696052E-04 -5.68414475E-09  3.98260259E-01  3.27516236E-01 -8.59857334E-04
  3.49871429E-09  7.64761291E-09  7.09651140E-03  2.08152160E-03 -2.01218728E-08
 -2.38276886E-08 -3.37675825E-03 -6.77084661E-04  6.15009473E-09  7.49806387E-09
 -4.23990218E-04 -1.39458299E-03  1.35928490E-08  1.30746552E-08 -3.91246711E-04
 -1.63541400E-08  3.49726093E-05  6.92211278E-04 -1.52554893E-08  1.23581415E-04
 -2.53605630E-03  3.01469272E-03 -1.55217166E-03  4.47424563E-09  2.34320845E-09
  1.22808041E-04 -2.51816149E-03  3.01341833E-03  1.54401460E-03 -1.28283957E-08
 -1.37350572E-08 -3.98301505E-01 -3.27458606E-01 -5.22275089E-04 -5.24118934E-09
 -4.04802747E-09 -7.50132515E-03  1.86368389E-03 -7.73281722E-09 -5.57081249E-09
  5.74996881E-03  5.13104593E-03  9.95896983E-10  3.73452314E-09 -4.37569600E-03
 -1.76247471E-03  7.87169516E-10  8.22494029E-10  7.61362608E-04  1.75008234E-09
 -3.69004700E-05 -1.33407300E-03  5.45382781E-09  3.99965170E-01  3.28826734E-01
 -5.25869649E-04  3.67259116E-09  7.59188124E-09  7.53116008E-03  1.87260301E-03
 -2.31276963E-08 -2.61907226E-08 -5.76395167E-03  5.12830742E-03 -9.23777608E-09
 -1.02756968E-08  4.37392602E-03 -1.76829872E-03 -5.65834950E-10 -9.73003416E-10
 -7.63051511E-04 -2.41740440E-08  3.70464530E-05  1.33705901E-03 -2.19403256E-08
 -1.74982725E-04  4.35408215E-03 -3.35843053E-04  1.98605033E-03 -8.96754079E-09
 -5.09027632E-09  1.75437305E-04 -4.36492970E-03  3.48447589E-04  1.99264524E-03
 -2.42189330E-08 -2.57876440E-08 -8.58165725E-02 -1.40306707E-01  1.40371364E-02
  7.57839490E-09 -6.57361238E-08  4.01168830E-01  3.06813946E-02  6.04856392E-08
 -5.02639892E-08  2.53640647E-01  6.44176814E-03  9.90266237E-09 -3.75765135E-08
 -2.18468563E-03 -1.96717014E-02  1.16505235E-07  1.06155777E-07 -8.56155969E-03
 -1.67246350E-08  4.40531265E-03  1.66620927E-02 -3.01828141E-08 -8.58187979E-02
 -1.40310305E-01 -1.40337739E-02 -1.59732672E-07 -1.45998624E-07  4.01178536E-01
 -3.06774895E-02 -2.45409662E-07 -2.09775685E-07  2.53646881E-01 -6.44173030E-03
 -1.05764497E-07 -9.57600718E-08 -2.18497742E-03  1.96718564E-02 -1.53790953E-07
 -1.56714960E-07 -8.56177443E-03 -9.26521032E-08  4.40543273E-03  1.66625144E-02
 -8.26566787E-08  6.55609827E-02  7.93321448E-02 -2.25143609E-02  1.13521978E-02
 -2.45307141E-08 -1.31147174E-08  6.55660856E-02  7.93374060E-02 -2.25147678E-02
 -1.13529400E-02  7.64692546E-08  8.31911258E-08 -7.22099260E-02 -1.18341951E-01
 -8.41213183E-02  2.13318365E-07  9.42647612E-08  3.42553625E-01 -1.17000629E-01
  3.48317003E-07  1.74293221E-07  2.48003867E-01 -4.04595045E-02  1.13593092E-07
  4.13489585E-08 -1.51815092E-01 -5.62160900E-02 -2.39344434E-08 -4.29603862E-08
 -4.27939708E-03 -7.35913542E-09  3.60159850E-03  8.91074820E-03 -4.32763348E-08
  7.22071794E-02  1.18337362E-01 -8.41282119E-02  5.27889208E-07  5.28134174E-07
 -3.42539591E-01 -1.17010093E-01  7.49293533E-07  7.29431227E-07 -2.47992167E-01
 -4.04619427E-02  2.94967389E-07  2.95226060E-07  1.51814991E-01 -5.62148453E-02
  8.31003207E-08  1.01449521E-07  4.27910638E-03  1.54289880E-07 -3.60144798E-03
 -8.91018193E-03  1.46884086E-07  1.17394198E-01  1.47333009E-01 -1.00246948E-02
  1.96220004E-02 -4.68691668E-08 -1.46828403E-08 -1.17397963E-01 -1.47335439E-01
  1.00234978E-02  1.96222961E-02 -1.80650654E-07 -1.96545848E-07 -4.87884068E-03
 -8.59309067E-03  1.81877909E-01 -3.23477261E-07 -1.90529748E-07  2.97582362E-02
  2.74513867E-01 -4.06591358E-07 -2.19306612E-07  8.81572083E-03  1.28451353E-01
 -3.15521834E-07 -2.12711890E-07 -6.99477517E-03 -8.24542812E-04 -5.67656149E-08
 -4.81705120E-08 -2.72473081E-03  6.68610375E-08  5.77837471E-04  4.95980560E-03
  1.08638450E-07 -4.88114451E-03 -8.59696576E-03 -1.81876248E-01  9.67446101E-07
  1.06601546E-06  2.97700909E-02 -2.74510287E-01  1.33710713E-06  1.48583080E-06
  8.82755548E-03 -1.28448670E-01  7.95151604E-07  8.62908339E-07 -7.00385448E-03
  8.28173445E-04  6.54826875E-08  6.02289753E-08 -2.72469162E-03  1.39600151E-07
  5.77973616E-04  4.95979436E-03  1.59931750E-07 -1.20622545E-01 -1.62433498E-01
 -7.72735327E-03 -1.85172706E-02  6.42794109E-08  2.50917894E-08 -1.20620473E-01
 -1.62428069E-01 -7.72779144E-03  1.85165952E-02 -2.04134958E-07 -2.15339824E-07
  4.88487048E-07  8.37212104E-07 -1.01670418E-06  1.24450349E-01  1.53006861E-01
 -2.65445677E-06 -1.36055059E-06  2.02396595E-01  2.48838743E-01 -3.96591669E-06
 -2.39689405E-06  1.59654144E-01  1.96288548E-01 -8.94830783E-07 -4.04462121E-07
 -1.56670092E-03 -1.92619723E-03 -6.15003637E-08  1.71107410E-02 -2.72863646E-09
  5.39624810E-08  1.39172714E-02 -6.94794102E-07 -1.19414094E-06  4.45214024E-07
  1.24450303E-01  1.53006806E-01  3.82837492E-06  1.18099782E-06  2.02396673E-01
  2.48838842E-01  4.82556266E-06 -1.37625350E-06  1.59653984E-01  1.96288354E-01
  6.55055391E-07 -7.31475740E-07 -1.56679975E-03 -1.92631878E-03  1.18562999E-07
 -1.71107076E-02  3.62141232E-08 -1.43353904E-07 -1.39172444E-02  8.44377181E-07
  1.15210373E-06 -2.91430557E-07  1.56352042E-07  9.14766043E-03  1.12466921E-02
 -1.09993936E-06 -1.20892562E-06  9.93221217E-07  3.89392477E-07  9.14790221E-03
  1.12469895E-02  7.86846070E-08  1.33233037E-07  3.63614692E-08  1.51709520E-01
 -1.23395138E-01 -4.15687161E-07  1.07915601E-07  2.48068306E-01 -2.01769959E-01
 -5.12304200E-07 -7.55009723E-08  1.95712462E-01 -1.59185561E-01  6.79973534E-08
 -1.10240481E-08  1.27366803E-03 -1.03595694E-03 -3.90132230E-08 -1.40304109E-02
 -2.15309428E-08 -2.58388465E-08  1.72498469E-02 -6.80746144E-08 -1.15242113E-07
 -3.28322403E-08  1.51709164E-01 -1.23394850E-01  3.59015011E-07 -1.35962927E-08
  2.48067928E-01 -2.01769653E-01  4.60452920E-07 -1.27578756E-07  1.95711851E-01
 -1.59185067E-01 -5.80067557E-08 -7.44782069E-10  1.27355923E-03 -1.03586841E-03
  2.37044652E-08  1.40304272E-02  2.21963808E-08  1.96259508E-08 -1.72498671E-02
  1.02244688E-07  1.32216724E-07 -6.78080444E-08  4.65558919E-08  1.22950577E-02
 -1.00003631E-02 -9.15348760E-08 -1.29244875E-07  3.76325614E-08  3.38045180E-08
  1.22953581E-02 -1.00006076E-02 -6.13107613E-07 -1.02723007E-06  2.10332714E-06
  1.39340087E-01  1.71313238E-01  3.24810679E-06  3.35896967E-06  2.19045648E-01
  2.69308144E-01  4.42790497E-06  1.74263912E-06  2.35081323E-01  2.89023365E-01
  3.81408826E-07  1.66490668E-07  4.00785531E-02  4.92750340E-02  1.44204070E-07
 -1.69519122E-02  6.63038813E-08 -2.82522734E-07 -1.37880792E-02  9.97372448E-07
  1.71050531E-06 -6.39988495E-07 -1.39339999E-01 -1.71313129E-01 -5.39633651E-06
 -1.35638429E-06 -2.19045682E-01 -2.69308183E-01 -9.55066502E-06 -2.75764753E-06
 -2.35081154E-01 -2.89023155E-01 -1.25043674E-06 -2.13951409E-07 -4.00784208E-02
 -4.92748711E-02 -3.20810293E-07 -1.69519747E-02 -6.03773417E-08  4.78057843E-07
 -1.37881298E-02 -8.71318933E-07 -1.98728848E-06 -1.98672033E-06  5.88821233E-08
  1.44105286E-02  1.77171860E-02  2.16948961E-06  5.03959575E-06  3.98153515E-06
 -3.05566537E-07 -1.44106442E-02 -1.77173280E-02  7.93118151E-08  1.33886249E-07
  1.21371948E-07  1.69039609E-01 -1.37490799E-01 -3.98853763E-07  2.20092735E-07
  2.64620362E-01 -2.15232786E-01 -8.19188184E-07  2.97347560E-07  2.93512938E-01
 -2.38732962E-01 -1.99719575E-07  1.47104111E-08  6.47685303E-02 -5.26804222E-02
 -4.87076824E-08  1.43218889E-02 -2.87454594E-08  2.85963336E-09 -1.76082042E-02
 -1.68782850E-08 -2.94351618E-08 -2.22817282E-07 -1.69039704E-01  1.37490876E-01
  1.15030602E-07 -3.63865696E-07 -2.64620731E-01  2.15233085E-01  5.38301635E-08
 -2.78404581E-07 -2.93513089E-01  2.38733084E-01  4.93801963E-08 -6.62691711E-08
 -6.47684156E-02  5.26803287E-02 -2.40470658E-08  1.43218804E-02 -1.70421015E-08
 -4.27943653E-08 -1.76081936E-02  1.72218102E-07  3.98678532E-07  3.18373376E-07
  3.22719286E-08  1.88857725E-02 -1.53610145E-02 -1.37622499E-09 -1.25343776E-08
 -5.31929136E-08 -2.03907420E-08 -1.88859476E-02  1.53611568E-02  6.95814342E-02
  1.18328598E-01 -1.20334693E-01  6.49447482E-07  1.19759725E-06 -3.67365234E-01
 -1.73355388E-01  8.50019060E-07  1.73619240E-06 -8.08228011E-01 -2.27049139E-01
  9.03641793E-07  2.08307518E-06 -9.91991308E-01 -3.57045697E-01  4.32045001E-07
  7.02591723E-07 -2.44295748E-02 -4.02115361E-07 -5.52628410E-03  4.00137982E-02
 -3.94401688E-07 -6.95804597E-02 -1.18327015E-01 -1.20339042E-01 -2.09748254E-06
 -2.61909330E-06  3.67360395E-01 -1.73361352E-01 -3.53810752E-06 -4.35541097E-06
  8.08220921E-01 -2.27054942E-01 -5.05484297E-06 -6.17883144E-06  9.91993550E-01
 -3.57040930E-01 -9.33952346E-07 -1.22709724E-06  2.44291949E-02  1.84472670E-07
  5.52625525E-03 -4.00131525E-02  2.43666361E-07  1.15772570E-01  2.72397612E-01
  2.86731361E-01 -3.95277483E-03  6.16235273E-08  1.47874132E-07 -1.15769226E-01
 -2.72388233E-01 -2.86719106E-01 -3.95228732E-03 -3.58766719E-07 -4.35259853E-07
  2.60071081E-02  4.54569209E-02  4.09221073E-02 -6.47573798E-08 -1.43117068E-08
 -1.63790327E-01  7.32623025E-02 -2.32855612E-07 -1.22897204E-07 -3.67513263E-01
  8.58439119E-02  5.70389120E-08  1.12535315E-07  9.18705336E-01 -5.35296262E-01
  3.34694960E-06  2.62212172E-06  7.88639117E-03  2.73003137E-08  3.52803344E-04
 -1.35128332E-02  4.68095990E-08  2.60082705E-02  4.54589634E-02 -4.09171351E-02
  2.61826651E-07  2.86604102E-07 -1.63796968E-01 -7.32559693E-02  6.86008312E-07
  7.43256300E-07 -3.67533079E-01 -8.58239660E-02  3.05850318E-07  3.89921752E-07
  9.18763162E-01  5.35270067E-01 -5.18429637E-06 -5.15011772E-06  7.88601106E-03
  1.14585281E-07  3.52701436E-04 -1.35122171E-02  1.10458285E-07 -1.12746253E-02
  7.86167778E-02 -1.86869360E-01 -1.10763212E-02  5.43872646E-08  3.17021998E-08
 -1.12735295E-02  7.86207147E-02 -1.86872645E-01  1.10754033E-02 -1.42013626E-07
 -1.50873354E-07  8.31547349E-04  7.82410686E-04 -8.88357249E-02  3.09627605E-07
  3.05479643E-07  1.79439286E-02 -1.43706405E-01  4.05217857E-07  3.84067416E-07
 -1.16112553E-01 -1.79463646E-01  6.65213094E-07  7.59738159E-07  3.08301256E+00
  1.94611088E+00 -5.54664926E-07  7.04971242E-07 -1.13505264E-02 -5.73692438E-08
 -1.55404883E-03  1.90130569E-02 -8.33626195E-08 -8.31615549E-04 -7.82367296E-04
 -8.88228234E-02  2.29046318E-07  1.98323398E-07 -1.79485605E-02 -1.43686410E-01
  3.66573810E-07  3.31969555E-07  1.16142659E-01 -1.79416344E-01 -4.45677131E-09
 -1.44452070E-07 -3.08294955E+00  1.94603251E+00 -6.38681663E-06 -7.28769159E-06
  1.13538423E-02  1.38223448E-07  1.55448914E-03 -1.90186169E-02  1.42909759E-07
  4.18031387E-02  3.25413752E-02  2.84786173E-01  1.63634820E-02 -5.21406812E-08
 -9.48212252E-09 -4.18119996E-02 -3.25699982E-02 -2.84880785E-01  1.63602717E-02
 -2.51084299E-07 -2.80329044E-07  1.39136079E-03  1.36925824E-03  9.36782241E-02
 -5.20217448E-07 -3.78487155E-07  2.30286964E-02  1.46158446E-01 -7.36345087E-07
 -5.50907903E-07 -1.79464684E-01  3.22835404E-01 -1.96870648E-06 -1.24064702E-06
 -4.20284729E-01 -6.16756236E-01  2.55277943E-07 -1.21897505E-07 -2.34940064E-02
  1.39244246E-07 -3.00920573E-03  3.94406931E-02  8.76989743E-08  1.39284755E-03
  1.37190272E-03 -9.36822268E-02  1.15164741E-06  1.22214833E-06  2.30179782E-02
 -1.46166072E-01  1.50742877E-06  1.58662266E-06 -1.79484253E-01 -3.22837012E-01
  4.93673947E-06  5.22203422E-06 -4.20746492E-01  6.17047768E-01 -2.71786235E-06
 -3.10966052E-06 -2.34931679E-02 -3.29362412E-07 -3.00916504E-03  3.94392576E-02
 -2.62173399E-07  5.73509267E-02  2.01990268E-01  6.85969938E-01 -2.14877840E-02
 -6.87339977E-08 -8.31011273E-08  5.73445709E-02  2.01986898E-01  6.85921699E-01
  2.14898133E-02 -1.55336444E-08 -3.05558372E-08  2.96952116E-08  4.54064502E-08
  1.36686394E-07 -4.83781886E-02 -5.94794700E-02 -2.35890792E-08  5.98870906E-08
 -5.61791722E-02 -6.90705612E-02 -3.28535987E-07  4.95660037E-06 -1.52566854E-01
 -1.87576211E-01  4.09822850E-05  1.58086260E-05  4.05150883E-01  4.98120405E-01
 -1.50015586E-07 -8.08922795E-03 -3.30903207E-08  2.60921186E-07 -6.57945006E-03
  4.82440022E-08  9.12432995E-08 -7.69279497E-07 -4.83775232E-02 -5.94786519E-02
 -4.44510702E-07 -1.34432935E-06 -5.61783418E-02 -6.90695398E-02  1.72084061E-07
  2.84680141E-06 -1.52565097E-01 -1.87574050E-01 -3.96773176E-05  2.67902667E-05
  4.05139497E-01  4.98106406E-01 -5.06413244E-08  8.08911536E-03  1.19841608E-08
  7.92653712E-08  6.57935847E-03  3.84291397E-07  2.23853933E-06  7.01176039E-06
 -4.17123533E-08  3.47040184E-03  4.26674901E-03  1.03205612E-07 -1.25308641E-06
 -4.70471956E-06  8.83053560E-08  3.47008653E-03  4.26636135E-03 -6.34884624E-09
 -1.08808031E-08 -5.38683279E-08 -5.89935695E-02  4.79829649E-02  4.19008339E-08
 -1.11815228E-07 -7.41677810E-02  6.03250715E-02  3.95785630E-08  5.77781731E-07
 -1.86079528E-01  1.51349533E-01  6.29287726E-06  3.41203228E-06  4.97042028E-01
 -4.04273780E-01  1.57473760E-08  6.76636649E-03  3.70753808E-09  1.38205876E-08
 -8.31903823E-03  2.10618074E-09  3.39997735E-09 -1.92564351E-08 -5.89927288E-02
  4.79822810E-02 -1.30545576E-08 -5.60438730E-08 -7.41667783E-02  6.03242556E-02
 -5.40024809E-08  6.41433249E-07 -1.86077177E-01  1.51347620E-01 -6.43645847E-06
  2.91329798E-06  4.97027463E-01 -4.04261933E-01 -1.15682257E-08 -6.76628038E-03
 -1.58427219E-09 -2.69264561E-08  8.31893234E-03  6.95190247E-10  2.07351130E-07
  7.74539409E-07  6.95659384E-09  3.79894860E-03 -3.08990866E-03 -1.70423586E-08
 -2.32433880E-07 -7.87758968E-07  2.29487648E-09  3.79855983E-03 -3.08959246E-03
 -3.62642838E-08 -5.61935568E-08  4.15823420E-07  4.92562539E-02  6.05589579E-02
  1.61291084E-07  4.69361537E-07  5.93115058E-02  7.29215838E-02  1.06954061E-06
  3.44794121E-06  1.71722689E-01  2.11127446E-01  3.11092178E-05  5.42870984E-06
 -1.10371824E+00 -1.35698546E+00 -5.38547688E-08  3.93157443E-03  5.57362086E-09