Title Card Required                                                     
FOpt      UM062X                                                      6-311+G(d,p)        
Number of atoms                            I                6
Info1-9                                    I   N=           9
          15          15           0           0           0         110
           2          18        -502
Full Title                                 C   N=           2
Title Card Required     
Route                                      C   N=           4
#p opt UM062X/6-311+G** nosymm int=superfine    
Charge                                     I                1
Multiplicity                               I                2
Number of electrons                        I               15
Number of alpha electrons                  I                8
Number of beta electrons                   I                7
Number of basis functions                  I               68
Number of independent functions            I               68
Number of point charges in /Mol/           I                0
Number of translation vectors              I                0
Atomic numbers                             I   N=           6
           6           6           1           1           1           1
Nuclear charges                            R   N=           6
  6.00000000E+00  6.00000000E+00  1.00000000E+00  1.00000000E+00  1.00000000E+00
  1.00000000E+00
Current cartesian coordinates              R   N=          18
 -1.88352351E+00  0.00000000E+00  0.00000000E+00  1.88352351E+00  0.00000000E+00
  0.00000000E+00 -2.76205670E+00 -1.85098742E+00 -1.14374313E-08 -2.76216393E+00
  1.85079403E+00 -2.39909149E-08  2.76205670E+00  1.85098736E+00  1.24795914E-08
  2.76216393E+00 -1.85079397E+00 -6.41546389E-11
Number of symbols in /Mol/                 I                0
Force Field                                I                0
Atom Types                                 C   N=           6
                                                            
            
Int Atom Types                             I   N=           6
           0           0           0           0           0           0
MM charges                                 R   N=           6
  0.00000000E+00  0.00000000E+00  0.00000000E+00  0.00000000E+00  0.00000000E+00
  0.00000000E+00
Integer atomic weights                     I   N=           6
          12          12           1           1           1           1
Real atomic weights                        R   N=           6
  1.20000000E+01  1.20000000E+01  1.00782504E+00  1.00782504E+00  1.00782504E+00
  1.00782504E+00
Atom fragment info                         I   N=           6
           0           0           0           0           0           0
Atom residue num                           I   N=           6
           0           0           0           0           0           0
Nuclear spins                              I   N=           6
           0           0           1           1           1           1
Nuclear ZEff                               R   N=           6
 -3.60000000E+00 -3.60000000E+00 -1.00000000E+00 -1.00000000E+00 -1.00000000E+00
 -1.00000000E+00
Nuclear ZNuc                               R   N=           6
  6.00000000E+00  6.00000000E+00  1.00000000E+00  1.00000000E+00  1.00000000E+00
  1.00000000E+00
Nuclear QMom                               R   N=           6
  0.00000000E+00  0.00000000E+00  0.00000000E+00  0.00000000E+00  0.00000000E+00
  0.00000000E+00
Nuclear GFac                               R   N=           6
  0.00000000E+00  0.00000000E+00  2.79284600E+00  2.79284600E+00  2.79284600E+00
  2.79284600E+00
MicOpt                                     I   N=           6
          -2          -2          -1          -1          -1          -1
Number of residues                         I                0
Number of secondary structures             I                0
Redundant internal dimensions              I   N=           4
          20          10           6           4
Redundant internal coordinate indices      I   N=          80
           1          -1           0           0           1          -2
           0           0           1          -3           0           0
           2          -1           0           0           2          -2
           0           0           2          -3           0           0
           1           3           0           0           1           4
           0           0           2           5           0           0
           2           6           0           0           2           1
           3           0           2           1           4           0
           3           1           4           0           1           2
           5           0           1           2           6           0
           5           2           6           0           3           1
           2           5           3           1           2           6
           4           1           2           5           4           1
           2           6
Redundant internal coordinates             R   N=          20
 -1.88352351E+00  0.00000000E+00  0.00000000E+00  1.88352351E+00  0.00000000E+00
  0.00000000E+00  2.04889604E+00  2.04876732E+00  2.04889599E+00  2.04876726E+00
  2.01394231E+00  2.01403006E+00  2.25521294E+00  2.01394231E+00  2.01403007E+00
  2.25521292E+00  3.14159265E+00 -0.00000000E+00  2.10734243E-08 -3.14159264E+00
ZRed-IntVec                                I   N=          20
          -1          -1          -1          -1          -1          -1
           0           0           0           0           0           0
           0           0           0           0           0           0
           0           0
ZRed-FPVec                                 R   N=          20
  0.00000000E+00  0.00000000E+00  0.00000000E+00  0.00000000E+00  0.00000000E+00
  0.00000000E+00  0.00000000E+00  0.00000000E+00  0.00000000E+00  0.00000000E+00
  0.00000000E+00  0.00000000E+00  0.00000000E+00  0.00000000E+00  0.00000000E+00
  0.00000000E+00  0.00000000E+00  0.00000000E+00  0.00000000E+00  0.00000000E+00
ZRed-Constraint1                           R   N=          20
 -1.88352351E+00  0.00000000E+00  0.00000000E+00  1.88352351E+00  0.00000000E+00
  0.00000000E+00  2.30157965E+00  2.30228525E+00  2.30157965E+00  2.30228525E+00
  2.26982405E+00  2.26460961E+00  1.74875165E+00  2.26982405E+00  2.26460961E+00
  1.74875165E+00  3.14159265E+00  0.00000000E+00  0.00000000E+00  3.14159265E+00
ZRed-Constraint2                           R   N=          20
 -1.88352351E+00  0.00000000E+00  0.00000000E+00  1.88352351E+00  0.00000000E+00
  0.00000000E+00  0.00000000E+00  0.00000000E+00  0.00000000E+00  0.00000000E+00
  0.00000000E+00  0.00000000E+00  0.00000000E+00  0.00000000E+00  0.00000000E+00
  0.00000000E+00  0.00000000E+00  0.00000000E+00  0.00000000E+00  0.00000000E+00
Number of contracted shells                I               28
Number of primitive shells                 I               50
Pure/Cartesian d shells                    I                0
Pure/Cartesian f shells                    I                0
Highest angular momentum                   I                2
Largest degree of contraction              I                6
Shell types                                I   N=          28
           0          -1          -1          -1          -1          -2
           0          -1          -1          -1          -1          -2
           0           0           0           1           0           0
           0           1           0           0           0           1
           0           0           0           1
Number of primitives per shell             I   N=          28
           6           3           1           1           1           1
           6           3           1           1           1           1
           3           1           1           1           3           1
           1           1           3           1           1           1
           3           1           1           1
Shell to atom map                          I   N=          28
           1           1           1           1           1           1
           2           2           2           2           2           2
           3           3           3           3           4           4
           4           4           5           5           5           5
           6           6           6           6
Primitive exponents                        R   N=          50
  4.56324000E+03  6.82024000E+02  1.54973000E+02  4.44553000E+01  1.30290000E+01
  1.82773000E+00  2.09642000E+01  4.80331000E+00  1.45933000E+00  4.83456000E-01
  1.45585000E-01  4.38000000E-02  6.26000000E-01  4.56324000E+03  6.82024000E+02
  1.54973000E+02  4.44553000E+01  1.30290000E+01  1.82773000E+00  2.09642000E+01
  4.80331000E+00  1.45933000E+00  4.83456000E-01  1.45585000E-01  4.38000000E-02
  6.26000000E-01  3.38650000E+01  5.09479000E+00  1.15879000E+00  3.25840000E-01
  1.02741000E-01  7.50000000E-01  3.38650000E+01  5.09479000E+00  1.15879000E+00
  3.25840000E-01  1.02741000E-01  7.50000000E-01  3.38650000E+01  5.09479000E+00
  1.15879000E+00  3.25840000E-01  1.02741000E-01  7.50000000E-01  3.38650000E+01
  5.09479000E+00  1.15879000E+00  3.25840000E-01  1.02741000E-01  7.50000000E-01
Contraction coefficients                   R   N=          50
  1.96665025E-03  1.52306019E-02  7.61269097E-02  2.60801033E-01  6.16462078E-01
  2.21006028E-01  1.14660081E-01  9.19999648E-01 -3.03068213E-03  1.00000000E+00
  1.00000000E+00  1.00000000E+00  1.00000000E+00  1.96665025E-03  1.52306019E-02
  7.61269097E-02  2.60801033E-01  6.16462078E-01  2.21006028E-01  1.14660081E-01
  9.19999648E-01 -3.03068213E-03  1.00000000E+00  1.00000000E+00  1.00000000E+00
  1.00000000E+00  2.54938145E-02  1.90373109E-01  8.52161486E-01  1.00000000E+00
  1.00000000E+00  1.00000000E+00  2.54938145E-02  1.90373109E-01  8.52161486E-01
  1.00000000E+00  1.00000000E+00  1.00000000E+00  2.54938145E-02  1.90373109E-01
  8.52161486E-01  1.00000000E+00  1.00000000E+00  1.00000000E+00  2.54938145E-02
  1.90373109E-01  8.52161486E-01  1.00000000E+00  1.00000000E+00  1.00000000E+00
P(S=P) Contraction coefficients            R   N=          50
  0.00000000E+00  0.00000000E+00  0.00000000E+00  0.00000000E+00  0.00000000E+00
  0.00000000E+00  4.02486927E-02  2.37593957E-01  8.15853851E-01  1.00000000E+00
  1.00000000E+00  1.00000000E+00  0.00000000E+00  0.00000000E+00  0.00000000E+00
  0.00000000E+00  0.00000000E+00  0.00000000E+00  0.00000000E+00  4.02486927E-02
  2.37593957E-01  8.15853851E-01  1.00000000E+00  1.00000000E+00  1.00000000E+00
  0.00000000E+00  0.00000000E+00  0.00000000E+00  0.00000000E+00  0.00000000E+00
  0.00000000E+00  0.00000000E+00  0.00000000E+00  0.00000000E+00  0.00000000E+00
  0.00000000E+00  0.00000000E+00  0.00000000E+00  0.00000000E+00  0.00000000E+00
  0.00000000E+00  0.00000000E+00  0.00000000E+00  0.00000000E+00  0.00000000E+00
  0.00000000E+00  0.00000000E+00  0.00000000E+00  0.00000000E+00  0.00000000E+00
Coordinates of each shell                  R   N=          84
 -1.88352351E+00  0.00000000E+00  0.00000000E+00 -1.88352351E+00  0.00000000E+00
  0.00000000E+00 -1.88352351E+00  0.00000000E+00  0.00000000E+00 -1.88352351E+00
  0.00000000E+00  0.00000000E+00 -1.88352351E+00  0.00000000E+00  0.00000000E+00
 -1.88352351E+00  0.00000000E+00  0.00000000E+00  1.88352351E+00  0.00000000E+00
  0.00000000E+00  1.88352351E+00  0.00000000E+00  0.00000000E+00  1.88352351E+00
  0.00000000E+00  0.00000000E+00  1.88352351E+00  0.00000000E+00  0.00000000E+00
  1.88352351E+00  0.00000000E+00  0.00000000E+00  1.88352351E+00  0.00000000E+00
  0.00000000E+00 -2.76205670E+00 -1.85098742E+00 -1.14374313E-08 -2.76205670E+00
 -1.85098742E+00 -1.14374313E-08 -2.76205670E+00 -1.85098742E+00 -1.14374313E-08
 -2.76205670E+00 -1.85098742E+00 -1.14374313E-08 -2.76216393E+00  1.85079403E+00
 -2.39909149E-08 -2.76216393E+00  1.85079403E+00 -2.39909149E-08 -2.76216393E+00
  1.85079403E+00 -2.39909149E-08 -2.76216393E+00  1.85079403E+00 -2.39909149E-08
  2.76205670E+00  1.85098736E+00  1.24795914E-08  2.76205670E+00  1.85098736E+00
  1.24795914E-08  2.76205670E+00  1.85098736E+00  1.24795914E-08  2.76205670E+00
  1.85098736E+00  1.24795914E-08  2.76216393E+00 -1.85079397E+00 -6.41546389E-11
  2.76216393E+00 -1.85079397E+00 -6.41546389E-11  2.76216393E+00 -1.85079397E+00
 -6.41546389E-11  2.76216393E+00 -1.85079397E+00 -6.41546389E-11
Num ILSW                                   I              100
ILSW                                       I   N=         100
           1           0           0           0           2           0
           0           0           0           0        4336          -1
           7           0           0           0           2           0
           0           0           0           0           1           0
           1           1           0           0           0           0
           0           0      100000           0          -1           0
           0           0           0           0           0           0
           0           0           0           1           0           0
           0 -2000000000           1           0           0           0
           0           0           4          52           0           0
           0           0          55           0           0           0
           0           0           0           6           0           1
           0           0           0           0           0           0
           0           0           0           0           0           0
           0           0           0           0           0           0
           0           0           0           0           0           0
           0           0           0           0
Num RLSW                                   I               52
RLSW                                       R   N=          52
  1.00000000E+00  1.00000000E+00  1.00000000E+00  1.00000000E+00  5.40000000E-01
  0.00000000E+00  0.00000000E+00  1.00000000E+00  0.00000000E+00  0.00000000E+00
  0.00000000E+00  0.00000000E+00  1.00000000E+00  0.00000000E+00  0.00000000E+00
  0.00000000E+00  0.00000000E+00  1.00000000E+00  0.00000000E+00  0.00000000E+00
  0.00000000E+00  0.00000000E+00  1.00000000E+00  0.00000000E+00  0.00000000E+00
  0.00000000E+00  0.00000000E+00  1.00000000E+00  0.00000000E+00  0.00000000E+00
  0.00000000E+00  0.00000000E+00  1.00000000E+00  0.00000000E+00  0.00000000E+00
  0.00000000E+00  0.00000000E+00  0.00000000E+00  1.00000000E+00  1.00000000E+00
  0.00000000E+00  1.00000000E+00  0.00000000E+00  0.00000000E+00  0.00000000E+00
  0.00000000E+00  0.00000000E+00  0.00000000E+00  0.00000000E+00  0.00000000E+00
  0.00000000E+00  0.00000000E+00
MxBond                                     I                3
NBond                                      I   N=           6
           3           3           1           1           1           1
IBond                                      I   N=          18
           2           3           4           1           5           6
           1           0           0           1           0           0
           2           0           0           2           0           0
RBond                                      R   N=          18
  1.00000000E-01  1.00000000E+00  1.00000000E+00  1.00000000E-01  1.00000000E+00
  1.00000000E+00  1.00000000E+00  0.00000000E+00  0.00000000E+00  1.00000000E+00
  0.00000000E+00  0.00000000E+00  1.00000000E+00  0.00000000E+00  0.00000000E+00
  1.00000000E+00  0.00000000E+00  0.00000000E+00
Virial Ratio                               R      2.010156517825313E+00
SCF Energy                                 R     -7.806980980864188E+01
Total Energy                               R     -7.806980980864188E+01
S**2                                       R      7.521959405780532E-01
S**2 after annihilation                    R      7.500036625221899E-01
RMS Force                                  R      1.935401715383048E-04
RMS Density                                R      7.620336607490201E-09
Job Status                                 I                1
Nuclear derivative order                   I                1
External E-field                           R   N=          35
  0.00000000E+00  0.00000000E+00  0.00000000E+00  0.00000000E+00  0.00000000E+00
  0.00000000E+00  0.00000000E+00  0.00000000E+00  0.00000000E+00  0.00000000E+00
  0.00000000E+00  0.00000000E+00  0.00000000E+00  0.00000000E+00  0.00000000E+00
  0.00000000E+00  0.00000000E+00  0.00000000E+00  0.00000000E+00  0.00000000E+00
  0.00000000E+00  0.00000000E+00  0.00000000E+00  0.00000000E+00  0.00000000E+00
  0.00000000E+00  0.00000000E+00  0.00000000E+00  0.00000000E+00  0.00000000E+00
  0.00000000E+00  0.00000000E+00  0.00000000E+00  0.00000000E+00  0.00000000E+00
IOpCl                                      I                1
IROHF                                      I                0
Alpha Orbital Energies                     R   N=          68
 -1.09213247E+01 -1.09211638E+01 -1.07210703E+00 -9.99902455E-01 -8.08736485E-01
 -7.73589129E-01 -6.79163347E-01 -5.67590181E-01 -3.62196443E-01 -2.32461173E-01
 -1.41688419E-01 -1.10632168E-01 -9.98327822E-02 -8.45150950E-02 -7.44539572E-02
 -7.21556347E-02 -4.75177873E-02 -4.19226811E-02 -2.58835068E-02 -6.48140523E-03
  2.18332841E-02  9.41985929E-02  1.80072748E-01  2.29687761E-01  2.44383360E-01
  3.25086781E-01  3.76532528E-01  3.82358139E-01  4.11598665E-01  4.51497543E-01
  4.52004732E-01  4.83454357E-01  5.32354426E-01  5.60570080E-01  7.96262529E-01
  8.18611428E-01  8.47949026E-01  9.25702595E-01  1.14206909E+00  1.16791504E+00
  1.19477603E+00  1.23371783E+00  1.26393135E+00  1.40012507E+00  1.46914455E+00
  1.51999598E+00  1.57092388E+00  1.62842350E+00  1.68514863E+00  1.71289937E+00
  1.77752075E+00  1.77934778E+00  2.11660537E+00  2.26129569E+00  2.30315863E+00
  2.33192292E+00  2.36964324E+00  2.37880780E+00  2.41891916E+00  2.43998973E+00
  2.44092150E+00  2.47807369E+00  2.48011447E+00  3.14469158E+00  3.42489531E+00
  3.46576522E+00  2.34943631E+01  2.35182350E+01
Beta Orbital Energies                      R   N=          68
 -1.09189847E+01 -1.09188825E+01 -1.04089351E+00 -9.77755389E-01 -8.03151975E-01
 -7.70065401E-01 -6.64079576E-01 -3.57404839E-01 -2.75903581E-01 -2.08341664E-01
 -1.55301169E-01 -1.14076096E-01 -9.97972599E-02 -7.96447254E-02 -7.66226816E-02
 -7.37091255E-02 -4.24185282E-02 -3.93380952E-02 -2.13653975E-02 -6.04050361E-04
  1.40519219E-02  1.01209649E-01  1.79811467E-01  2.30414901E-01  2.49125261E-01
  3.37568367E-01  3.62508218E-01  3.95516011E-01  4.22070303E-01  4.43818989E-01
  4.66584319E-01  4.97130658E-01  5.28966288E-01  5.60137888E-01  8.27973779E-01
  8.46968328E-01  8.79936645E-01  9.60395898E-01  1.15179150E+00  1.18371915E+00
  1.21464766E+00  1.26995249E+00  1.29038167E+00  1.41613681E+00  1.48364021E+00
  1.53754639E+00  1.60735425E+00  1.64069359E+00  1.69714385E+00  1.73096636E+00
  1.79505135E+00  1.79659850E+00  2.15400196E+00  2.27731467E+00  2.32432150E+00
  2.34762642E+00  2.40943213E+00  2.42494808E+00  2.44555073E+00  2.45994182E+00
  2.48204319E+00  2.48988995E+00  2.51998495E+00  3.19615207E+00  3.47187837E+00
  3.51290028E+00  2.35068300E+01  2.35307857E+01
Alpha MO coefficients                      R   N=        4624
  3.99074373E-01  3.28092920E-01  5.73174161E-04 -7.38101125E-09  1.13725284E-11
  7.94666120E-03 -1.33865334E-03  6.70258615E-07 -3.47798345E-11 -1.98034549E-03
  3.04831164E-05  2.30848556E-08  3.41050991E-12 -5.29413664E-04  3.83059669E-04
 -3.14332623E-07  7.48993620E-12 -8.23336479E-04  8.59707797E-12 -8.32010373E-12
 -9.18842097E-04 -3.51050381E-07  3.98985282E-01  3.28019670E-01 -5.73031752E-04
  7.37934261E-09 -6.35963607E-13  7.94486467E-03  1.33824909E-03 -6.70114894E-07
  1.12257422E-11 -1.97959622E-03 -3.05815981E-05 -2.30894353E-08 -2.86910036E-13
 -5.29642772E-04 -3.82841309E-04  3.14312981E-07 -4.81467972E-12 -8.23175424E-04
  1.65424669E-12  8.30458289E-12 -9.18587879E-04 -3.50974751E-07  1.42230226E-04
 -2.25196256E-03  1.46001082E-03 -6.57070310E-04 -1.26320961E-03 -8.89165201E-12
  1.42087822E-04 -2.25321990E-03  1.46093627E-03 -6.57420569E-04  1.26367077E-03
 -1.73095026E-11  1.42207531E-04 -2.25148716E-03  1.45964758E-03  6.56934587E-04
  1.26292048E-03  9.06191144E-12  1.42065164E-04 -2.25274425E-03  1.46057287E-03
  6.57284767E-04 -1.26338154E-03  6.60355416E-13 -3.99001806E-01 -3.28059611E-01
 -6.37848501E-04  7.59243284E-09 -1.11232894E-11 -8.04841070E-03  1.81178938E-03
 -6.47173970E-07  3.52739538E-11  3.35509099E-03  4.40581757E-04  2.08439436E-08
 -6.78205520E-12 -1.02222569E-03 -9.77018399E-04  8.84787667E-08 -6.30712238E-12
  7.21885146E-04 -9.31757997E-12  7.80807320E-12  1.13912781E-03  3.39852959E-07
  3.99090894E-01  3.28132853E-01 -6.37976449E-04  7.59410587E-09 -1.89389901E-13
  8.05018524E-03  1.81208843E-03 -6.47324375E-07  1.15975480E-11 -3.35553304E-03
  4.40574932E-04  2.08387413E-08 -2.08176975E-12  1.02210734E-03 -9.77103921E-04
  8.85491780E-08 -1.02765073E-13 -7.22069063E-04  2.50224025E-12  7.79524829E-12
 -1.13933302E-03 -3.39931576E-07 -1.01437177E-04  2.13094289E-03 -1.62814735E-03
  6.08302015E-04  1.29560109E-03  9.27957186E-12 -1.01267787E-04  2.13205012E-03
 -1.62883444E-03  6.08650001E-04 -1.29604763E-03  1.79631614E-11  1.01468879E-04
 -2.13144595E-03  1.62847345E-03  6.08448785E-04  1.29588322E-03  9.36716573E-12
  1.01299458E-04 -2.13255347E-03  1.62916075E-03  6.08796849E-04 -1.29632987E-03
  6.95152939E-13 -8.08632423E-02 -1.31676936E-01 -3.18736384E-03  6.15461128E-06
 -3.18468586E-10  3.63249707E-01  5.03157661E-03  6.10756033E-06 -4.14790549E-10
  2.42745468E-01  7.60127180E-03  1.89741395E-06 -1.88198934E-10  7.72533676E-04
 -6.12537061E-03  1.57439376E-06 -9.75147049E-11 -5.55673810E-03 -7.00793599E-12
 -2.93255703E-11  1.13795862E-03 -1.05752291E-06 -8.08632362E-02 -1.31676926E-01
  3.18736215E-03 -6.15461869E-06  5.41484311E-11  3.63249675E-01 -5.03158066E-03
 -6.10756793E-06  1.01293753E-10  2.42745447E-01 -7.60127245E-03 -1.89741759E-06
  9.15168456E-13  7.72540850E-04  6.12536821E-03 -1.57439412E-06  7.23231538E-11
 -5.55673796E-03 -1.60578533E-11  2.92829765E-11  1.13795945E-03 -1.05752286E-06
  6.72537299E-02  7.44157085E-02 -7.94244360E-03  5.16049270E-03  1.17178509E-02
  5.11048812E-11  6.72657374E-02  7.44277237E-02 -7.94635699E-03  5.16256483E-03
 -1.17188499E-02  1.32277465E-10  6.72537265E-02  7.44157032E-02 -7.94244437E-03
 -5.16049258E-03 -1.17178500E-02 -7.14043499E-11  6.72657340E-02  7.44277184E-02
 -7.94635776E-03 -5.16256472E-03  1.17188490E-02  9.64223418E-12 -7.79471731E-02
 -1.27364682E-01 -4.85093692E-02  1.08177567E-05 -5.60604228E-10  3.57490170E-01
 -7.25182736E-02  1.29342558E-05 -7.91853157E-10  2.54181122E-01 -2.00671367E-02
  4.66288388E-06 -3.38344415E-10 -3.05999369E-02 -1.37744158E-02  1.66686611E-07
 -5.78263059E-11 -3.39863339E-03  2.72951812E-11 -5.48807758E-11 -1.05894892E-02
 -1.85248713E-06  7.79471786E-02  1.27364691E-01 -4.85093702E-02  1.08177678E-05
 -2.17097637E-10 -3.57490189E-01 -7.25182729E-02  1.29342681E-05 -3.34884688E-10
 -2.54181137E-01 -2.00671353E-02  4.66288864E-06 -1.35683445E-10  3.05999365E-02
 -1.37744164E-02  1.66687373E-07  2.33584376E-12  3.39863406E-03  1.58014045E-11
 -5.47808725E-11  1.05894890E-02  1.85248811E-06  8.16994379E-02  9.39135262E-02
 -3.05367571E-03  3.62268149E-03  1.27903847E-02  4.31818702E-11  8.17194415E-02
  9.39327235E-02 -3.05529067E-03  3.62492511E-03 -1.27921294E-02  1.36105270E-10
 -8.16994453E-02 -9.39135324E-02  3.05367664E-03  3.62268190E-03  1.27903856E-02
  7.15076031E-11 -8.17194489E-02 -9.39327297E-02  3.05529161E-03  3.62492552E-03
 -1.27921303E-02 -2.12374594E-11  4.67480979E-06  7.88581841E-06 -2.47762273E-06
  1.58812397E-01 -4.35333384E-10 -2.31346547E-05 -1.25627223E-06  2.31761790E-01
 -6.16951691E-10 -2.81372928E-05 -2.81785681E-06  1.39740797E-01 -3.67418622E-10
 -2.45645884E-07  2.20145064E-07  3.73324730E-03 -3.90455189E-11 -3.08085986E-08
  5.48323509E-11 -2.92882156E-10  1.60434585E-06 -9.26851366E-03 -4.67481254E-06
 -7.88582311E-06 -2.47762505E-06  1.58812374E-01  4.34839637E-10  2.31346686E-05
 -1.25627510E-06  2.31761755E-01  6.16384598E-10  2.81373107E-05 -2.81785802E-06
  1.39740774E-01  3.66999841E-10  2.45646544E-07  2.20146064E-07  3.73324480E-03
  3.89993934E-11  3.08088038E-08  5.47658067E-11  1.00262973E-10 -1.60434428E-06
  9.26851112E-03 -1.02992209E-01 -1.31749030E-01 -6.28575062E-03 -7.68847842E-03
 -9.86465617E-03 -1.06698729E-10  1.02984134E-01  1.31732598E-01  6.28350871E-03
  7.68933366E-03 -9.86211564E-03  1.88048346E-10  1.02992196E-01  1.31749009E-01
  6.28574937E-03 -7.68847748E-03 -9.86465445E-03 -9.25917748E-11 -1.02984120E-01
 -1.31732577E-01 -6.28350746E-03  7.68933271E-03 -9.86211391E-03  1.14704616E-11
  2.48663745E-06  4.31203592E-06 -2.56743630E-05  1.63196388E-01 -6.36385537E-10
 -1.24463452E-05 -3.84766476E-05  2.34115730E-01 -9.39156608E-10 -2.09067920E-05
 -2.24833634E-05  1.46291893E-01 -5.91056790E-10 -7.68569659E-08  7.39910081E-07
  1.25027844E-02 -1.09471140E-11  3.62982911E-08  2.82385509E-11 -3.11628547E-10
 -1.46722365E-06 -1.94546754E-02  2.48664139E-06  4.31204268E-06  2.56743603E-05
 -1.63196411E-01 -6.35585046E-10 -1.24463656E-05  3.84766416E-05 -2.34115762E-01
 -9.37985007E-10 -2.09068195E-05  2.24833604E-05 -1.46291913E-01 -5.90431841E-10
 -7.68563525E-08 -7.39911403E-07 -1.25027847E-02 -1.11791601E-11  3.62981230E-08
 -2.81669709E-11 -1.26651281E-10 -1.46722376E-06 -1.94546769E-02 -1.09587038E-01
 -1.47481430E-01 -1.10379048E-02 -8.52890878E-03 -1.00952926E-02 -1.19400498E-10
  1.09598893E-01  1.47492100E-01  1.10378143E-02  8.52896208E-03 -1.00950658E-02
  1.82805252E-10 -1.09587054E-01 -1.47481447E-01 -1.10379052E-02  8.52891018E-03
  1.00952936E-02  8.62103682E-11  1.09598909E-01  1.47492117E-01  1.10378147E-02
 -8.52896348E-03  1.00950667E-02 -2.25748074E-11 -7.90566418E-03 -1.34573501E-02
  1.79897712E-01  2.24881184E-05  1.60320681E-09  3.42147784E-02  2.91507618E-01
  3.48944826E-05  2.34738124E-09  7.92998760E-02  1.94378918E-01  2.27969697E-05
  1.71960188E-09  3.30911589E-05 -8.06623765E-03  5.82690165E-07  2.29588059E-11
 -1.07623297E-03 -1.05462363E-10  5.43044409E-11  1.96632820E-02 -1.28828877E-06
 -7.90566351E-03 -1.34573491E-02 -1.79897707E-01 -2.24881204E-05 -6.10327464E-10
  3.42147757E-02 -2.91507610E-01 -3.48944872E-05 -7.95687359E-10  7.92998770E-02
 -1.94378912E-01 -2.27969751E-05 -6.87515665E-10  3.30924744E-05  8.06623747E-03
 -5.82690659E-07 -1.74695898E-11 -1.07623301E-03 -9.03716840E-11 -5.42923777E-11
  1.96632818E-02 -1.28828868E-06 -5.76826488E-02 -8.90646322E-02 -2.27823117E-02
  5.35611269E-03 -8.32061595E-03  4.69983126E-11 -5.76607636E-02 -8.90269163E-02
 -2.27721630E-02  5.35807961E-03  8.31924359E-03 -1.29057625E-11 -5.76826491E-02
 -8.90646306E-02 -2.27823117E-02 -5.35611277E-03  8.32061581E-03  1.70177270E-11
 -5.76607639E-02 -8.90269147E-02 -2.27721630E-02 -5.35807969E-03 -8.31924345E-03
 -4.28642309E-11 -5.72914203E-10 -9.84549720E-10 -3.29269918E-10  7.64105360E-10
  1.87531492E-01  3.19888818E-09 -7.21261579E-10  1.18395632E-09  3.02954184E-01
  3.45617765E-09 -2.33999541E-10  6.10082366E-10  2.90693582E-01 -1.91269584E-09
 -6.51188902E-10 -1.62726682E-10  7.42829998E-03  1.27579710E-10  1.32750565E-02
  5.91020137E-07  1.22410415E-11 -2.94927267E-11  3.52122454E-10  6.06194003E-10
  9.17558069E-10 -7.63577585E-10  1.87531482E-01 -1.91700567E-09  1.27108234E-09
 -1.18331856E-09  3.02954168E-01 -2.36762071E-09  1.35570237E-09 -6.09612574E-10
  2.90693571E-01  1.77670734E-09 -5.70731188E-10  1.62974966E-10  7.42829995E-03
 -6.03923272E-11 -1.32750566E-02 -5.91020876E-07 -1.16182804E-11 -2.96607862E-11
 -7.59038321E-10 -1.18828267E-09 -3.09479975E-10 -9.65647931E-11 -7.30497876E-11
  1.20064956E-02 -5.25153967E-10 -4.30755616E-10  4.07405299E-10 -6.24977382E-11
  1.05121637E-10  1.20074537E-02  3.33255615E-10  3.46666505E-10 -3.37704746E-10
  3.25569903E-11 -1.02223629E-10  1.20064954E-02  5.67308791E-10  1.10292200E-09
  3.79669521E-10 -1.31340318E-12  7.01233996E-11  1.20074535E-02 -4.82244356E-10
 -8.36443798E-10 -1.21354871E-09  5.83964788E-10  2.07620151E-01  2.69917672E-09
 -2.17554002E-09  9.50961252E-10  3.29439239E-01  4.29600220E-09 -2.16710790E-09
  1.18610563E-09  3.59954825E-01 -3.54557397E-10 -5.21567870E-10  1.57212079E-10
  5.55862375E-02  1.31136830E-10 -1.45830275E-02  5.93327908E-07  6.22265673E-11
  3.89894332E-11 -1.82331165E-11 -4.54609678E-11  1.29635767E-09  5.83429194E-10
 -2.07620155E-01  2.28854550E-10  2.22945614E-09  9.49531443E-10 -3.29439246E-01
  4.36367920E-10  2.05937880E-09  1.18088374E-09 -3.59954842E-01  8.57785255E-10
  3.71931989E-11  1.56145729E-10 -5.55862402E-02  1.05500549E-11 -1.45830260E-02
  5.93328622E-07  1.75100735E-11 -3.94337138E-11 -6.51441499E-10 -1.12444928E-09
 -5.36609627E-10 -1.27552798E-10 -4.29924676E-11  1.68186911E-02 -9.09156133E-10
 -1.64230784E-09 -9.19116516E-10 -1.24190327E-10  1.72114551E-10  1.68201236E-02
 -2.05240560E-10 -4.08335689E-10 -3.19657289E-10  9.62576586E-11  8.17470203E-11
 -1.68186918E-02  5.29514882E-11  1.05036418E-10  5.94086922E-11  1.00270009E-10
  4.67096140E-11 -1.68201243E-02 -5.11081170E-02 -8.66077794E-02  1.91824163E-01
  3.06722258E-06 -7.54206502E-10  2.57622213E-01  2.91883856E-01  8.05646310E-06
 -1.50940416E-09  6.35692389E-01  4.84581668E-01  1.41618421E-05 -2.38760386E-09
  6.50820495E-01  3.64741848E-01  7.21727129E-06 -3.32147795E-10  1.73101421E-02
 -1.43611778E-10  3.73661810E-11 -2.15451163E-02  1.31360914E-06  5.11081154E-02
  8.66077767E-02  1.91824165E-01  3.06721674E-06 -1.19324820E-10 -2.57622200E-01
  2.91883860E-01  8.05645762E-06 -3.94982088E-10 -6.35692379E-01  4.84581680E-01