Title Card Required                                                     
Force     UM062X                                                      6-311+G(d,p)        
Number of atoms                            I                6
Info1-9                                    I   N=           9
          15          15           0           0           0         100
           5          18        -502
Full Title                                 C   N=           2
Title Card Required     
Route                                      C   N=           4
#p UM062X/6-311+G** force int=superfine         
Charge                                     I                1
Multiplicity                               I                2
Number of electrons                        I               15
Number of alpha electrons                  I                8
Number of beta electrons                   I                7
Number of basis functions                  I               68
Number of independent functions            I               68
Number of point charges in /Mol/           I                0
Number of translation vectors              I                0
Atomic numbers                             I   N=           6
           6           6           1           1           1           1
Nuclear charges                            R   N=           6
  6.00000000E+00  6.00000000E+00  1.00000000E+00  1.00000000E+00  1.00000000E+00
  1.00000000E+00
Current cartesian coordinates              R   N=          18
  3.56522963E-21  2.05718232E+00  9.86076132E-32 -2.51938116E-16 -2.05718232E+00
  0.00000000E+00  1.87180774E+00  2.89413257E+00  9.86076132E-32 -1.87178884E+00
  2.89403619E+00  4.93038066E-32 -1.87180774E+00 -2.89413257E+00  0.00000000E+00
  1.87178884E+00 -2.89403619E+00  4.93038066E-32
Number of symbols in /Mol/                 I                0
Force Field                                I                0
Atom Types                                 C   N=           6
                                                            
            
Int Atom Types                             I   N=           6
           0           0           0           0           0           0
MM charges                                 R   N=           6
  0.00000000E+00  0.00000000E+00  0.00000000E+00  0.00000000E+00  0.00000000E+00
  0.00000000E+00
Integer atomic weights                     I   N=           6
          12          12           1           1           1           1
Real atomic weights                        R   N=           6
  1.20000000E+01  1.20000000E+01  1.00782504E+00  1.00782504E+00  1.00782504E+00
  1.00782504E+00
Atom fragment info                         I   N=           6
           0           0           0           0           0           0
Atom residue num                           I   N=           6
           0           0           0           0           0           0
Nuclear spins                              I   N=           6
           0           0           1           1           1           1
Nuclear ZEff                               R   N=           6
 -3.60000000E+00 -3.60000000E+00 -1.00000000E+00 -1.00000000E+00 -1.00000000E+00
 -1.00000000E+00
Nuclear ZNuc                               R   N=           6
  6.00000000E+00  6.00000000E+00  1.00000000E+00  1.00000000E+00  1.00000000E+00
  1.00000000E+00
Nuclear QMom                               R   N=           6
  0.00000000E+00  0.00000000E+00  0.00000000E+00  0.00000000E+00  0.00000000E+00
  0.00000000E+00
Nuclear GFac                               R   N=           6
  0.00000000E+00  0.00000000E+00  2.79284600E+00  2.79284600E+00  2.79284600E+00
  2.79284600E+00
MicOpt                                     I   N=           6
          -1          -1          -1          -1          -1          -1
Number of residues                         I                0
Number of secondary structures             I                0
SymInf integers                            I   N=          26
           2           4           1           1           1          -1
          -1           1           1           1          -1          -1
          -1          -1           0           0           0           0
           0           0           0           0           0           0
           0           0
RotTr to input orientation                 R   N=          12
  8.02721765E-17 -1.00000000E+00 -8.19378214E-22 -1.00000000E+00 -8.02727542E-17
 -1.22464680E-16  1.22464680E-16  8.19378214E-22 -1.00000000E+00  0.00000000E+00
  0.00000000E+00  0.00000000E+00
Number of contracted shells                I               28
Number of primitive shells                 I               50
Pure/Cartesian d shells                    I                0
Pure/Cartesian f shells                    I                0
Highest angular momentum                   I                2
Largest degree of contraction              I                6
Shell types                                I   N=          28
           0          -1          -1          -1          -1          -2
           0          -1          -1          -1          -1          -2
           0           0           0           1           0           0
           0           1           0           0           0           1
           0           0           0           1
Number of primitives per shell             I   N=          28
           6           3           1           1           1           1
           6           3           1           1           1           1
           3           1           1           1           3           1
           1           1           3           1           1           1
           3           1           1           1
Shell to atom map                          I   N=          28
           1           1           1           1           1           1
           2           2           2           2           2           2
           3           3           3           3           4           4
           4           4           5           5           5           5
           6           6           6           6
Primitive exponents                        R   N=          50
  4.56324000E+03  6.82024000E+02  1.54973000E+02  4.44553000E+01  1.30290000E+01
  1.82773000E+00  2.09642000E+01  4.80331000E+00  1.45933000E+00  4.83456000E-01
  1.45585000E-01  4.38000000E-02  6.26000000E-01  4.56324000E+03  6.82024000E+02
  1.54973000E+02  4.44553000E+01  1.30290000E+01  1.82773000E+00  2.09642000E+01
  4.80331000E+00  1.45933000E+00  4.83456000E-01  1.45585000E-01  4.38000000E-02
  6.26000000E-01  3.38650000E+01  5.09479000E+00  1.15879000E+00  3.25840000E-01
  1.02741000E-01  7.50000000E-01  3.38650000E+01  5.09479000E+00  1.15879000E+00
  3.25840000E-01  1.02741000E-01  7.50000000E-01  3.38650000E+01  5.09479000E+00
  1.15879000E+00  3.25840000E-01  1.02741000E-01  7.50000000E-01  3.38650000E+01
  5.09479000E+00  1.15879000E+00  3.25840000E-01  1.02741000E-01  7.50000000E-01
Contraction coefficients                   R   N=          50
  1.96665025E-03  1.52306019E-02  7.61269097E-02  2.60801033E-01  6.16462078E-01
  2.21006028E-01  1.14660081E-01  9.19999648E-01 -3.03068213E-03  1.00000000E+00
  1.00000000E+00  1.00000000E+00  1.00000000E+00  1.96665025E-03  1.52306019E-02
  7.61269097E-02  2.60801033E-01  6.16462078E-01  2.21006028E-01  1.14660081E-01
  9.19999648E-01 -3.03068213E-03  1.00000000E+00  1.00000000E+00  1.00000000E+00
  1.00000000E+00  2.54938145E-02  1.90373109E-01  8.52161486E-01  1.00000000E+00
  1.00000000E+00  1.00000000E+00  2.54938145E-02  1.90373109E-01  8.52161486E-01
  1.00000000E+00  1.00000000E+00  1.00000000E+00  2.54938145E-02  1.90373109E-01
  8.52161486E-01  1.00000000E+00  1.00000000E+00  1.00000000E+00  2.54938145E-02
  1.90373109E-01  8.52161486E-01  1.00000000E+00  1.00000000E+00  1.00000000E+00
P(S=P) Contraction coefficients            R   N=          50
  0.00000000E+00  0.00000000E+00  0.00000000E+00  0.00000000E+00  0.00000000E+00
  0.00000000E+00  4.02486927E-02  2.37593957E-01  8.15853851E-01  1.00000000E+00
  1.00000000E+00  1.00000000E+00  0.00000000E+00  0.00000000E+00  0.00000000E+00
  0.00000000E+00  0.00000000E+00  0.00000000E+00  0.00000000E+00  4.02486927E-02
  2.37593957E-01  8.15853851E-01  1.00000000E+00  1.00000000E+00  1.00000000E+00
  0.00000000E+00  0.00000000E+00  0.00000000E+00  0.00000000E+00  0.00000000E+00
  0.00000000E+00  0.00000000E+00  0.00000000E+00  0.00000000E+00  0.00000000E+00
  0.00000000E+00  0.00000000E+00  0.00000000E+00  0.00000000E+00  0.00000000E+00
  0.00000000E+00  0.00000000E+00  0.00000000E+00  0.00000000E+00  0.00000000E+00
  0.00000000E+00  0.00000000E+00  0.00000000E+00  0.00000000E+00  0.00000000E+00
Coordinates of each shell                  R   N=          84
  2.37681975E-21  2.05718232E+00  2.53567297E-32  2.37681975E-21  2.05718232E+00
  2.53567297E-32  2.37681975E-21  2.05718232E+00  2.53567297E-32  2.37681975E-21
  2.05718232E+00  2.53567297E-32  2.37681975E-21  2.05718232E+00  2.53567297E-32
  2.37681975E-21  2.05718232E+00  2.53567297E-32 -2.51936927E-16 -2.05718232E+00
  2.53567297E-32 -2.51936927E-16 -2.05718232E+00  2.53567297E-32 -2.51936927E-16
 -2.05718232E+00  2.53567297E-32 -2.51936927E-16 -2.05718232E+00  2.53567297E-32
 -2.51936927E-16 -2.05718232E+00  2.53567297E-32 -2.51936927E-16 -2.05718232E+00
  2.53567297E-32  1.87180774E+00  2.89413257E+00  3.56728501E-32  1.87180774E+00
  2.89413257E+00  3.56728501E-32  1.87180774E+00  2.89413257E+00  3.56728501E-32
  1.87180774E+00  2.89413257E+00  3.56728501E-32 -1.87178884E+00  2.89403619E+00
  3.56718382E-32 -1.87178884E+00  2.89403619E+00  3.56718382E-32 -1.87178884E+00
  2.89403619E+00  3.56718382E-32 -1.87178884E+00  2.89403619E+00  3.56718382E-32
 -1.87180774E+00 -2.89413257E+00  3.56726740E-32 -1.87180774E+00 -2.89413257E+00
  3.56726740E-32 -1.87180774E+00 -2.89413257E+00  3.56726740E-32 -1.87180774E+00
 -2.89413257E+00  3.56726740E-32  1.87178884E+00 -2.89403619E+00  3.56720142E-32
  1.87178884E+00 -2.89403619E+00  3.56720142E-32  1.87178884E+00 -2.89403619E+00
  3.56720142E-32  1.87178884E+00 -2.89403619E+00  3.56720142E-32
Num ILSW                                   I              100
ILSW                                       I   N=         100
           1           0           0           0           2           0
           0           0           0           0        4336          -1
           7           0           0           0           2           0
           0           0           0           0           1           0
           1           0           0           0           0           0
           0           0      100000           0          -1           0
           0           0           0           0           0           0
           0           0           0           1           0           0
           0 -2000000000           1           0           0           0
           0           0           4          52           0           0
           0           0          55           0           0           0
           0           0           0           6           0           1
           0           0           0           0           0           0
           0           0           0           0           0           0
           0           0           0           0           0           0
           0           0           0           0           0           0
           0           0           0           0
Num RLSW                                   I               52
RLSW                                       R   N=          52
  1.00000000E+00  1.00000000E+00  1.00000000E+00  1.00000000E+00  5.40000000E-01
  0.00000000E+00  0.00000000E+00  1.00000000E+00  0.00000000E+00  0.00000000E+00
  0.00000000E+00  0.00000000E+00  1.00000000E+00  0.00000000E+00  0.00000000E+00
  0.00000000E+00  0.00000000E+00  1.00000000E+00  0.00000000E+00  0.00000000E+00
  0.00000000E+00  0.00000000E+00  1.00000000E+00  0.00000000E+00  0.00000000E+00
  0.00000000E+00  0.00000000E+00  1.00000000E+00  0.00000000E+00  0.00000000E+00
  0.00000000E+00  0.00000000E+00  1.00000000E+00  0.00000000E+00  0.00000000E+00
  0.00000000E+00  0.00000000E+00  0.00000000E+00  1.00000000E+00  1.00000000E+00
  0.00000000E+00  1.00000000E+00  0.00000000E+00  0.00000000E+00  0.00000000E+00
  0.00000000E+00  0.00000000E+00  0.00000000E+00  0.00000000E+00  0.00000000E+00
  0.00000000E+00  0.00000000E+00
MxBond                                     I                2
NBond                                      I   N=           6
           2           2           1           1           1           1
IBond                                      I   N=          12
           3           4           5           6           1           0
           1           0           2           0           2           0
RBond                                      R   N=          12
  1.00000000E+00  1.00000000E+00  1.00000000E+00  1.00000000E+00  1.00000000E+00
  0.00000000E+00  1.00000000E+00  0.00000000E+00  1.00000000E+00  0.00000000E+00
  1.00000000E+00  0.00000000E+00
Virial Ratio                               R      2.010145146827264E+00
SCF Energy                                 R     -7.802704512137053E+01
Total Energy                               R     -7.802704512137053E+01
S**2                                       R      7.521545318353180E-01
S**2 after annihilation                    R      7.500035341139469E-01
RMS Force                                  R      3.891021135098944E-02
RMS Density                                R      5.052614659397397E-09
Job Status                                 I                1
Nuclear derivative order                   I                1
External E-field                           R   N=          35
  0.00000000E+00  0.00000000E+00  0.00000000E+00  0.00000000E+00  0.00000000E+00
  0.00000000E+00  0.00000000E+00  0.00000000E+00  0.00000000E+00  0.00000000E+00
  0.00000000E+00  0.00000000E+00  0.00000000E+00  0.00000000E+00  0.00000000E+00
  0.00000000E+00  0.00000000E+00  0.00000000E+00  0.00000000E+00  0.00000000E+00
  0.00000000E+00  0.00000000E+00  0.00000000E+00  0.00000000E+00  0.00000000E+00
  0.00000000E+00  0.00000000E+00  0.00000000E+00  0.00000000E+00  0.00000000E+00
  0.00000000E+00  0.00000000E+00  0.00000000E+00  0.00000000E+00  0.00000000E+00
IOpCl                                      I                1
IROHF                                      I                0
Alpha Orbital Energies                     R   N=          68
 -1.09235041E+01 -1.09233853E+01 -1.05554144E+00 -1.00391828E+00 -8.03465168E-01
 -7.79764729E-01 -6.47653483E-01 -5.49374544E-01 -3.73469583E-01 -2.75717837E-01
 -1.39648997E-01 -1.09463483E-01 -1.03099245E-01 -8.21250148E-02 -7.52113339E-02
 -7.06222098E-02 -4.74957911E-02 -3.93771747E-02 -3.22450906E-02 -8.16396750E-04
  1.95349012E-02  9.26886038E-02  1.79151949E-01  2.26435027E-01  2.41433229E-01
  3.21573144E-01  3.79785854E-01  4.01590987E-01  4.12135758E-01  4.37452851E-01
  4.55552877E-01  4.92660065E-01  5.27355902E-01  5.59219841E-01  8.01368493E-01
  8.13316569E-01  8.81038642E-01  8.96302265E-01  1.13352775E+00  1.13762892E+00
  1.14498351E+00  1.24618371E+00  1.26108593E+00  1.46982467E+00  1.47913555E+00
  1.48932879E+00  1.49560030E+00  1.59937080E+00  1.66293297E+00  1.74392598E+00
  1.74689988E+00  1.77825164E+00  2.12124542E+00  2.26292452E+00  2.27301659E+00
  2.34024688E+00  2.38052490E+00  2.39442424E+00  2.40238448E+00  2.41441908E+00
  2.45214498E+00  2.46746455E+00  2.51046515E+00  2.93294218E+00  3.41082408E+00
  3.44554201E+00  2.35005565E+01  2.35084759E+01
Beta Orbital Energies                      R   N=          68
 -1.09210931E+01 -1.09210199E+01 -1.02574011E+00 -9.81081705E-01 -7.98630057E-01
 -7.76176384E-01 -6.31258325E-01 -3.45471472E-01 -2.83487109E-01 -2.53055840E-01
 -1.51986923E-01 -1.12308075E-01 -1.04374857E-01 -7.59505176E-02 -7.38404351E-02
 -7.37531727E-02 -4.06231108E-02 -3.83933442E-02 -2.72360077E-02  4.55695802E-03
  1.04926515E-02  1.00954928E-01  1.79793891E-01  2.28947523E-01  2.46141196E-01
  3.36528796E-01  3.68013787E-01  4.11694218E-01  4.23165009E-01  4.25958170E-01
  4.71233457E-01  5.05043369E-01  5.30943385E-01  5.60868152E-01  8.32540532E-01
  8.42000402E-01  9.18362139E-01  9.25682284E-01  1.14357791E+00  1.15883433E+00
  1.16143565E+00  1.28030686E+00  1.28612943E+00  1.48418076E+00  1.49183948E+00
  1.50446770E+00  1.53219424E+00  1.61064116E+00  1.67528638E+00  1.75907973E+00
  1.76075068E+00  1.79440618E+00  2.15803556E+00  2.28135749E+00  2.30371846E+00
  2.35343371E+00  2.40369171E+00  2.41956120E+00  2.44298039E+00  2.44449760E+00
  2.49469253E+00  2.50861573E+00  2.53213313E+00  2.97045499E+00  3.45567199E+00
  3.49079981E+00  2.35129602E+01  2.35211439E+01
Alpha MO coefficients                      R   N=        4624
  3.99024828E-01  3.28087301E-01  2.95980099E-08 -5.46722959E-04  0.00000000E+00
  7.83229261E-03 -3.44697951E-07  1.32725886E-03  0.00000000E+00 -1.90531409E-03
 -4.13088619E-08 -1.00810815E-04  0.00000000E+00 -5.28451862E-04  7.94805101E-08
 -3.08992364E-04  0.00000000E+00 -8.52555701E-04  0.00000000E+00  0.00000000E+00
  9.65121924E-04 -6.04568769E-08  3.99024828E-01  3.28087301E-01 -2.95980099E-08
  5.46722959E-04  0.00000000E+00  7.83229261E-03  3.44697951E-07 -1.32725886E-03
  0.00000000E+00 -1.90531409E-03  4.13088619E-08  1.00810815E-04  0.00000000E+00
 -5.28451862E-04 -7.94805101E-08  3.08992364E-04  0.00000000E+00 -8.52555701E-04
  0.00000000E+00  0.00000000E+00  9.65121924E-04 -6.04568769E-08  1.33812832E-04
 -2.24902886E-03  1.44974871E-03  1.28095836E-03  6.47829440E-04  0.00000000E+00
  1.33751078E-04 -2.24955676E-03  1.45002340E-03 -1.28120263E-03  6.47881412E-04
  0.00000000E+00  1.33812832E-04 -2.24902886E-03  1.44974871E-03 -1.28095836E-03
 -6.47829440E-04  0.00000000E+00  1.33751078E-04 -2.24955676E-03  1.45002340E-03
  1.28120263E-03 -6.47881412E-04  0.00000000E+00  3.99039084E-01  3.28099515E-01
  2.77420850E-08 -6.15742591E-04  0.00000000E+00  8.02910902E-03 -3.38353629E-07
  1.66244109E-03  0.00000000E+00 -3.05008126E-03  5.26752319E-08  3.14463713E-04
  0.00000000E+00  6.12310463E-04  5.41232275E-08 -8.32434917E-04  0.00000000E+00
 -7.46213390E-04  0.00000000E+00  0.00000000E+00  1.17025769E-03 -6.33318435E-08
 -3.99039084E-01 -3.28099515E-01  2.77420850E-08 -6.15742591E-04  0.00000000E+00
 -8.02910902E-03 -3.38353629E-07  1.66244109E-03  0.00000000E+00  3.05008126E-03
  5.26752319E-08  3.14463713E-04  0.00000000E+00 -6.12310463E-04  5.41232275E-08
 -8.32434917E-04  0.00000000E+00  7.46213390E-04  0.00000000E+00  0.00000000E+00
 -1.17025769E-03  6.33318435E-08  9.29005007E-05 -2.14195713E-03  1.61164596E-03
  1.30592836E-03  5.99902170E-04  0.00000000E+00  9.28224008E-05 -2.14238489E-03
  1.61197441E-03 -1.30616762E-03  5.99937789E-04  0.00000000E+00 -9.29005007E-05
  2.14195713E-03 -1.61164596E-03  1.30592836E-03  5.99902170E-04  0.00000000E+00
 -9.28224008E-05  2.14238489E-03 -1.61197441E-03 -1.30616762E-03  5.99937789E-04
  0.00000000E+00 -8.05544050E-02 -1.31142026E-01 -3.80709607E-06  1.02432293E-02
  0.00000000E+00  3.63710543E-01 -4.17316929E-06  9.12183506E-03  0.00000000E+00
  2.46046069E-01 -1.58245941E-06 -4.38655211E-03  0.00000000E+00  7.58077974E-04
 -1.87556756E-07  5.14008941E-03  0.00000000E+00 -5.04484491E-03  0.00000000E+00
  0.00000000E+00  1.80869238E-03 -3.97437728E-08 -8.05544050E-02 -1.31142026E-01
  3.80709607E-06 -1.02432293E-02  0.00000000E+00  3.63710543E-01  4.17316929E-06
 -9.12183506E-03  0.00000000E+00  2.46046069E-01  1.58245941E-06  4.38655211E-03
  0.00000000E+00  7.58077974E-04  1.87556756E-07 -5.14008941E-03  0.00000000E+00
 -5.04484491E-03  0.00000000E+00  0.00000000E+00  1.80869238E-03 -3.97437728E-08
  6.98673168E-02  7.76121574E-02 -6.94853161E-03 -1.18775669E-02 -4.65528261E-03
  0.00000000E+00  6.98733881E-02  7.76170546E-02 -6.94944049E-03  1.18783962E-02
 -4.65514130E-03  0.00000000E+00  6.98673168E-02  7.76121574E-02 -6.94853161E-03
  1.18775669E-02  4.65528261E-03  0.00000000E+00  6.98733881E-02  7.76170546E-02
 -6.94944049E-03 -1.18783962E-02  4.65514130E-03  0.00000000E+00 -7.89479628E-02
 -1.28938818E-01 -5.18780861E-06  4.30099114E-02  0.00000000E+00  3.62517392E-01
 -6.22910066E-06  6.48085418E-02  0.00000000E+00  2.51246108E-01 -2.61352780E-06
  1.85238974E-02  0.00000000E+00 -2.37472082E-02 -1.26650909E-07  1.16343950E-02
  0.00000000E+00 -3.95146501E-03  0.00000000E+00  0.00000000E+00  1.01994363E-02
 -8.15816089E-09  7.89479628E-02  1.28938818E-01 -5.18780861E-06  4.30099114E-02
  0.00000000E+00 -3.62517392E-01 -6.22910066E-06  6.48085418E-02  0.00000000E+00
 -2.51246108E-01 -2.61352780E-06  1.85238974E-02  0.00000000E+00  2.37472082E-02
 -1.26650909E-07  1.16343950E-02  0.00000000E+00  3.95146501E-03  0.00000000E+00
  0.00000000E+00 -1.01994363E-02  8.15816089E-09  8.04046155E-02  9.19840272E-02
 -3.18746466E-03 -1.26175186E-02 -3.33889250E-03  0.00000000E+00  8.04117226E-02
  9.19899273E-02 -3.18829196E-03  1.26183269E-02 -3.33874306E-03  0.00000000E+00
 -8.04046155E-02 -9.19840272E-02  3.18746466E-03 -1.26175186E-02 -3.33889250E-03
  0.00000000E+00 -8.04117226E-02 -9.19899273E-02  3.18829196E-03  1.26183269E-02
 -3.33874306E-03  0.00000000E+00 -1.71330788E-06 -2.89591902E-06  1.59643873E-01
  2.67322418E-06  0.00000000E+00  8.65363796E-06  2.30563634E-01  4.41857457E-06
  0.00000000E+00  1.00650071E-05  1.35881590E-01  2.47147301E-06  0.00000000E+00
 -3.12974091E-06  3.56363589E-03  1.59513759E-06  0.00000000E+00  1.26576350E-07
  0.00000000E+00  0.00000000E+00 -6.79675513E-07  1.13050521E-02  1.71330788E-06
  2.89591902E-06  1.59643873E-01  2.67322418E-06  0.00000000E+00 -8.65363796E-06
  2.30563634E-01  4.41857457E-06  0.00000000E+00 -1.00650071E-05  1.35881590E-01
  2.47147301E-06  0.00000000E+00  3.12974091E-06  3.56363589E-03  1.59513759E-06
  0.00000000E+00 -1.26576350E-07  0.00000000E+00  0.00000000E+00  6.79675513E-07
 -1.13050521E-02  1.04278621E-01  1.35625379E-01  8.74979665E-03 -1.04070526E-02
 -7.66497019E-03  0.00000000E+00 -1.04277057E-01 -1.35620182E-01 -8.74882499E-03
 -1.04065192E-02  7.66434229E-03  0.00000000E+00 -1.04278621E-01 -1.35625379E-01
 -8.74979665E-03 -1.04070526E-02 -7.66497019E-03  0.00000000E+00  1.04277057E-01
  1.35620182E-01  8.74882499E-03 -1.04065192E-02  7.66434229E-03  0.00000000E+00
 -1.31694834E-06 -2.26010977E-06  1.63417337E-01  1.80013418E-06  0.00000000E+00
  6.91140595E-06  2.33033519E-01  3.07006441E-06  0.00000000E+00  9.54015549E-06
  1.40440459E-01  1.92654828E-06  0.00000000E+00  5.20298310E-07  1.16799841E-02
  5.03282026E-07  0.00000000E+00  1.38378066E-07  0.00000000E+00  0.00000000E+00
 -7.58018655E-07  1.77160689E-02 -1.31694834E-06 -2.26010977E-06 -1.63417337E-01
 -1.80013418E-06  0.00000000E+00  6.91140595E-06 -2.33033519E-01 -3.07006441E-06
  0.00000000E+00  9.54015549E-06 -1.40440459E-01 -1.92654828E-06  0.00000000E+00
  5.20298310E-07 -1.16799841E-02 -5.03282026E-07  0.00000000E+00  1.38378066E-07
  0.00000000E+00  0.00000000E+00 -7.58018655E-07  1.77160689E-02  1.08935538E-01
  1.46816691E-01  1.01450701E-02 -1.08466012E-02 -8.17910112E-03  0.00000000E+00
 -1.08935143E-01 -1.46813051E-01 -1.01451754E-02 -1.08464273E-02  8.17853142E-03
  0.00000000E+00  1.08935538E-01  1.46816691E-01  1.01450701E-02  1.08466012E-02
  8.17910112E-03  0.00000000E+00 -1.08935143E-01 -1.46813051E-01 -1.01451754E-02
  1.08464273E-02 -8.17853142E-03  0.00000000E+00  9.81880820E-03  1.63331892E-02
 -3.54537804E-06  1.77282373E-01  0.00000000E+00 -3.94758453E-02 -4.52532474E-06
  2.84956306E-01  0.00000000E+00 -1.05304854E-01 -9.49967083E-07  2.11605290E-01
  0.00000000E+00 -2.34196680E-03  9.50570635E-07 -5.55270080E-03  0.00000000E+00
  9.22828258E-05  0.00000000E+00  0.00000000E+00  1.70666863E-02 -9.29470036E-08
  9.81880820E-03  1.63331892E-02  3.54537804E-06 -1.77282373E-01  0.00000000E+00
 -3.94758453E-02  4.52532474E-06 -2.84956306E-01  0.00000000E+00 -1.05304854E-01
  9.49967083E-07 -2.11605290E-01  0.00000000E+00 -2.34196680E-03 -9.50570635E-07
  5.55270080E-03  0.00000000E+00  9.22828258E-05  0.00000000E+00  0.00000000E+00
  1.70666863E-02 -9.29470036E-08  5.30293894E-02  8.50391890E-02  2.27812408E-02
 -7.94931687E-03  6.40729252E-03  0.00000000E+00  5.30295097E-02  8.50399492E-02
  2.27834670E-02  7.94917884E-03  6.40772972E-03  0.00000000E+00  5.30293894E-02
  8.50391890E-02  2.27812408E-02  7.94931687E-03 -6.40729252E-03  0.00000000E+00
  5.30295097E-02  8.50399492E-02  2.27834670E-02 -7.94917884E-03 -6.40772972E-03
  0.00000000E+00  0.00000000E+00  0.00000000E+00  0.00000000E+00  0.00000000E+00
  1.89470963E-01  0.00000000E+00  0.00000000E+00  0.00000000E+00  3.02933772E-01
  0.00000000E+00  0.00000000E+00  0.00000000E+00  2.98039633E-01  0.00000000E+00
  0.00000000E+00  0.00000000E+00  1.13483341E-02  0.00000000E+00 -3.16388559E-07
 -8.68095396E-03  0.00000000E+00  0.00000000E+00  0.00000000E+00  0.00000000E+00
  0.00000000E+00  0.00000000E+00  1.89470963E-01  0.00000000E+00  0.00000000E+00
  0.00000000E+00  3.02933772E-01  0.00000000E+00  0.00000000E+00  0.00000000E+00
  2.98039633E-01  0.00000000E+00  0.00000000E+00  0.00000000E+00  1.13483341E-02
  0.00000000E+00  3.16388559E-07  8.68095396E-03  0.00000000E+00  0.00000000E+00
  0.00000000E+00  0.00000000E+00  0.00000000E+00  0.00000000E+00  0.00000000E+00
  1.26579259E-02  0.00000000E+00  0.00000000E+00  0.00000000E+00  0.00000000E+00
  0.00000000E+00  1.26583023E-02  0.00000000E+00  0.00000000E+00  0.00000000E+00
  0.00000000E+00  0.00000000E+00  1.26579259E-02  0.00000000E+00  0.00000000E+00
  0.00000000E+00  0.00000000E+00  0.00000000E+00  1.26583023E-02  0.00000000E+00
  0.00000000E+00  0.00000000E+00  0.00000000E+00  2.06746273E-01  0.00000000E+00
  0.00000000E+00  0.00000000E+00  3.27008553E-01  0.00000000E+00  0.00000000E+00
  0.00000000E+00  3.44835856E-01  0.00000000E+00  0.00000000E+00  0.00000000E+00
  4.78232743E-02  0.00000000E+00 -3.19582316E-07  1.29320823E-02  0.00000000E+00
  0.00000000E+00  0.00000000E+00  0.00000000E+00  0.00000000E+00  0.00000000E+00
 -2.06746273E-01  0.00000000E+00  0.00000000E+00  0.00000000E+00 -3.27008553E-01
  0.00000000E+00  0.00000000E+00  0.00000000E+00 -3.44835856E-01  0.00000000E+00
  0.00000000E+00  0.00000000E+00 -4.78232743E-02  0.00000000E+00 -3.19582316E-07
  1.29320823E-02  0.00000000E+00  0.00000000E+00  0.00000000E+00  0.00000000E+00
  0.00000000E+00  0.00000000E+00  0.00000000E+00  1.66541150E-02  0.00000000E+00
  0.00000000E+00  0.00000000E+00  0.00000000E+00  0.00000000E+00  1.66543763E-02
  0.00000000E+00  0.00000000E+00  0.00000000E+00  0.00000000E+00  0.00000000E+00
 -1.66541150E-02  0.00000000E+00  0.00000000E+00  0.00000000E+00  0.00000000E+00
  0.00000000E+00 -1.66543763E-02 -4.54407679E-02 -7.66938120E-02  4.32271473E-06
 -2.01397609E-01  0.00000000E+00  2.29428255E-01  5.67282830E-06 -3.02019973E-01
  0.00000000E+00  4.77000527E-01  1.04605650E-05 -4.29565151E-01  0.00000000E+00
  3.46886188E-01  2.77243932E-06 -2.10642817E-01  0.00000000E+00  1.49739116E-02
  0.00000000E+00  0.00000000E+00  1.81253842E-02 -4.89887440E-07  4.54407679E-02
  7.66938120E-02  4.32271473E-06 -2.01397609E-01  0.00000000E+00 -2.29428255E-01
  5.67282830E-06 -3.02019973E-01  0.00000000E+00 -4.77000527E-01  1.04605650E-05
 -4.29565151E-01  0.00000000E+00 -3.46886188E-01  2.77243932E-06 -2.10642817E-01
  0.00000000E+00 -1.49739116E-02  0.00000000E+00  0.00000000E+00 -1.81253842E-02
  4.89887440E-07 -3.29886051E-02 -7.43421996E-02 -7.08240674E-02  7.84165932E-03
 -1.38546145E-02  0.00000000E+00 -3.29852270E-02 -7.43349998E-02 -7.08106573E-02
 -7.84134818E-03 -1.38546544E-02  0.00000000E+00  3.29886051E-02  7.43421996E-02
  7.08240674E-02  7.84165932E-03 -1.38546145E-02  0.00000000E+00  3.29852270E-02
  7.43349998E-02  7.08106573E-02 -7.84134818E-03 -1.38546544E-02  0.00000000E+00
  3.45851255E-02  5.91494610E-02 -3.17370835E-06 -3.19027224E-02  0.00000000E+00
 -1.73024916E-01 -2.39191122E-06 -4.90364695E-02  0.00000000E+00 -7.45686045E-01
 -3.63292118E-06 -1.15494333E-01  0.00000000E+00  8.22525071E-01  1.69251512E-05
  1.11974498E-01  0.00000000E+00  1.02703753E-02  0.00000000E+00  0.00000000E+00
  2.65978573E-03  5.46368666E-07  3.45851255E-02  5.91494610E-02  3.17370835E-06
  3.19027224E-02  0.00000000E+00 -1.73024916E-01  2.39191122E-06  4.90364695E-02
  0.00000000E+00 -7.45686045E-01  3.63292118E-06  1.15494333E-01  0.00000000E+00
  8.22525071E-01 -1.69251512E-05 -1.11974498E-01  0.00000000E+00  1.02703753E-02
  0.00000000E+00  0.00000000E+00  2.65978573E-03  5.46368666E-07  7.70776817E-03
  1.21271766E-01  5.13015479E-02  6.72146498E-03 -2.90373788E-03  0.00000000E+00
  7.70626557E-03  1.21273693E-01  5.12957020E-02 -6.71963521E-03 -2.90517096E-03
  0.00000000E+00  7.70776817E-03  1.21271766E-01  5.13015479E-02 -6.72146498E-03
  2.90373788E-03  0.00000000E+00  7.70626557E-03  1.21273693E-01  5.12957020E-02
  6.71963521E-03  2.90517096E-03  0.00000000E+00  2.14026958E-06  3.62258655E-06
 -7.17054564E-02 -9.27379099E-06  0.00000000E+00 -1.00420483E-05 -1.17437320E-01
 -1.30163160E-05  0.00000000E+00 -5.39161997E-05 -2.04691515E-01 -4.17541952E-05
  0.00000000E+00 -5.99896363E-05  7.28671189E-01  7.99340710E-05  0.00000000E+00
 -3.82738277E-07  0.00000000E+00  0.00000000E+00  1.38123574E-06 -9.64303102E-03
 -2.14026958E-06 -3.62258655E-06 -7.17054564E-02 -9.27379099E-06  0.00000000E+00
  1.00420483E-05 -1.17437320E-01 -1.30163160E-05  0.00000000E+00  5.39161997E-05
 -2.04691515E-01 -4.17541952E-05  0.00000000E+00  5.99896363E-05  7.28671189E-01
  7.99340710E-05  0.00000000E+00  3.82738277E-07  0.00000000E+00  0.00000000E+00
 -1.38123574E-06  9.64303102E-03 -1.68112729E-02  5.20302694E-02 -1.61048669E-01
  9.60629088E-03  1.33037544E-03  0.00000000E+00  1.68160548E-02 -5.20089321E-02
  1.61106220E-01  9.60404744E-03 -1.33004703E-03  0.00000000E+00  1.68112729E-02