 Entering Gaussian System, Link 0=g16
 Initial command:
 /home/szhao/Apps/g16/l1.exe "/home/szhao/tmp/Gau-106168.inp" -scrdir="/home/szhao/tmp/"
 Default is to use a total of  16 processors:
                               16 via shared-memory
                                1 via Linda
 Entering Link 1 = /home/szhao/Apps/g16/l1.exe PID=    106169.
  
 Copyright (c) 1988,1990,1992,1993,1995,1998,2003,2009,2016,
            Gaussian, Inc.  All Rights Reserved.
  
 This is part of the Gaussian(R) 16 program.  It is based on
 the Gaussian(R) 09 system (copyright 2009, Gaussian, Inc.),
 the Gaussian(R) 03 system (copyright 2003, Gaussian, Inc.),
 the Gaussian(R) 98 system (copyright 1998, Gaussian, Inc.),
 the Gaussian(R) 94 system (copyright 1995, Gaussian, Inc.),
 the Gaussian 92(TM) system (copyright 1992, Gaussian, Inc.),
 the Gaussian 90(TM) system (copyright 1990, Gaussian, Inc.),
 the Gaussian 88(TM) system (copyright 1988, Gaussian, Inc.),
 the Gaussian 86(TM) system (copyright 1986, Carnegie Mellon
 University), and the Gaussian 82(TM) system (copyright 1983,
 Carnegie Mellon University). Gaussian is a federally registered
 trademark of Gaussian, Inc.
  
 This software contains proprietary and confidential information,
 including trade secrets, belonging to Gaussian, Inc.
  
 This software is provided under written license and may be
 used, copied, transmitted, or stored only in accord with that
 written license.
  
 The following legend is applicable only to US Government
 contracts under FAR:
  
                    RESTRICTED RIGHTS LEGEND
  
 Use, reproduction and disclosure by the US Government is
 subject to restrictions as set forth in subparagraphs (a)
 and (c) of the Commercial Computer Software - Restricted
 Rights clause in FAR 52.227-19.
  
 Gaussian, Inc.
 340 Quinnipiac St., Bldg. 40, Wallingford CT 06492
  
  
 ---------------------------------------------------------------
 Warning -- This program may not be used in any manner that
 competes with the business of Gaussian, Inc. or will provide
 assistance to any competitor of Gaussian, Inc.  The licensee
 of this program is prohibited from giving any competitor of
 Gaussian, Inc. access to this program.  By using this program,
 the user acknowledges that Gaussian, Inc. is engaged in the
 business of creating and licensing software in the field of
 computational chemistry and represents and warrants to the
 licensee that it is not a competitor of Gaussian, Inc. and that
 it will not use this program in any manner prohibited above.
 ---------------------------------------------------------------
  

 Cite this work as:
 Gaussian 16, Revision A.03,
 M. J. Frisch, G. W. Trucks, H. B. Schlegel, G. E. Scuseria, 
 M. A. Robb, J. R. Cheeseman, G. Scalmani, V. Barone, 
 G. A. Petersson, H. Nakatsuji, X. Li, M. Caricato, A. V. Marenich, 
 J. Bloino, B. G. Janesko, R. Gomperts, B. Mennucci, H. P. Hratchian, 
 J. V. Ortiz, A. F. Izmaylov, J. L. Sonnenberg, D. Williams-Young, 
 F. Ding, F. Lipparini, F. Egidi, J. Goings, B. Peng, A. Petrone, 
 T. Henderson, D. Ranasinghe, V. G. Zakrzewski, J. Gao, N. Rega, 
 G. Zheng, W. Liang, M. Hada, M. Ehara, K. Toyota, R. Fukuda, 
 J. Hasegawa, M. Ishida, T. Nakajima, Y. Honda, O. Kitao, H. Nakai, 
 T. Vreven, K. Throssell, J. A. Montgomery, Jr., J. E. Peralta, 
 F. Ogliaro, M. J. Bearpark, J. J. Heyd, E. N. Brothers, K. N. Kudin, 
 V. N. Staroverov, T. A. Keith, R. Kobayashi, J. Normand, 
 K. Raghavachari, A. P. Rendell, J. C. Burant, S. S. Iyengar, 
 J. Tomasi, M. Cossi, J. M. Millam, M. Klene, C. Adamo, R. Cammi, 
 J. W. Ochterski, R. L. Martin, K. Morokuma, O. Farkas, 
 J. B. Foresman, and D. J. Fox, Gaussian, Inc., Wallingford CT, 2016.
 
 ******************************************
 Gaussian 16:  ES64L-G16RevA.03 25-Dec-2016
                21-Apr-2025 
 ******************************************
 %chk=opt.chk
 %mem=4GB
 %nprocshared=8
 Will use up to    8 processors via shared memory.
 --------------------------------------------
 #p opt UM062X/6-311+G** nosymm int=superfine
 --------------------------------------------
 1/18=20,19=15,26=5,38=1/1,3;
 2/9=110,12=2,15=1,17=6,18=5,40=1/2;
 3/5=4,6=6,7=111,11=2,25=1,30=1,71=1,74=-55,75=-7,116=2/1,2,3;
 4//1;
 5/5=2,38=5/2;
 6/7=2,8=2,9=2,10=2,28=1/1;
 7/30=1/1,2,3,16;
 1/18=20,19=15,26=5/3(2);
 2/9=110,15=1/2;
 99//99;
 2/9=110,15=1/2;
 3/5=4,6=6,7=111,11=2,25=1,30=1,71=1,74=-55,75=-7,116=2/1,2,3;
 4/5=5,16=3,69=1/1;
 5/5=2,38=5/2;
 7/30=1/1,2,3,16;
 1/18=20,19=15,26=5/3(-5);
 2/9=110,15=1/2;
 6/7=2,8=2,9=2,10=2,19=2,28=1/1;
 99/9=1/99;
 Leave Link    1 at Mon Apr 21 19:43:58 2025, MaxMem=   536870912 cpu:               1.3 elap:               0.2
 (Enter /home/szhao/Apps/g16/l101.exe)
 -------------------
 Title Card Required
 -------------------
 Symbolic Z-matrix:
 Charge =  0 Multiplicity = 1
 C                    -1   -1.67714   0.        0. 
 S                    -1    1.67714   0.        0. 
 H                    0    -2.25278  -0.92504   0. 
 H                    0    -2.2539    0.92434  -0.00015 
 
 Add virtual bond connecting atoms S2         and C1         Dist= 6.34D+00.
 ITRead=  2  2  0  0
 MicOpt= -2 -2 -1 -1
 NAtoms=      4 NQM=        2 NQMF=       2 NMMI=      0 NMMIF=      0
                NMic=       0 NMicF=      0.
                    Isotopes and Nuclear Properties:
 (Nuclear quadrupole moments (NQMom) in fm**2, nuclear magnetic moments (NMagM)
  in nuclear magnetons)

  Atom         1           2           3           4
 IAtWgt=          12          32           1           1
 AtmWgt=  12.0000000  31.9720718   1.0078250   1.0078250
 NucSpn=           0           0           1           1
 AtZEff=  -0.0000000  -0.0000000  -0.0000000  -0.0000000
 NQMom=    0.0000000   0.0000000   0.0000000   0.0000000
 NMagM=    0.0000000   0.0000000   2.7928460   2.7928460
 AtZNuc=   6.0000000  16.0000000   1.0000000   1.0000000
 Leave Link  101 at Mon Apr 21 19:43:59 2025, MaxMem=   536870912 cpu:               2.8 elap:               0.4
 (Enter /home/szhao/Apps/g16/l103.exe)

 GradGradGradGradGradGradGradGradGradGradGradGradGradGradGradGradGradGrad
 Berny optimization.
 Initialization pass.
                           ----------------------------
                           !    Initial Parameters    !
                           ! (Angstroms and Degrees)  !
 --------------------------                            --------------------------
 ! Name  Definition              Value          Derivative Info.                !
 --------------------------------------------------------------------------------
 ! X1    R(1,-1)                -1.6771         Frozen                          !
 ! Y1    R(1,-2)                 0.0            Frozen                          !
 ! Z1    R(1,-3)                 0.0            Frozen                          !
 ! X2    R(2,-1)                 1.6771         Frozen                          !
 ! Y2    R(2,-2)                 0.0            Frozen                          !
 ! Z2    R(2,-3)                 0.0            Frozen                          !
 ! R1    R(1,3)                  1.0895         estimate D2E/DX2                !
 ! R2    R(1,4)                  1.0895         estimate D2E/DX2                !
 ! A1    A(2,1,3)              121.8936         estimate D2E/DX2                !
 ! A2    A(2,1,4)              121.9628         estimate D2E/DX2                !
 ! A3    A(3,1,4)              116.1436         estimate D2E/DX2                !
 ! D1    D(2,1,4,3)            179.9911         estimate D2E/DX2                !
 --------------------------------------------------------------------------------
 Trust Radius=3.00D-01 FncErr=1.00D-07 GrdErr=1.00D-07 EigMax=2.50D+02 EigMin=1.00D-04
 Number of steps in this run=     22 maximum allowed number of steps=    100.
 GradGradGradGradGradGradGradGradGradGradGradGradGradGradGradGradGradGrad

 Leave Link  103 at Mon Apr 21 19:44:00 2025, MaxMem=   536870912 cpu:               0.2 elap:               0.2
 (Enter /home/szhao/Apps/g16/l202.exe)
                          Input orientation:                          
 ---------------------------------------------------------------------
 Center     Atomic      Atomic             Coordinates (Angstroms)
 Number     Number       Type             X           Y           Z
 ---------------------------------------------------------------------
      1          6           0       -1.677140    0.000000    0.000000
      2         16           0        1.677140    0.000000    0.000000
      3          1           0       -2.252782   -0.925037    0.000000
      4          1           0       -2.253896    0.924339   -0.000152
 ---------------------------------------------------------------------
                    Distance matrix (angstroms):
                    1          2          3          4
     1  C    0.000000
     2  S    3.354279   0.000000
     3  H    1.089522   4.037323   0.000000
     4  H    1.089518   4.038248   1.849376   0.000000
 Symmetry turned off by external request.
 Stoichiometry    CH2S
 Framework group  C1[X(CH2S)]
 Deg. of freedom     6
 Full point group                 C1      NOp   1
 Rotational constants (GHZ):         293.2322157           4.3684078           4.3042850
 Leave Link  202 at Mon Apr 21 19:44:00 2025, MaxMem=   536870912 cpu:               0.1 elap:               0.1
 (Enter /home/szhao/Apps/g16/l301.exe)
 Standard basis: 6-311+G(d,p) (5D, 7F)
 Ernie: Thresh=  0.10000D-02 Tol=  0.10000D-05 Strict=F.
    64 basis functions,   102 primitive gaussians,    66 cartesian basis functions
    12 alpha electrons       12 beta electrons
       nuclear repulsion energy        25.4534464145 Hartrees.
 IExCor= 4336 DFT=T Ex+Corr=M062X ExCW=0 ScaHFX=  0.540000
 ScaDFX=  1.000000  1.000000  1.000000  1.000000 ScalE2=  1.000000  1.000000
 IRadAn=      7 IRanWt=     -1 IRanGd=            0 ICorTp=0 IEmpDi=  4
 NAtoms=    4 NActive=    4 NUniq=    4 SFac= 1.00D+00 NAtFMM=   60 NAOKFM=F Big=F
 Integral buffers will be    131072 words long.
 Raffenetti 2 integral format.
 Two-electron integral symmetry is turned off.
 Leave Link  301 at Mon Apr 21 19:44:01 2025, MaxMem=   536870912 cpu:               0.7 elap:               0.1
 (Enter /home/szhao/Apps/g16/l302.exe)
 NPDir=0 NMtPBC=     1 NCelOv=     1 NCel=       1 NClECP=     1 NCelD=      1
         NCelK=      1 NCelE2=     1 NClLst=     1 CellRange=     0.0.
 One-electron integrals computed using PRISM.
 NBasis=    64 RedAO= T EigKep=  1.36D-02  NBF=    64
 NBsUse=    64 1.00D-06 EigRej= -1.00D+00 NBFU=    64
 Precomputing XC quadrature grid using
 IXCGrd= 4 IRadAn=           7 IRanWt=          -1 IRanGd=           0 AccXCQ= 0.00D+00.
 Generated NRdTot=       0 NPtTot=           0 NUsed=           0 NTot=          32
 NSgBfM=    65    65    65    65    65 MxSgAt=     4 MxSgA2=     4.
 Leave Link  302 at Mon Apr 21 19:44:02 2025, MaxMem=   536870912 cpu:               1.6 elap:               0.3
 (Enter /home/szhao/Apps/g16/l303.exe)
 DipDrv:  MaxL=1.
 Leave Link  303 at Mon Apr 21 19:44:02 2025, MaxMem=   536870912 cpu:               0.5 elap:               0.1
 (Enter /home/szhao/Apps/g16/l401.exe)
 ExpMin= 4.05D-02 ExpMax= 9.34D+04 ExpMxC= 3.17D+03 IAcc=3 IRadAn=         7 AccDes= 0.00D+00
 Harris functional with IExCor= 1009 and IRadAn=       7 diagonalized for initial guess.
 HarFok:  IExCor= 1009 AccDes= 0.00D+00 IRadAn=         7 IDoV= 1 UseB2=F ITyADJ=14
 ICtDFT=  3500011 ScaDFX=  1.000000  1.000000  1.000000  1.000000
 FoFCou: FMM=F IPFlag=           0 FMFlag=      100000 FMFlg1=           0
         NFxFlg=           0 DoJE=T BraDBF=F KetDBF=T FulRan=T
         wScrn=  0.000000 ICntrl=       500 IOpCl=  0 I1Cent=   200000004 NGrid=           0
         NMat0=    1 NMatS0=      1 NMatT0=    0 NMatD0=    1 NMtDS0=    0 NMtDT0=    0
 Symmetry not used in FoFCou.
 Harris En= -436.977029186963    
 JPrj=0 DoOrth=F DoCkMO=F.
 Initial guess <Sx>= 0.0000 <Sy>= 0.0000 <Sz>= 0.0000 <S**2>=-0.0000 S=-0.0000
 Leave Link  401 at Mon Apr 21 19:44:03 2025, MaxMem=   536870912 cpu:               2.8 elap:               0.4
 (Enter /home/szhao/Apps/g16/l502.exe)
 Keep R1 and R2 ints in memory in canonical form, NReq=11470680.
 FoFCou: FMM=F IPFlag=           0 FMFlag=           0 FMFlg1=           0
         NFxFlg=           0 DoJE=F BraDBF=F KetDBF=F FulRan=T
         wScrn=  0.000000 ICntrl=       600 IOpCl=  0 I1Cent=           0 NGrid=           0
         NMat0=    1 NMatS0=   2080 NMatT0=    0 NMatD0=    1 NMtDS0=    0 NMtDT0=    0
 Symmetry not used in FoFCou.
 Two-electron integral symmetry not used.
 UHF open shell SCF:
 Using DIIS extrapolation, IDIIS=  1040.
 NGot=   536870912 LenX=   532532574 LenY=   532527777
 Requested convergence on RMS density matrix=1.00D-08 within 128 cycles.
 Requested convergence on MAX density matrix=1.00D-06.
 Requested convergence on             energy=1.00D-06.
 No special actions if energy rises.

 Cycle   1  Pass 1  IDiag  1:
 E= -437.089018309271    
 DIIS: error= 3.89D-02 at cycle   1 NSaved=   1.
 NSaved= 1 IEnMin= 1 EnMin= -437.089018309271     IErMin= 1 ErrMin= 3.89D-02
 ErrMax= 3.89D-02  0.00D+00 EMaxC= 1.00D-01 BMatC= 3.29D-01 BMatP= 3.29D-01
 IDIUse=3 WtCom= 6.11D-01 WtEn= 3.89D-01
 Coeff-Com:  0.100D+01
 Coeff-En:   0.100D+01
 Coeff:      0.100D+01
 Gap=     0.311 Goal=   None    Shift=    0.000
 Gap=     0.311 Goal=   None    Shift=    0.000
 GapD=    0.311 DampG=1.000 DampE=0.500 DampFc=0.5000 IDamp=-1.
 Damping current iteration by 5.00D-01
 RMSDP=9.18D-03 MaxDP=2.04D-01              OVMax= 5.68D-01

 Cycle   2  Pass 1  IDiag  1:
 E= -437.022753763768     Delta-E=        0.066264545503 Rises=F Damp=T
 DIIS: error= 2.59D-02 at cycle   2 NSaved=   2.
 NSaved= 2 IEnMin= 1 EnMin= -437.089018309271     IErMin= 2 ErrMin= 2.59D-02
 ErrMax= 2.59D-02  0.00D+00 EMaxC= 1.00D-01 BMatC= 1.65D-01 BMatP= 3.29D-01
 IDIUse=3 WtCom= 7.41D-01 WtEn= 2.59D-01
 Coeff-Com:  0.375D+00 0.625D+00
 Coeff-En:   0.684D+00 0.316D+00
 Coeff:      0.455D+00 0.545D+00
 Gap=     0.060 Goal=   None    Shift=    0.000
 Gap=     0.060 Goal=   None    Shift=    0.000
 RMSDP=4.63D-03 MaxDP=1.16D-01 DE= 6.63D-02 OVMax= 6.05D-01

 Cycle   3  Pass 1  IDiag  1:
 E= -437.140002288562     Delta-E=       -0.117248524794 Rises=F Damp=F
 DIIS: error= 2.57D-02 at cycle   3 NSaved=   3.
 NSaved= 3 IEnMin= 3 EnMin= -437.140002288562     IErMin= 3 ErrMin= 2.57D-02
 ErrMax= 2.57D-02  0.00D+00 EMaxC= 1.00D-01 BMatC= 4.30D-02 BMatP= 1.65D-01
 IDIUse=3 WtCom= 7.43D-01 WtEn= 2.57D-01
 Coeff-Com: -0.716D-01 0.313D+00 0.759D+00
 Coeff-En:   0.000D+00 0.000D+00 0.100D+01
 Coeff:     -0.532D-01 0.232D+00 0.821D+00
 Gap=     0.157 Goal=   None    Shift=    0.000
 Gap=     0.157 Goal=   None    Shift=    0.000
 RMSDP=2.75D-03 MaxDP=5.09D-02 DE=-1.17D-01 OVMax= 2.01D-01

 Cycle   4  Pass 1  IDiag  1:
 E= -437.162275842508     Delta-E=       -0.022273553946 Rises=F Damp=F
 DIIS: error= 7.81D-03 at cycle   4 NSaved=   4.
 NSaved= 4 IEnMin= 4 EnMin= -437.162275842508     IErMin= 4 ErrMin= 7.81D-03
 ErrMax= 7.81D-03  0.00D+00 EMaxC= 1.00D-01 BMatC= 1.38D-02 BMatP= 4.30D-02
 IDIUse=3 WtCom= 9.22D-01 WtEn= 7.81D-02
 Coeff-Com:  0.617D-01-0.125D+00 0.131D+00 0.933D+00
 Coeff-En:   0.000D+00 0.000D+00 0.701D-01 0.930D+00
 Coeff:      0.569D-01-0.115D+00 0.126D+00 0.932D+00
 Gap=     0.145 Goal=   None    Shift=    0.000
 Gap=     0.145 Goal=   None    Shift=    0.000
 RMSDP=1.46D-03 MaxDP=2.17D-02 DE=-2.23D-02 OVMax= 9.94D-02

 Cycle   5  Pass 1  IDiag  1:
 E= -437.172803198133     Delta-E=       -0.010527355625 Rises=F Damp=F
 DIIS: error= 2.83D-03 at cycle   5 NSaved=   5.
 NSaved= 5 IEnMin= 5 EnMin= -437.172803198133     IErMin= 5 ErrMin= 2.83D-03
 ErrMax= 2.83D-03  0.00D+00 EMaxC= 1.00D-01 BMatC= 5.59D-04 BMatP= 1.38D-02
 IDIUse=3 WtCom= 9.72D-01 WtEn= 2.83D-02
 Coeff-Com: -0.244D-01 0.203D-01-0.559D-01-0.205D+00 0.126D+01
 Coeff-En:   0.000D+00 0.000D+00 0.000D+00 0.000D+00 0.100D+01
 Coeff:     -0.237D-01 0.197D-01-0.543D-01-0.199D+00 0.126D+01
 Gap=     0.152 Goal=   None    Shift=    0.000
 Gap=     0.152 Goal=   None    Shift=    0.000
 RMSDP=9.16D-04 MaxDP=1.47D-02 DE=-1.05D-02 OVMax= 5.50D-02

 Cycle   6  Pass 1  IDiag  1:
 E= -437.174672868658     Delta-E=       -0.001869670525 Rises=F Damp=F
 DIIS: error= 1.58D-03 at cycle   6 NSaved=   6.
 NSaved= 6 IEnMin= 6 EnMin= -437.174672868658     IErMin= 6 ErrMin= 1.58D-03
 ErrMax= 1.58D-03  0.00D+00 EMaxC= 1.00D-01 BMatC= 2.33D-04 BMatP= 5.59D-04
 IDIUse=3 WtCom= 9.84D-01 WtEn= 1.58D-02
 Coeff-Com:  0.663D-02-0.160D-01-0.599D-01 0.119D+00-0.343D+00 0.129D+01
 Coeff-En:   0.000D+00 0.000D+00 0.000D+00 0.000D+00 0.000D+00 0.100D+01
 Coeff:      0.653D-02-0.158D-01-0.590D-01 0.117D+00-0.338D+00 0.129D+01
 Gap=     0.155 Goal=   None    Shift=    0.000
 Gap=     0.155 Goal=   None    Shift=    0.000
 RMSDP=3.82D-04 MaxDP=7.86D-03 DE=-1.87D-03 OVMax= 2.98D-02

 Cycle   7  Pass 1  IDiag  1:
 E= -437.174969637585     Delta-E=       -0.000296768927 Rises=F Damp=F
 DIIS: error= 2.54D-04 at cycle   7 NSaved=   7.
 NSaved= 7 IEnMin= 7 EnMin= -437.174969637585     IErMin= 7 ErrMin= 2.54D-04
 ErrMax= 2.54D-04  0.00D+00 EMaxC= 1.00D-01 BMatC= 1.11D-05 BMatP= 2.33D-04
 IDIUse=3 WtCom= 9.97D-01 WtEn= 2.54D-03
 Coeff-Com:  0.249D-02-0.359D-02-0.110D-01 0.411D-01-0.953D-01 0.185D+00
 Coeff-Com:  0.881D+00
 Coeff-En:   0.000D+00 0.000D+00 0.000D+00 0.000D+00 0.000D+00 0.000D+00
 Coeff-En:   0.100D+01
 Coeff:      0.248D-02-0.358D-02-0.110D-01 0.410D-01-0.951D-01 0.185D+00
 Coeff:      0.881D+00
 Gap=     0.155 Goal=   None    Shift=    0.000
 Gap=     0.155 Goal=   None    Shift=    0.000
 RMSDP=4.69D-05 MaxDP=7.40D-04 DE=-2.97D-04 OVMax= 2.84D-03

 Cycle   8  Pass 1  IDiag  1:
 E= -437.174977823075     Delta-E=       -0.000008185490 Rises=F Damp=F
 DIIS: error= 6.66D-05 at cycle   8 NSaved=   8.
 NSaved= 8 IEnMin= 8 EnMin= -437.174977823075     IErMin= 8 ErrMin= 6.66D-05
 ErrMax= 6.66D-05  0.00D+00 EMaxC= 1.00D-01 BMatC= 5.95D-07 BMatP= 1.11D-05
 IDIUse=1 WtCom= 1.00D+00 WtEn= 0.00D+00
 Coeff-Com: -0.854D-03 0.135D-02 0.947D-03-0.762D-02 0.208D-01-0.457D-01
 Coeff-Com:  0.156D+00 0.875D+00
 Coeff:     -0.854D-03 0.135D-02 0.947D-03-0.762D-02 0.208D-01-0.457D-01
 Coeff:      0.156D+00 0.875D+00
 Gap=     0.155 Goal=   None    Shift=    0.000
 Gap=     0.155 Goal=   None    Shift=    0.000
 RMSDP=1.22D-05 MaxDP=2.45D-04 DE=-8.19D-06 OVMax= 9.28D-04

 Cycle   9  Pass 1  IDiag  1:
 E= -437.174978387625     Delta-E=       -0.000000564551 Rises=F Damp=F
 DIIS: error= 3.00D-05 at cycle   9 NSaved=   9.
 NSaved= 9 IEnMin= 9 EnMin= -437.174978387625     IErMin= 9 ErrMin= 3.00D-05
 ErrMax= 3.00D-05  0.00D+00 EMaxC= 1.00D-01 BMatC= 4.44D-08 BMatP= 5.95D-07
 IDIUse=1 WtCom= 1.00D+00 WtEn= 0.00D+00
 Coeff-Com: -0.894D-04 0.258D-03-0.517D-03-0.121D-02-0.367D-02 0.766D-02
 Coeff-Com: -0.396D-01 0.175D-01 0.102D+01
 Coeff:     -0.894D-04 0.258D-03-0.517D-03-0.121D-02-0.367D-02 0.766D-02
 Coeff:     -0.396D-01 0.175D-01 0.102D+01
 Gap=     0.155 Goal=   None    Shift=    0.000
 Gap=     0.155 Goal=   None    Shift=    0.000
 RMSDP=8.05D-06 MaxDP=1.73D-04 DE=-5.65D-07 OVMax= 6.41D-04

 Cycle  10  Pass 1  IDiag  1:
 E= -437.174978501011     Delta-E=       -0.000000113385 Rises=F Damp=F
 DIIS: error= 6.28D-06 at cycle  10 NSaved=  10.
 NSaved=10 IEnMin=10 EnMin= -437.174978501011     IErMin=10 ErrMin= 6.28D-06
 ErrMax= 6.28D-06  0.00D+00 EMaxC= 1.00D-01 BMatC= 7.68D-09 BMatP= 4.44D-08
 IDIUse=1 WtCom= 1.00D+00 WtEn= 0.00D+00
 Coeff-Com:  0.395D-05-0.330D-04-0.181D-03 0.508D-03-0.408D-03 0.189D-02
 Coeff-Com: -0.134D-01-0.308D-01 0.670D-01 0.975D+00
 Coeff:      0.395D-05-0.330D-04-0.181D-03 0.508D-03-0.408D-03 0.189D-02
 Coeff:     -0.134D-01-0.308D-01 0.670D-01 0.975D+00
 Gap=     0.155 Goal=   None    Shift=    0.000
 Gap=     0.155 Goal=   None    Shift=    0.000
 RMSDP=1.48D-06 MaxDP=2.05D-05 DE=-1.13D-07 OVMax= 8.42D-05

 Cycle  11  Pass 1  IDiag  1:
 E= -437.174978509088     Delta-E=       -0.000000008077 Rises=F Damp=F
 DIIS: error= 1.52D-06 at cycle  11 NSaved=  11.
 NSaved=11 IEnMin=11 EnMin= -437.174978509088     IErMin=11 ErrMin= 1.52D-06
 ErrMax= 1.52D-06  0.00D+00 EMaxC= 1.00D-01 BMatC= 1.16D-10 BMatP= 7.68D-09
 IDIUse=1 WtCom= 1.00D+00 WtEn= 0.00D+00
 Coeff-Com: -0.528D-05 0.675D-05-0.258D-04-0.219D-04 0.553D-04 0.588D-03
 Coeff-Com: -0.664D-04-0.447D-02-0.297D-01-0.549D-01 0.109D+01
 Coeff:     -0.528D-05 0.675D-05-0.258D-04-0.219D-04 0.553D-04 0.588D-03
 Coeff:     -0.664D-04-0.447D-02-0.297D-01-0.549D-01 0.109D+01
 Gap=     0.155 Goal=   None    Shift=    0.000
 Gap=     0.155 Goal=   None    Shift=    0.000
 RMSDP=3.74D-07 MaxDP=8.00D-06 DE=-8.08D-09 OVMax= 2.89D-05

 Cycle  12  Pass 1  IDiag  1:
 E= -437.174978509424     Delta-E=       -0.000000000336 Rises=F Damp=F
 DIIS: error= 3.19D-07 at cycle  12 NSaved=  12.
 NSaved=12 IEnMin=12 EnMin= -437.174978509424     IErMin=12 ErrMin= 3.19D-07
 ErrMax= 3.19D-07  0.00D+00 EMaxC= 1.00D-01 BMatC= 1.33D-11 BMatP= 1.16D-10
 IDIUse=1 WtCom= 1.00D+00 WtEn= 0.00D+00
 Coeff-Com: -0.641D-06 0.106D-05-0.864D-05-0.767D-05-0.692D-05 0.169D-03
 Coeff-Com:  0.300D-03-0.723D-03-0.102D-01-0.507D-01 0.260D+00 0.801D+00
 Coeff:     -0.641D-06 0.106D-05-0.864D-05-0.767D-05-0.692D-05 0.169D-03
 Coeff:      0.300D-03-0.723D-03-0.102D-01-0.507D-01 0.260D+00 0.801D+00
 Gap=     0.155 Goal=   None    Shift=    0.000
 Gap=     0.155 Goal=   None    Shift=    0.000
 RMSDP=8.29D-08 MaxDP=1.60D-06 DE=-3.36D-10 OVMax= 6.16D-06

 Cycle  13  Pass 1  IDiag  1:
 E= -437.174978509445     Delta-E=       -0.000000000021 Rises=F Damp=F
 DIIS: error= 6.73D-08 at cycle  13 NSaved=  13.
 NSaved=13 IEnMin=13 EnMin= -437.174978509445     IErMin=13 ErrMin= 6.73D-08
 ErrMax= 6.73D-08  0.00D+00 EMaxC= 1.00D-01 BMatC= 2.12D-12 BMatP= 1.33D-11
 IDIUse=1 WtCom= 1.00D+00 WtEn= 0.00D+00
 Coeff-Com:  0.176D-06-0.553D-06 0.744D-07 0.874D-05-0.112D-04-0.280D-04
 Coeff-Com: -0.623D-04 0.184D-03 0.325D-02 0.880D-02-0.111D+00 0.341D-01
 Coeff-Com:  0.107D+01
 Coeff:      0.176D-06-0.553D-06 0.744D-07 0.874D-05-0.112D-04-0.280D-04
 Coeff:     -0.623D-04 0.184D-03 0.325D-02 0.880D-02-0.111D+00 0.341D-01
 Coeff:      0.107D+01
 Gap=     0.155 Goal=   None    Shift=    0.000
 Gap=     0.155 Goal=   None    Shift=    0.000
 RMSDP=5.42D-08 MaxDP=9.49D-07 DE=-2.06D-11 OVMax= 2.98D-06

 Cycle  14  Pass 1  IDiag  1:
 E= -437.174978509452     Delta-E=       -0.000000000007 Rises=F Damp=F
 DIIS: error= 5.98D-08 at cycle  14 NSaved=  14.
 NSaved=14 IEnMin=14 EnMin= -437.174978509452     IErMin=14 ErrMin= 5.98D-08
 ErrMax= 5.98D-08  0.00D+00 EMaxC= 1.00D-01 BMatC= 1.04D-12 BMatP= 2.12D-12
 IDIUse=1 WtCom= 1.00D+00 WtEn= 0.00D+00
 Coeff-Com: -0.155D-06 0.951D-06 0.523D-06-0.191D-04 0.235D-04 0.384D-04
 Coeff-Com:  0.298D-04-0.269D-03-0.387D-02-0.533D-02 0.154D+00-0.230D+00
 Coeff-Com: -0.226D+01 0.334D+01
 Coeff:     -0.155D-06 0.951D-06 0.523D-06-0.191D-04 0.235D-04 0.384D-04
 Coeff:      0.298D-04-0.269D-03-0.387D-02-0.533D-02 0.154D+00-0.230D+00
 Coeff:     -0.226D+01 0.334D+01
 Gap=     0.155 Goal=   None    Shift=    0.000
 Gap=     0.155 Goal=   None    Shift=    0.000
 RMSDP=1.41D-07 MaxDP=2.69D-06 DE=-7.39D-12 OVMax= 7.76D-06

 Cycle  15  Pass 1  IDiag  1:
 E= -437.174978509467     Delta-E=       -0.000000000015 Rises=F Damp=F
 DIIS: error= 4.14D-08 at cycle  15 NSaved=  15.
 NSaved=15 IEnMin=15 EnMin= -437.174978509467     IErMin=15 ErrMin= 4.14D-08
 ErrMax= 4.14D-08  0.00D+00 EMaxC= 1.00D-01 BMatC= 5.44D-13 BMatP= 1.04D-12
 IDIUse=1 WtCom= 1.00D+00 WtEn= 0.00D+00
 Coeff-Com: -0.748D-07-0.318D-06 0.358D-05 0.761D-05 0.312D-05-0.564D-04
 Coeff-Com:  0.117D-03 0.285D-03-0.204D-02-0.983D-02 0.467D-01 0.823D-01
 Coeff-Com:  0.496D+00-0.271D+01 0.310D+01
 Coeff:     -0.748D-07-0.318D-06 0.358D-05 0.761D-05 0.312D-05-0.564D-04
 Coeff:      0.117D-03 0.285D-03-0.204D-02-0.983D-02 0.467D-01 0.823D-01
 Coeff:      0.496D+00-0.271D+01 0.310D+01
 Gap=     0.155 Goal=   None    Shift=    0.000
 Gap=     0.155 Goal=   None    Shift=    0.000
 RMSDP=2.63D-07 MaxDP=5.04D-06 DE=-1.50D-11 OVMax= 1.45D-05

 Cycle  16  Pass 1  IDiag  1:
 E= -437.174978509479     Delta-E=       -0.000000000012 Rises=F Damp=F
 DIIS: error= 2.12D-08 at cycle  16 NSaved=  16.
 NSaved=16 IEnMin=16 EnMin= -437.174978509479     IErMin=16 ErrMin= 2.12D-08
 ErrMax= 2.12D-08  0.00D+00 EMaxC= 1.00D-01 BMatC= 1.30D-13 BMatP= 5.44D-13
 IDIUse=1 WtCom= 1.00D+00 WtEn= 0.00D+00
 Large coefficients: NSaved= 16 BigCof=    0.00 CofMax=   10.00 Det=-6.47D-15
 Inversion failed.  Reducing to 15 matrices.
 Coeff-Com:  0.656D-07-0.686D-07-0.311D-07-0.374D-05 0.534D-06 0.205D-04
 Coeff-Com: -0.163D-04 0.699D-03 0.219D-02-0.252D-01-0.549D-02 0.341D+00
 Coeff-Com: -0.259D+00-0.270D+00 0.122D+01
 Coeff:      0.656D-07-0.686D-07-0.311D-07-0.374D-05 0.534D-06 0.205D-04
 Coeff:     -0.163D-04 0.699D-03 0.219D-02-0.252D-01-0.549D-02 0.341D+00
 Coeff:     -0.259D+00-0.270D+00 0.122D+01
 Gap=     0.155 Goal=   None    Shift=    0.000
 Gap=     0.155 Goal=   None    Shift=    0.000
 RMSDP=3.63D-08 MaxDP=6.93D-07 DE=-1.21D-11 OVMax= 2.00D-06

 Cycle  17  Pass 1  IDiag  1:
 E= -437.174978509480     Delta-E=       -0.000000000000 Rises=F Damp=F
 DIIS: error= 2.85D-09 at cycle  17 NSaved=  16.
 NSaved=16 IEnMin=16 EnMin= -437.174978509480     IErMin=16 ErrMin= 2.85D-09
 ErrMax= 2.85D-09  0.00D+00 EMaxC= 1.00D-01 BMatC= 1.57D-15 BMatP= 1.30D-13
 IDIUse=1 WtCom= 1.00D+00 WtEn= 0.00D+00
 Large coefficients: NSaved= 16 BigCof=    0.00 CofMax=   10.00 Det=-1.47D-15
 Inversion failed.  Reducing to 15 matrices.
 Coeff-Com: -0.279D-07 0.530D-08 0.643D-06 0.570D-06-0.639D-05 0.109D-05
 Coeff-Com: -0.753D-04-0.143D-03 0.335D-02-0.339D-02-0.804D-01 0.143D+00
 Coeff-Com: -0.581D-01-0.223D+00 0.122D+01
 Coeff:     -0.279D-07 0.530D-08 0.643D-06 0.570D-06-0.639D-05 0.109D-05
 Coeff:     -0.753D-04-0.143D-03 0.335D-02-0.339D-02-0.804D-01 0.143D+00
 Coeff:     -0.581D-01-0.223D+00 0.122D+01
 Gap=     0.155 Goal=   None    Shift=    0.000
 Gap=     0.155 Goal=   None    Shift=    0.000
 RMSDP=2.02D-09 MaxDP=3.91D-08 DE=-3.41D-13 OVMax= 1.17D-07

 SCF Done:  E(UM062X) =  -437.174978509     A.U. after   17 cycles
            NFock= 17  Conv=0.20D-08     -V/T= 2.0016
 <Sx>= 0.0000 <Sy>= 0.0000 <Sz>= 0.0000 <S**2>=-0.0000 S=-0.0000
 <L.S>=  0.00000000000    
 KE= 4.364865710364D+02 PE=-1.088684760197D+03 EE= 1.895697642371D+02
 Annihilation of the first spin contaminant:
 S**2 before annihilation    -0.0000,   after     0.0000
 Leave Link  502 at Mon Apr 21 19:44:10 2025, MaxMem=   536870912 cpu:              54.1 elap:               7.1
 (Enter /home/szhao/Apps/g16/l601.exe)
 Copying SCF densities to generalized density rwf, IOpCl= 1 IROHF=0.

 **********************************************************************

            Population analysis using the SCF density.

 **********************************************************************

 Alpha  occ. eigenvalues --  -89.91996 -10.65871  -8.27998  -6.20721  -6.19249
 Alpha  occ. eigenvalues --   -6.19241  -0.79518  -0.72271  -0.54427  -0.34336
 Alpha  occ. eigenvalues --   -0.29748  -0.29729
 Alpha virt. eigenvalues --   -0.14200  -0.11918   0.00990   0.05003   0.05488
 Alpha virt. eigenvalues --    0.06598   0.08358   0.08884   0.09235   0.13814
 Alpha virt. eigenvalues --    0.16734   0.17882   0.36443   0.36874   0.37313
 Alpha virt. eigenvalues --    0.43333   0.44647   0.56139   0.56319   0.61874
 Alpha virt. eigenvalues --    0.66121   0.75034   0.82881   0.83418   0.85644
 Alpha virt. eigenvalues --    0.86331   0.86334   1.04486   1.17463   1.19091
 Alpha virt. eigenvalues --    1.43235   1.50378   1.67087   1.70455   1.70611
 Alpha virt. eigenvalues --    1.71216   1.78043   1.90316   2.05045   2.36339
 Alpha virt. eigenvalues --    2.46856   2.47474   2.59324   2.71161   2.97179
 Alpha virt. eigenvalues --    3.66807   7.76661  17.46525  17.46643  17.48187
 Alpha virt. eigenvalues --   23.74829 189.01621
  Beta  occ. eigenvalues --  -89.91996 -10.65871  -8.27998  -6.20721  -6.19249
  Beta  occ. eigenvalues --   -6.19241  -0.79518  -0.72271  -0.54427  -0.34336
  Beta  occ. eigenvalues --   -0.29748  -0.29729
  Beta virt. eigenvalues --   -0.14200  -0.11918   0.00990   0.05003   0.05488
  Beta virt. eigenvalues --    0.06598   0.08358   0.08884   0.09235   0.13814
  Beta virt. eigenvalues --    0.16734   0.17882   0.36443   0.36874   0.37313
  Beta virt. eigenvalues --    0.43333   0.44647   0.56139   0.56319   0.61874
  Beta virt. eigenvalues --    0.66121   0.75034   0.82881   0.83418   0.85644
  Beta virt. eigenvalues --    0.86331   0.86334   1.04486   1.17463   1.19091
  Beta virt. eigenvalues --    1.43235   1.50378   1.67087   1.70455   1.70611
  Beta virt. eigenvalues --    1.71216   1.78043   1.90316   2.05045   2.36339
  Beta virt. eigenvalues --    2.46856   2.47474   2.59324   2.71161   2.97179
  Beta virt. eigenvalues --    3.66807   7.76661  17.46525  17.46643  17.48187
  Beta virt. eigenvalues --   23.74829 189.01621
          Condensed to atoms (all electrons):
               1          2          3          4
     1  C    5.573615   0.025389   0.334206   0.334261
     2  S    0.025389  16.051898   0.001246   0.001246
     3  H    0.334206   0.001246   0.518690  -0.027764
     4  H    0.334261   0.001246  -0.027764   0.518628
          Atomic-Atomic Spin Densities.
               1          2          3          4
     1  C   -0.000000   0.000000   0.000000   0.000000
     2  S    0.000000  -0.000000  -0.000000   0.000000
     3  H    0.000000  -0.000000   0.000000   0.000000
     4  H    0.000000   0.000000   0.000000   0.000000
 Mulliken charges and spin densities:
               1          2
     1  C   -0.267471  -0.000000
     2  S   -0.079779  -0.000000
     3  H    0.173622   0.000000
     4  H    0.173629   0.000000
 Sum of Mulliken charges =  -0.00000  -0.00000
 Mulliken charges and spin densities with hydrogens summed into heavy atoms:
               1          2
     1  C    0.079779  -0.000000
     2  S   -0.079779  -0.000000
 Electronic spatial extent (au):  <R**2>=            305.2027
 Charge=             -0.0000 electrons
 Dipole moment (field-independent basis, Debye):
    X=             -3.9328    Y=             -0.0011    Z=             -0.0002  Tot=              3.9328
 Quadrupole moment (field-independent basis, Debye-Ang):
   XX=            -12.3562   YY=            -21.9448   ZZ=            -21.9866
   XY=             -0.0005   XZ=             -0.0001   YZ=             -0.0000
 Traceless Quadrupole moment (field-independent basis, Debye-Ang):
   XX=              6.4063   YY=             -3.1823   ZZ=             -3.2240
   XY=             -0.0005   XZ=             -0.0001   YZ=             -0.0000
 Octapole moment (field-independent basis, Debye-Ang**2):
  XXX=            -29.7251  YYY=             -0.0013  ZZZ=              0.0001  XYY=            -16.8316
  XXY=              0.0010  XXZ=             -0.0003  XZZ=            -15.8619  YZZ=              0.0001
  YYZ=             -0.0001  XYZ=              0.0001
 Hexadecapole moment (field-independent basis, Debye-Ang**3):
 XXXX=           -318.0646 YYYY=            -38.9706 ZZZZ=            -31.9275 XXXY=             -0.0252
 XXXZ=             -0.0045 YYYX=              0.0011 YYYZ=              0.0002 ZZZX=             -0.0010
 ZZZY=              0.0004 XXYY=            -69.4443 XXZZ=            -71.7247 YYZZ=            -12.2108
 XXYZ=             -0.0002 YYXZ=             -0.0000 ZZXY=             -0.0005
 N-N= 2.545344641446D+01 E-N=-1.088684760272D+03  KE= 4.364865710364D+02
                          Isotropic Fermi Contact Couplings
        Atom                 a.u.       MegaHertz       Gauss      10(-4) cm-1
     1  C(13)             -0.00000      -0.00000      -0.00000      -0.00000
     2  S(33)              0.00000       0.00000       0.00000       0.00000
     3  H(1)              -0.00000      -0.00000      -0.00000      -0.00000
     4  H(1)              -0.00000      -0.00000      -0.00000      -0.00000
 --------------------------------------------------------
       Center         ----  Spin Dipole Couplings  ----
                      3XX-RR        3YY-RR        3ZZ-RR
 --------------------------------------------------------
     1   Atom        0.000000      0.000000      0.000000
     2   Atom        0.000000      0.000000      0.000000
     3   Atom        0.000000      0.000000      0.000000
     4   Atom        0.000000      0.000000      0.000000
 --------------------------------------------------------
                        XY            XZ            YZ
 --------------------------------------------------------
     1   Atom        0.000000      0.000000      0.000000
     2   Atom        0.000000      0.000000      0.000000
     3   Atom        0.000000      0.000000      0.000000
     4   Atom        0.000000      0.000000      0.000000
 --------------------------------------------------------


 ---------------------------------------------------------------------------------
              Anisotropic Spin Dipole Couplings in Principal Axis System
 ---------------------------------------------------------------------------------

       Atom             a.u.   MegaHertz   Gauss  10(-4) cm-1        Axes

              Baa     0.0000     0.000     0.000     0.000  1.0000  0.0000  0.0000
     1 C(13)  Bbb     0.0000     0.000     0.000     0.000 -0.0000  1.0000  0.0000
              Bcc     0.0000     0.000     0.000     0.000  0.0000  0.0000  1.0000
 
              Baa     0.0000     0.000     0.000     0.000  1.0000  0.0000  0.0000
     2 S(33)  Bbb     0.0000     0.000     0.000     0.000 -0.0000  1.0000  0.0000
              Bcc     0.0000     0.000     0.000     0.000  0.0000  0.0000  1.0000
 
              Baa     0.0000     0.000     0.000     0.000  1.0000  0.0000  0.0000
     3 H(1)   Bbb     0.0000     0.000     0.000     0.000 -0.0000  1.0000  0.0000
              Bcc     0.0000     0.000     0.000     0.000  0.0000  0.0000  1.0000
 
              Baa     0.0000     0.000     0.000     0.000  1.0000  0.0000  0.0000
     4 H(1)   Bbb     0.0000     0.000     0.000     0.000 -0.0000  1.0000  0.0000
              Bcc     0.0000     0.000     0.000     0.000  0.0000  0.0000  1.0000
 

 ---------------------------------------------------------------------------------

 No NMR shielding tensors so no spin-rotation constants.
 Leave Link  601 at Mon Apr 21 19:44:11 2025, MaxMem=   536870912 cpu:               1.7 elap:               0.5
 (Enter /home/szhao/Apps/g16/l701.exe)
 ... and contract with generalized density number  0.
 Compute integral first derivatives.
 Leave Link  701 at Mon Apr 21 19:44:12 2025, MaxMem=   536870912 cpu:               1.2 elap:               0.4
 (Enter /home/szhao/Apps/g16/l702.exe)
 L702 exits ... SP integral derivatives will be done elsewhere.
 Leave Link  702 at Mon Apr 21 19:44:13 2025, MaxMem=   536870912 cpu:               0.7 elap:               0.2
 (Enter /home/szhao/Apps/g16/l703.exe)
 Integral derivatives from FoFJK, PRISM(SPDF).
 Compute integral first derivatives, UseDBF=F ICtDFT=           0.
 Calling FoFJK, ICntrl=      2127 FMM=F ISym2X=0 I1Cent= 0 IOpClX= 1 NMat=1 NMatS=1 NMatT=0.
 FoFJK:  IHMeth= 1 ICntrl=    2127 DoSepK=F KAlg= 0 I1Cent=           0 FoldK=F
 IRaf=         0 NMat=       1 IRICut=       1 DoRegI=T DoRafI=F ISym2E= 0 IDoP0=0 IntGTp=1.
 FoFCou: FMM=F IPFlag=           0 FMFlag=      100000 FMFlg1=         800
         NFxFlg=           0 DoJE=F BraDBF=F KetDBF=F FulRan=T
         wScrn=  0.000000 ICntrl=      2127 IOpCl=  1 I1Cent=           0 NGrid=           0
         NMat0=    1 NMatS0=      1 NMatT0=    0 NMatD0=    1 NMtDS0=    0 NMtDT0=    0
 Symmetry not used in FoFCou.
 Leave Link  703 at Mon Apr 21 19:44:14 2025, MaxMem=   536870912 cpu:               6.3 elap:               0.9
 (Enter /home/szhao/Apps/g16/l716.exe)
 Dipole        =-1.54729277D+00-4.25569377D-04-9.00328273D-05
 -------------------------------------------------------------------
 Center     Atomic                   Forces (Hartrees/Bohr)
 Number     Number              X              Y              Z
 -------------------------------------------------------------------
      1        6          -0.000000000   -0.000000000   -0.000000000
      2       16          -0.000000000   -0.000000000   -0.000000000
      3        1          -0.010240856    0.001577055   -0.000000395
      4        1          -0.010235870   -0.001585077   -0.000000137
 -------------------------------------------------------------------
 Cartesian Forces:  Max     0.010240856 RMS     0.004229339
 Leave Link  716 at Mon Apr 21 19:44:14 2025, MaxMem=   536870912 cpu:               0.7 elap:               0.2
 (Enter /home/szhao/Apps/g16/l103.exe)

 GradGradGradGradGradGradGradGradGradGradGradGradGradGradGradGradGradGrad
 Berny optimization.
 FormGI is forming the generalized inverse of G from B-inverse, IUseBI=4.
 Internal  Forces:  Max     0.020476726 RMS     0.007686001
 Search for a local minimum.
 Step number   1 out of a maximum of   22
 All quantities printed in internal units (Hartrees-Bohrs-Radians)
 RMS Force = .69474D-02 SwitMx=.10000D-02 MixMth= 1
 Mixed Optimization -- RFO/linear search
 Second derivative matrix not updated -- first step.
 The second derivative matrix:
                          X1        Y1        Z1        X2        Y2
           X1           0.50000
           Y1           0.00000   0.50000
           Z1           0.00000   0.00000   0.50000
           X2           0.00000   0.00000   0.00000   0.50000
           Y2           0.00000   0.00000   0.00000   0.00000   0.50000
           Z2           0.00000   0.00000   0.00000   0.00000   0.00000
           R1           0.00000   0.00000   0.00000   0.00000   0.00000
           R2           0.00000   0.00000   0.00000   0.00000   0.00000
           A1           0.00000   0.00000   0.00000   0.00000   0.00000
           A2           0.00000   0.00000   0.00000   0.00000   0.00000
           A3           0.00000   0.00000   0.00000   0.00000   0.00000
           D1           0.00000   0.00000   0.00000   0.00000   0.00000
                          Z2        R1        R2        A1        A2
           Z2           0.50000
           R1           0.00000   0.34868
           R2           0.00000   0.00000   0.34868
           A1           0.00000   0.00000   0.00000   0.16000
           A2           0.00000   0.00000   0.00000   0.00000   0.16000
           A3           0.00000   0.00000   0.00000   0.00000   0.00000
           D1           0.00000   0.00000   0.00000   0.00000   0.00000
                          A3        D1
           A3           0.16000
           D1           0.00000   0.00241
 ITU=  0
     Eigenvalues ---    0.00241   0.16000   0.16000   0.34868   0.34868
     Eigenvalues --- 1000.000001000.000001000.000001000.000001000.00000
     Eigenvalues --- 1000.000001000.00000
 RFO step:  Lambda=-1.68068102D-03 EMin= 2.41201275D-03
 Linear search not attempted -- first point.
 Iteration  1 RMS(Cart)=  0.03431621 RMS(Int)=  0.00070525
 Iteration  2 RMS(Cart)=  0.00071464 RMS(Int)=  0.00000014
 Iteration  3 RMS(Cart)=  0.00000017 RMS(Int)=  0.00000001
 ITry= 1 IFail=0 DXMaxC= 7.64D-02 DCOld= 1.00D+10 DXMaxT= 3.00D-01 DXLimC= 3.00D+00 Rises=F
 Variable       Old X    -DE/DX   Delta X   Delta X   Delta X     New X
                                 (Linear)    (Quad)   (Total)
    X1       -3.16933  -0.02048   0.00000   0.00000   0.00000  -3.16933
    Y1        0.00000  -0.00001   0.00000   0.00000   0.00000   0.00000
    Z1        0.00000  -0.00000   0.00000   0.00000   0.00000   0.00000
    X2        3.16933  -0.00000   0.00000   0.00000   0.00000   3.16933
    Y2        0.00000  -0.00000   0.00000   0.00000   0.00000   0.00000
    Z2        0.00000  -0.00000   0.00000   0.00000   0.00000   0.00000
    R1        2.05890   0.00407   0.00000   0.01162   0.01162   2.07052
    R2        2.05889   0.00407   0.00000   0.01163   0.01163   2.07052
    A1        2.12745   0.00654   0.00000   0.04047   0.04047   2.16791
    A2        2.12865   0.00653   0.00000   0.04040   0.04040   2.16905
    A3        2.02709  -0.01307   0.00000  -0.08087  -0.08087   1.94622
    D1        3.14144   0.00000   0.00000   0.00027   0.00027  -3.14148
         Item               Value     Threshold  Converged?
 Maximum Force            0.013075     0.000450     NO 
 RMS     Force            0.006947     0.000300     NO 
 Maximum Displacement     0.076361     0.001800     NO 
 RMS     Displacement     0.034409     0.001200     NO 
 Predicted change in Energy=-8.488100D-04
 Lowest energy point so far.  Saving SCF results.
 GradGradGradGradGradGradGradGradGradGradGradGradGradGradGradGradGradGrad

 Leave Link  103 at Mon Apr 21 19:44:15 2025, MaxMem=   536870912 cpu:               0.8 elap:               0.2
 (Enter /home/szhao/Apps/g16/l202.exe)
                          Input orientation:                          
 ---------------------------------------------------------------------
 Center     Atomic      Atomic             Coordinates (Angstroms)
 Number     Number       Type             X           Y           Z
 ---------------------------------------------------------------------
      1          6           0       -1.677140    0.000000    0.000000
      2         16           0        1.677140    0.000000    0.000000
      3          1           0       -2.293190   -0.906078    0.000129
      4          1           0       -2.294226    0.905373   -0.000015
 ---------------------------------------------------------------------
                    Distance matrix (angstroms):
                    1          2          3          4
     1  C    0.000000
     2  S    3.354279   0.000000
     3  H    1.095672   4.072407   0.000000
     4  H    1.095671   4.073260   1.811451   0.000000
 Symmetry turned off by external request.
 Stoichiometry    CH2S
 Framework group  C1[X(CH2S)]
 Deg. of freedom     6
 Full point group                 C1      NOp   1
 Rotational constants (GHZ):         305.6390846           4.3506459           4.2895854
 Leave Link  202 at Mon Apr 21 19:44:15 2025, MaxMem=   536870912 cpu:               0.1 elap:               0.3
 (Enter /home/szhao/Apps/g16/l301.exe)
 Standard basis: 6-311+G(d,p) (5D, 7F)
 Ernie: Thresh=  0.10000D-02 Tol=  0.10000D-05 Strict=F.
    64 basis functions,   102 primitive gaussians,    66 cartesian basis functions
    12 alpha electrons       12 beta electrons
       nuclear repulsion energy        25.3906261652 Hartrees.
 IExCor= 4336 DFT=T Ex+Corr=M062X ExCW=0 ScaHFX=  0.540000
 ScaDFX=  1.000000  1.000000  1.000000  1.000000 ScalE2=  1.000000  1.000000
 IRadAn=      7 IRanWt=     -1 IRanGd=            0 ICorTp=0 IEmpDi=  4
 NAtoms=    4 NActive=    4 NUniq=    4 SFac= 1.00D+00 NAtFMM=   60 NAOKFM=F Big=F
 Integral buffers will be    131072 words long.
 Raffenetti 2 integral format.
 Two-electron integral symmetry is turned off.
 Leave Link  301 at Mon Apr 21 19:44:15 2025, MaxMem=   536870912 cpu:               0.7 elap:               0.1
 (Enter /home/szhao/Apps/g16/l302.exe)
 NPDir=0 NMtPBC=     1 NCelOv=     1 NCel=       1 NClECP=     1 NCelD=      1
         NCelK=      1 NCelE2=     1 NClLst=     1 CellRange=     0.0.
 One-electron integrals computed using PRISM.
 NBasis=    64 RedAO= T EigKep=  1.39D-02  NBF=    64
 NBsUse=    64 1.00D-06 EigRej= -1.00D+00 NBFU=    64
 Precomputing XC quadrature grid using
 IXCGrd= 4 IRadAn=           7 IRanWt=          -1 IRanGd=           0 AccXCQ= 0.00D+00.
 Generated NRdTot=       0 NPtTot=           0 NUsed=           0 NTot=          32
 NSgBfM=    65    65    65    65    65 MxSgAt=     4 MxSgA2=     4.
 Leave Link  302 at Mon Apr 21 19:44:16 2025, MaxMem=   536870912 cpu:               1.5 elap:               0.2
 (Enter /home/szhao/Apps/g16/l303.exe)
 DipDrv:  MaxL=1.
 Leave Link  303 at Mon Apr 21 19:44:16 2025, MaxMem=   536870912 cpu:               0.4 elap:               0.1
 (Enter /home/szhao/Apps/g16/l401.exe)
 Initial guess from the checkpoint file:  "opt.chk"
 B after Tr=    -0.006357    0.000000    0.000032
         Rot=    1.000000   -0.000002   -0.000006    0.000000 Ang=  -0.00 deg.
 Guess basis will be translated and rotated to current coordinates.
 JPrj=2 DoOrth=T DoCkMO=T.
 Initial guess <Sx>= 0.0000 <Sy>= 0.0000 <Sz>= 0.0000 <S**2>=-0.0000 S=-0.0000
 Generating alternative initial guess.
 ExpMin= 4.05D-02 ExpMax= 9.34D+04 ExpMxC= 3.17D+03 IAcc=3 IRadAn=         5 AccDes= 0.00D+00
 Harris functional with IExCor= 1009 and IRadAn=       5 diagonalized for initial guess.
 HarFok:  IExCor= 1009 AccDes= 0.00D+00 IRadAn=         5 IDoV= 1 UseB2=F ITyADJ=14
 ICtDFT=  3500011 ScaDFX=  1.000000  1.000000  1.000000  1.000000
 FoFCou: FMM=F IPFlag=           0 FMFlag=      100000 FMFlg1=           0
         NFxFlg=           0 DoJE=T BraDBF=F KetDBF=T FulRan=T
         wScrn=  0.000000 ICntrl=       500 IOpCl=  0 I1Cent=   200000004 NGrid=           0
         NMat0=    1 NMatS0=      1 NMatT0=    0 NMatD0=    1 NMtDS0=    0 NMtDT0=    0
 Symmetry not used in FoFCou.
 Harris En= -436.976841052697    
 Leave Link  401 at Mon Apr 21 19:44:17 2025, MaxMem=   536870912 cpu:               2.4 elap:               0.4
 (Enter /home/szhao/Apps/g16/l502.exe)
 Keep R1 and R2 ints in memory in canonical form, NReq=11470680.
 FoFCou: FMM=F IPFlag=           0 FMFlag=           0 FMFlg1=           0
         NFxFlg=           0 DoJE=F BraDBF=F KetDBF=F FulRan=T
         wScrn=  0.000000 ICntrl=       600 IOpCl=  0 I1Cent=           0 NGrid=           0
         NMat0=    1 NMatS0=   2080 NMatT0=    0 NMatD0=    1 NMtDS0=    0 NMtDT0=    0
 Symmetry not used in FoFCou.
 Two-electron integral symmetry not used.
 UHF open shell SCF:
 Using DIIS extrapolation, IDIIS=  1040.
 NGot=   536870912 LenX=   532532574 LenY=   532527777
 Requested convergence on RMS density matrix=1.00D-08 within 128 cycles.
 Requested convergence on MAX density matrix=1.00D-06.
 Requested convergence on             energy=1.00D-06.
 No special actions if energy rises.

 Cycle   1  Pass 1  IDiag  1:
 E= -437.176032942891    
 DIIS: error= 2.08D-03 at cycle   1 NSaved=   1.
 NSaved= 1 IEnMin= 1 EnMin= -437.176032942891     IErMin= 1 ErrMin= 2.08D-03
 ErrMax= 2.08D-03  0.00D+00 EMaxC= 1.00D-01 BMatC= 6.15D-04 BMatP= 6.15D-04
 IDIUse=3 WtCom= 9.79D-01 WtEn= 2.08D-02
 Coeff-Com:  0.100D+01
 Coeff-En:   0.100D+01
 Coeff:      0.100D+01
 Gap=     0.424 Goal=   None    Shift=    0.000
 Gap=     0.424 Goal=   None    Shift=    0.000
 GapD=    0.424 DampG=2.000 DampE=1.000 DampFc=2.0000 IDamp=-1.
 RMSDP=2.23D-04 MaxDP=4.59D-03              OVMax= 9.18D-03

 Cycle   2  Pass 1  IDiag  1:
 E= -437.176258735017     Delta-E=       -0.000225792125 Rises=F Damp=F
 DIIS: error= 2.47D-04 at cycle   2 NSaved=   2.
 NSaved= 2 IEnMin= 2 EnMin= -437.176258735017     IErMin= 2 ErrMin= 2.47D-04
 ErrMax= 2.47D-04  0.00D+00 EMaxC= 1.00D-01 BMatC= 1.39D-05 BMatP= 6.15D-04
 IDIUse=3 WtCom= 9.98D-01 WtEn= 2.47D-03
 Coeff-Com: -0.125D+00 0.112D+01
 Coeff-En:   0.000D+00 0.100D+01
 Coeff:     -0.125D+00 0.112D+01
 Gap=     0.155 Goal=   None    Shift=    0.000
 Gap=     0.155 Goal=   None    Shift=    0.000
 RMSDP=7.75D-05 MaxDP=1.64D-03 DE=-2.26D-04 OVMax= 2.37D-03

 Cycle   3  Pass 1  IDiag  1:
 E= -437.176268960457     Delta-E=       -0.000010225440 Rises=F Damp=F
 DIIS: error= 5.41D-05 at cycle   3 NSaved=   3.
 NSaved= 3 IEnMin= 3 EnMin= -437.176268960457     IErMin= 3 ErrMin= 5.41D-05
 ErrMax= 5.41D-05  0.00D+00 EMaxC= 1.00D-01 BMatC= 9.26D-07 BMatP= 1.39D-05
 IDIUse=1 WtCom= 1.00D+00 WtEn= 0.00D+00
 Coeff-Com: -0.212D-01 0.113D+00 0.909D+00
 Coeff:     -0.212D-01 0.113D+00 0.909D+00
 Gap=     0.155 Goal=   None    Shift=    0.000
 Gap=     0.155 Goal=   None    Shift=    0.000
 RMSDP=1.92D-05 MaxDP=3.96D-04 DE=-1.02D-05 OVMax= 6.25D-04

 Cycle   4  Pass 1  IDiag  1:
 E= -437.176269420113     Delta-E=       -0.000000459656 Rises=F Damp=F
 DIIS: error= 2.20D-05 at cycle   4 NSaved=   4.
 NSaved= 4 IEnMin= 4 EnMin= -437.176269420113     IErMin= 4 ErrMin= 2.20D-05
 ErrMax= 2.20D-05  0.00D+00 EMaxC= 1.00D-01 BMatC= 1.81D-07 BMatP= 9.26D-07
 IDIUse=1 WtCom= 1.00D+00 WtEn= 0.00D+00
 Coeff-Com:  0.625D-02-0.915D-01 0.265D+00 0.820D+00
 Coeff:      0.625D-02-0.915D-01 0.265D+00 0.820D+00
 Gap=     0.155 Goal=   None    Shift=    0.000
 Gap=     0.155 Goal=   None    Shift=    0.000
 RMSDP=6.48D-06 MaxDP=1.34D-04 DE=-4.60D-07 OVMax= 2.47D-04

 Cycle   5  Pass 1  IDiag  1:
 E= -437.176269499507     Delta-E=       -0.000000079394 Rises=F Damp=F
 DIIS: error= 6.65D-06 at cycle   5 NSaved=   5.
 NSaved= 5 IEnMin= 5 EnMin= -437.176269499507     IErMin= 5 ErrMin= 6.65D-06
 ErrMax= 6.65D-06  0.00D+00 EMaxC= 1.00D-01 BMatC= 5.45D-09 BMatP= 1.81D-07
 IDIUse=1 WtCom= 1.00D+00 WtEn= 0.00D+00
 Coeff-Com:  0.216D-02-0.230D-01 0.321D-01 0.121D+00 0.868D+00
 Coeff:      0.216D-02-0.230D-01 0.321D-01 0.121D+00 0.868D+00
 Gap=     0.155 Goal=   None    Shift=    0.000
 Gap=     0.155 Goal=   None    Shift=    0.000
 RMSDP=1.53D-06 MaxDP=2.24D-05 DE=-7.94D-08 OVMax= 8.44D-05

 Cycle   6  Pass 1  IDiag  1:
 E= -437.176269506818     Delta-E=       -0.000000007311 Rises=F Damp=F
 DIIS: error= 3.88D-06 at cycle   6 NSaved=   6.
 NSaved= 6 IEnMin= 6 EnMin= -437.176269506818     IErMin= 6 ErrMin= 3.88D-06
 ErrMax= 3.88D-06  0.00D+00 EMaxC= 1.00D-01 BMatC= 1.74D-09 BMatP= 5.45D-09
 IDIUse=1 WtCom= 1.00D+00 WtEn= 0.00D+00
 Coeff-Com: -0.299D-03 0.563D-02-0.298D-01-0.786D-01 0.245D+00 0.858D+00
 Coeff:     -0.299D-03 0.563D-02-0.298D-01-0.786D-01 0.245D+00 0.858D+00
 Gap=     0.155 Goal=   None    Shift=    0.000
 Gap=     0.155 Goal=   None    Shift=    0.000
 RMSDP=8.39D-07 MaxDP=1.55D-05 DE=-7.31D-09 OVMax= 5.90D-05

 Cycle   7  Pass 1  IDiag  1:
 E= -437.176269508859     Delta-E=       -0.000000002041 Rises=F Damp=F
 DIIS: error= 1.14D-06 at cycle   7 NSaved=   7.
 NSaved= 7 IEnMin= 7 EnMin= -437.176269508859     IErMin= 7 ErrMin= 1.14D-06
 ErrMax= 1.14D-06  0.00D+00 EMaxC= 1.00D-01 BMatC= 1.72D-10 BMatP= 1.74D-09
 IDIUse=1 WtCom= 1.00D+00 WtEn= 0.00D+00
 Coeff-Com: -0.402D-03 0.495D-02-0.123D-01-0.217D-01-0.123D+00 0.129D+00
 Coeff-Com:  0.102D+01
 Coeff:     -0.402D-03 0.495D-02-0.123D-01-0.217D-01-0.123D+00 0.129D+00
 Coeff:      0.102D+01
 Gap=     0.155 Goal=   None    Shift=    0.000
 Gap=     0.155 Goal=   None    Shift=    0.000
 RMSDP=4.00D-07 MaxDP=7.50D-06 DE=-2.04D-09 OVMax= 2.78D-05

 Cycle   8  Pass 1  IDiag  1:
 E= -437.176269509204     Delta-E=       -0.000000000345 Rises=F Damp=F
 DIIS: error= 2.58D-07 at cycle   8 NSaved=   8.
 NSaved= 8 IEnMin= 8 EnMin= -437.176269509204     IErMin= 8 ErrMin= 2.58D-07
 ErrMax= 2.58D-07  0.00D+00 EMaxC= 1.00D-01 BMatC= 8.12D-12 BMatP= 1.72D-10
 IDIUse=1 WtCom= 1.00D+00 WtEn= 0.00D+00
 Coeff-Com:  0.850D-04-0.119D-02 0.404D-02 0.619D-02 0.154D-01-0.641D-01
 Coeff-Com: -0.255D+00 0.129D+01
 Coeff:      0.850D-04-0.119D-02 0.404D-02 0.619D-02 0.154D-01-0.641D-01
 Coeff:     -0.255D+00 0.129D+01
 Gap=     0.155 Goal=   None    Shift=    0.000
 Gap=     0.155 Goal=   None    Shift=    0.000
 RMSDP=1.29D-07 MaxDP=2.00D-06 DE=-3.45D-10 OVMax= 8.67D-06

 Cycle   9  Pass 1  IDiag  1:
 E= -437.176269509237     Delta-E=       -0.000000000034 Rises=F Damp=F
 DIIS: error= 1.19D-07 at cycle   9 NSaved=   9.
 NSaved= 9 IEnMin= 9 EnMin= -437.176269509237     IErMin= 9 ErrMin= 1.19D-07
 ErrMax= 1.19D-07  0.00D+00 EMaxC= 1.00D-01 BMatC= 3.26D-12 BMatP= 8.12D-12
 IDIUse=1 WtCom= 1.00D+00 WtEn= 0.00D+00
 Coeff-Com: -0.680D-05 0.139D-03-0.804D-03-0.861D-03 0.211D-02 0.201D-01
 Coeff-Com:  0.359D-01-0.566D+00 0.151D+01
 Coeff:     -0.680D-05 0.139D-03-0.804D-03-0.861D-03 0.211D-02 0.201D-01
 Coeff:      0.359D-01-0.566D+00 0.151D+01
 Gap=     0.155 Goal=   None    Shift=    0.000
 Gap=     0.155 Goal=   None    Shift=    0.000
 RMSDP=9.54D-08 MaxDP=2.17D-06 DE=-3.38D-11 OVMax= 6.24D-06

 Cycle  10  Pass 1  IDiag  1:
 E= -437.176269509257     Delta-E=       -0.000000000019 Rises=F Damp=F
 DIIS: error= 9.15D-08 at cycle  10 NSaved=  10.
 NSaved=10 IEnMin=10 EnMin= -437.176269509257     IErMin=10 ErrMin= 9.15D-08
 ErrMax= 9.15D-08  0.00D+00 EMaxC= 1.00D-01 BMatC= 2.05D-12 BMatP= 3.26D-12
 IDIUse=1 WtCom= 1.00D+00 WtEn= 0.00D+00
 Coeff-Com: -0.437D-04 0.624D-03-0.220D-02-0.330D-02-0.789D-02 0.346D-01
 Coeff-Com:  0.132D+00-0.728D+00 0.215D+00 0.136D+01
 Coeff:     -0.437D-04 0.624D-03-0.220D-02-0.330D-02-0.789D-02 0.346D-01
 Coeff:      0.132D+00-0.728D+00 0.215D+00 0.136D+01
 Gap=     0.155 Goal=   None    Shift=    0.000
 Gap=     0.155 Goal=   None    Shift=    0.000
 RMSDP=1.16D-07 MaxDP=2.71D-06 DE=-1.91D-11 OVMax= 7.78D-06

 Cycle  11  Pass 1  IDiag  1:
 E= -437.176269509274     Delta-E=       -0.000000000018 Rises=F Damp=F
 DIIS: error= 8.08D-08 at cycle  11 NSaved=  11.
 NSaved=11 IEnMin=11 EnMin= -437.176269509274     IErMin=11 ErrMin= 8.08D-08
 ErrMax= 8.08D-08  0.00D+00 EMaxC= 1.00D-01 BMatC= 1.15D-12 BMatP= 2.05D-12
 IDIUse=1 WtCom= 1.00D+00 WtEn= 0.00D+00
 Coeff-Com:  0.239D-04-0.363D-03 0.148D-02 0.192D-02 0.339D-02-0.271D-01
 Coeff-Com: -0.794D-01 0.649D+00-0.950D+00-0.807D+00 0.221D+01
 Coeff:      0.239D-04-0.363D-03 0.148D-02 0.192D-02 0.339D-02-0.271D-01
 Coeff:     -0.794D-01 0.649D+00-0.950D+00-0.807D+00 0.221D+01
 Gap=     0.155 Goal=   None    Shift=    0.000
 Gap=     0.155 Goal=   None    Shift=    0.000
 RMSDP=1.66D-07 MaxDP=3.98D-06 DE=-1.78D-11 OVMax= 1.14D-05

 Cycle  12  Pass 1  IDiag  1:
 E= -437.176269509292     Delta-E=       -0.000000000017 Rises=F Damp=F
 DIIS: error= 6.09D-08 at cycle  12 NSaved=  12.
 NSaved=12 IEnMin=12 EnMin= -437.176269509292     IErMin=12 ErrMin= 6.09D-08
 ErrMax= 6.09D-08  0.00D+00 EMaxC= 1.00D-01 BMatC= 5.54D-13 BMatP= 1.15D-12
 IDIUse=1 WtCom= 1.00D+00 WtEn= 0.00D+00
 Coeff-Com: -0.191D-04 0.314D-03-0.149D-02-0.155D-02-0.241D-02 0.292D-01
 Coeff-Com:  0.810D-01-0.833D+00 0.180D+01 0.636D+00-0.445D+01 0.375D+01
 Coeff:     -0.191D-04 0.314D-03-0.149D-02-0.155D-02-0.241D-02 0.292D-01
 Coeff:      0.810D-01-0.833D+00 0.180D+01 0.636D+00-0.445D+01 0.375D+01
 Gap=     0.155 Goal=   None    Shift=    0.000
 Gap=     0.155 Goal=   None    Shift=    0.000
 RMSDP=2.24D-07 MaxDP=5.44D-06 DE=-1.73D-11 OVMax= 1.56D-05

 Cycle  13  Pass 1  IDiag  1:
 E= -437.176269509304     Delta-E=       -0.000000000012 Rises=F Damp=F
 DIIS: error= 1.87D-08 at cycle  13 NSaved=  13.
 NSaved=13 IEnMin=13 EnMin= -437.176269509304     IErMin=13 ErrMin= 1.87D-08
 ErrMax= 1.87D-08  0.00D+00 EMaxC= 1.00D-01 BMatC= 7.35D-14 BMatP= 5.54D-13
 IDIUse=1 WtCom= 1.00D+00 WtEn= 0.00D+00
 Coeff-Com: -0.163D-05 0.128D-04 0.303D-04-0.170D-03-0.211D-03 0.472D-03
 Coeff-Com: -0.105D-01 0.107D+00-0.392D+00 0.154D+00 0.867D+00-0.147D+01
 Coeff-Com:  0.175D+01
 Coeff:     -0.163D-05 0.128D-04 0.303D-04-0.170D-03-0.211D-03 0.472D-03
 Coeff:     -0.105D-01 0.107D+00-0.392D+00 0.154D+00 0.867D+00-0.147D+01
 Coeff:      0.175D+01
 Gap=     0.155 Goal=   None    Shift=    0.000
 Gap=     0.155 Goal=   None    Shift=    0.000
 RMSDP=8.35D-08 MaxDP=2.03D-06 DE=-1.22D-11 OVMax= 5.82D-06

 Cycle  14  Pass 1  IDiag  1:
 E= -437.176269509304     Delta-E=       -0.000000000001 Rises=F Damp=F
 DIIS: error= 2.61D-09 at cycle  14 NSaved=  14.
 NSaved=14 IEnMin=14 EnMin= -437.176269509304     IErMin=14 ErrMin= 2.61D-09
 ErrMax= 2.61D-09  0.00D+00 EMaxC= 1.00D-01 BMatC= 1.04D-15 BMatP= 7.35D-14
 IDIUse=1 WtCom= 1.00D+00 WtEn= 0.00D+00
 Coeff-Com:  0.925D-07-0.413D-05 0.332D-04 0.734D-05-0.251D-04-0.647D-03
 Coeff-Com: -0.312D-02 0.335D-01-0.109D+00 0.568D-02 0.218D+00-0.252D+00
 Coeff-Com:  0.228D+00 0.880D+00
 Coeff:      0.925D-07-0.413D-05 0.332D-04 0.734D-05-0.251D-04-0.647D-03
 Coeff:     -0.312D-02 0.335D-01-0.109D+00 0.568D-02 0.218D+00-0.252D+00
 Coeff:      0.228D+00 0.880D+00
 Gap=     0.155 Goal=   None    Shift=    0.000
 Gap=     0.155 Goal=   None    Shift=    0.000
 RMSDP=3.68D-09 MaxDP=8.57D-08 DE=-5.68D-13 OVMax= 2.47D-07

 SCF Done:  E(UM062X) =  -437.176269509     A.U. after   14 cycles
            NFock= 14  Conv=0.37D-08     -V/T= 2.0016
 <Sx>= 0.0000 <Sy>= 0.0000 <Sz>= 0.0000 <S**2>=-0.0000 S=-0.0000
 <L.S>=  0.00000000000    
 KE= 4.364834518485D+02 PE=-1.088548261779D+03 EE= 1.894979142564D+02
 Annihilation of the first spin contaminant:
 S**2 before annihilation    -0.0000,   after    -0.0000
 Leave Link  502 at Mon Apr 21 19:44:24 2025, MaxMem=   536870912 cpu:              48.4 elap:               6.4
 (Enter /home/szhao/Apps/g16/l701.exe)
 ... and contract with generalized density number  0.
 Compute integral first derivatives.
 Leave Link  701 at Mon Apr 21 19:44:24 2025, MaxMem=   536870912 cpu:               0.9 elap:               0.1
 (Enter /home/szhao/Apps/g16/l702.exe)
 L702 exits ... SP integral derivatives will be done elsewhere.
 Leave Link  702 at Mon Apr 21 19:44:25 2025, MaxMem=   536870912 cpu:               0.4 elap:               0.1
 (Enter /home/szhao/Apps/g16/l703.exe)
 Integral derivatives from FoFJK, PRISM(SPDF).
 Compute integral first derivatives, UseDBF=F ICtDFT=           0.
 Calling FoFJK, ICntrl=      2127 FMM=F ISym2X=0 I1Cent= 0 IOpClX= 1 NMat=1 NMatS=1 NMatT=0.
 FoFJK:  IHMeth= 1 ICntrl=    2127 DoSepK=F KAlg= 0 I1Cent=           0 FoldK=F
 IRaf=         0 NMat=       1 IRICut=       1 DoRegI=T DoRafI=F ISym2E= 0 IDoP0=0 IntGTp=1.
 FoFCou: FMM=F IPFlag=           0 FMFlag=      100000 FMFlg1=         800
         NFxFlg=           0 DoJE=F BraDBF=F KetDBF=F FulRan=T
         wScrn=  0.000000 ICntrl=      2127 IOpCl=  1 I1Cent=           0 NGrid=           0
         NMat0=    1 NMatS0=      1 NMatT0=    0 NMatD0=    1 NMtDS0=    0 NMtDT0=    0
 Symmetry not used in FoFCou.
 Leave Link  703 at Mon Apr 21 19:44:26 2025, MaxMem=   536870912 cpu:               7.5 elap:               1.1
 (Enter /home/szhao/Apps/g16/l716.exe)
 Dipole        =-1.51330469D+00-4.11754577D-04 6.48786392D-05
 -------------------------------------------------------------------
 Center     Atomic                   Forces (Hartrees/Bohr)
 Number     Number              X              Y              Z
 -------------------------------------------------------------------
      1        6          -0.000000000   -0.000000000   -0.000000000
      2       16          -0.000000000   -0.000000000   -0.000000000
      3        1          -0.005206129    0.001305352   -0.000000317
      4        1          -0.005200714   -0.001308367   -0.000000108
 -------------------------------------------------------------------
 Cartesian Forces:  Max     0.005206129 RMS     0.002190262
 Leave Link  716 at Mon Apr 21 19:44:26 2025, MaxMem=   536870912 cpu:               0.6 elap:               0.1
 (Enter /home/szhao/Apps/g16/l103.exe)

 GradGradGradGradGradGradGradGradGradGradGradGradGradGradGradGradGradGrad
 Berny optimization.
 Using GEDIIS/GDIIS optimizer.
 FormGI is forming the generalized inverse of G from B-inverse, IUseBI=4.
 Internal  Forces:  Max     0.010406843 RMS     0.003954289
 Search for a local minimum.
 Step number   2 out of a maximum of   22
 All quantities printed in internal units (Hartrees-Bohrs-Radians)
 RMS Force = .36363D-02 SwitMx=.10000D-02 MixMth= 1
 Mixed Optimization -- RFO/linear search
 Update second derivatives using D2CorX and points    1    2
 DE= -1.29D-03 DEPred=-8.49D-04 R= 1.52D+00
 TightC=F SS=  1.41D+00  RLast= 1.00D-01 DXNew= 5.0454D-01 3.0119D-01
 Trust test= 1.52D+00 RLast= 1.00D-01 DXMaxT set to 3.01D-01
 The second derivative matrix:
                          X1        Y1        Z1        X2        Y2
           X1           0.62765
           Y1           0.00006   0.50000
           Z1          -0.00001  -0.00000   0.50000
           X2           0.00000   0.00000  -0.00000   0.50000
           Y2           0.00000   0.00000  -0.00000   0.00000   0.50000
           Z2           0.00001   0.00000  -0.00000   0.00000   0.00000
           R1          -0.02819  -0.00001   0.00000  -0.00000  -0.00000
           R2          -0.02822  -0.00001   0.00000  -0.00000  -0.00000
           A1          -0.03880  -0.00002   0.00000  -0.00000  -0.00000
           A2          -0.03880  -0.00002   0.00000  -0.00000  -0.00000
           A3           0.07761   0.00004  -0.00000   0.00000   0.00000
           D1          -0.00003  -0.00000   0.00000  -0.00000  -0.00000
                          Z2        R1        R2        A1        A2
           Z2           0.50000
           R1          -0.00000   0.34504
           R2          -0.00000  -0.00364   0.34504
           A1          -0.00000  -0.00720  -0.00720   0.14660
           A2          -0.00000  -0.00717  -0.00718  -0.01336   0.14668
           A3           0.00000   0.01437   0.01437   0.02676   0.02668
           D1          -0.00000   0.00000   0.00000   0.00001   0.00001
                          A3        D1
           A3           0.10656
           D1          -0.00001   0.00241
 ITU=  1  0
 Use linear search instead of GDIIS.
     Eigenvalues ---    0.00241   0.07749   0.16000   0.34374   0.34868
     Eigenvalues --- 1000.000001000.000001000.000001000.000001000.00000
     Eigenvalues --- 1000.000001000.00000
 RFO step:  Lambda=-1.52761550D-06 EMin= 2.41201480D-03
 Quartic linear search produced a step of  0.99926.
 Iteration  1 RMS(Cart)=  0.03469589 RMS(Int)=  0.00071576
 Iteration  2 RMS(Cart)=  0.00072367 RMS(Int)=  0.00000035
 Iteration  3 RMS(Cart)=  0.00000016 RMS(Int)=  0.00000033
 ITry= 1 IFail=0 DXMaxC= 7.50D-02 DCOld= 1.00D+10 DXMaxT= 3.01D-01 DXLimC= 3.00D+00 Rises=F
 Variable       Old X    -DE/DX   Delta X   Delta X   Delta X     New X
                                 (Linear)    (Quad)   (Total)
    X1       -3.16933  -0.01041   0.00000   0.00000   0.00000  -3.16933
    Y1        0.00000  -0.00000   0.00000   0.00000   0.00000   0.00000
    Z1        0.00000  -0.00000   0.00000   0.00000   0.00000   0.00000
    X2        3.16933  -0.00000   0.00000   0.00000   0.00000   3.16933
    Y2        0.00000  -0.00000   0.00000   0.00000   0.00000   0.00000
    Z2        0.00000   0.00000   0.00000   0.00000   0.00000   0.00000
    R1        2.07052   0.00185   0.01161  -0.00137   0.01024   2.08076
    R2        2.07052   0.00185   0.01162  -0.00137   0.01025   2.08076
    A1        2.16791   0.00348   0.04044   0.00036   0.04080   2.20871
    A2        2.16905   0.00347   0.04037   0.00030   0.04067   2.20973
    A3        1.94622  -0.00695  -0.08081  -0.00066  -0.08147   1.86475
    D1       -3.14148  -0.00000   0.00027  -0.00228  -0.00201   3.13969
         Item               Value     Threshold  Converged?
 Maximum Force            0.006952     0.000450     NO 
 RMS     Force            0.003636     0.000300     NO 
 Maximum Displacement     0.074967     0.001800     NO 
 RMS     Displacement     0.034778     0.001200     NO 
 Predicted change in Energy=-4.902089D-04
 Lowest energy point so far.  Saving SCF results.
 GradGradGradGradGradGradGradGradGradGradGradGradGradGradGradGradGradGrad

 Leave Link  103 at Mon Apr 21 19:44:27 2025, MaxMem=   536870912 cpu:               0.7 elap:               0.1
 (Enter /home/szhao/Apps/g16/l202.exe)
                          Input orientation:                          
 ---------------------------------------------------------------------
 Center     Atomic      Atomic             Coordinates (Angstroms)
 Number     Number       Type             X           Y           Z
 ---------------------------------------------------------------------
      1          6           0       -1.677140    0.000000    0.000000
      2         16           0        1.677140    0.000000    0.000000
      3          1           0       -2.332861   -0.884553   -0.000934
      4          1           0       -2.333765    0.883883   -0.001066
 ---------------------------------------------------------------------
                    Distance matrix (angstroms):
                    1          2          3          4
     1  C    0.000000
     2  S    3.354279   0.000000
     3  H    1.101093   4.106402   0.000000
     4  H    1.101093   4.107140   1.768436   0.000000
 Symmetry turned off by external request.
 Stoichiometry    CH2S
 Framework group  C1[X(CH2S)]
 Deg. of freedom     6
 Full point group                 C1      NOp   1
 Rotational constants (GHZ):         320.6881455           4.3331334           4.2753649
 Leave Link  202 at Mon Apr 21 19:44:27 2025, MaxMem=   536870912 cpu:               0.2 elap:               0.1
 (Enter /home/szhao/Apps/g16/l301.exe)
 Standard basis: 6-311+G(d,p) (5D, 7F)
 Ernie: Thresh=  0.10000D-02 Tol=  0.10000D-05 Strict=F.
    64 basis functions,   102 primitive gaussians,    66 cartesian basis functions
    12 alpha electrons       12 beta electrons
       nuclear repulsion energy        25.3348356027 Hartrees.
 IExCor= 4336 DFT=T Ex+Corr=M062X ExCW=0 ScaHFX=  0.540000
 ScaDFX=  1.000000  1.000000  1.000000  1.000000 ScalE2=  1.000000  1.000000
 IRadAn=      7 IRanWt=     -1 IRanGd=            0 ICorTp=0 IEmpDi=  4
 NAtoms=    4 NActive=    4 NUniq=    4 SFac= 1.00D+00 NAtFMM=   60 NAOKFM=F Big=F
 Integral buffers will be    131072 words long.
 Raffenetti 2 integral format.
 Two-electron integral symmetry is turned off.
 Leave Link  301 at Mon Apr 21 19:44:28 2025, MaxMem=   536870912 cpu:               0.7 elap:               0.2
 (Enter /home/szhao/Apps/g16/l302.exe)
 NPDir=0 NMtPBC=     1 NCelOv=     1 NCel=       1 NClECP=     1 NCelD=      1
         NCelK=      1 NCelE2=     1 NClLst=     1 CellRange=     0.0.
 One-electron integrals computed using PRISM.
 NBasis=    64 RedAO= T EigKep=  1.42D-02  NBF=    64
 NBsUse=    64 1.00D-06 EigRej= -1.00D+00 NBFU=    64
 Precomputing XC quadrature grid using
 IXCGrd= 4 IRadAn=           7 IRanWt=          -1 IRanGd=           0 AccXCQ= 0.00D+00.
 Generated NRdTot=       0 NPtTot=           0 NUsed=           0 NTot=          32
 NSgBfM=    65    65    65    65    65 MxSgAt=     4 MxSgA2=     4.
 Leave Link  302 at Mon Apr 21 19:44:28 2025, MaxMem=   536870912 cpu:               2.0 elap:               0.3
 (Enter /home/szhao/Apps/g16/l303.exe)
 DipDrv:  MaxL=1.
 Leave Link  303 at Mon Apr 21 19:44:29 2025, MaxMem=   536870912 cpu:               1.1 elap:               0.2
 (Enter /home/szhao/Apps/g16/l401.exe)
 Initial guess from the checkpoint file:  "opt.chk"
 B after Tr=    -0.006237    0.000006   -0.000252
         Rot=    1.000000   -0.000002    0.000045    0.000002 Ang=  -0.01 deg.
 Guess basis will be translated and rotated to current coordinates.
 JPrj=2 DoOrth=T DoCkMO=T.
 Initial guess <Sx>= 0.0000 <Sy>= 0.0000 <Sz>= 0.0000 <S**2>=-0.0000 S=-0.0000
 Generating alternative initial guess.
 ExpMin= 4.05D-02 ExpMax= 9.34D+04 ExpMxC= 3.17D+03 IAcc=3 IRadAn=         5 AccDes= 0.00D+00
 Harris functional with IExCor= 1009 and IRadAn=       5 diagonalized for initial guess.
 HarFok:  IExCor= 1009 AccDes= 0.00D+00 IRadAn=         5 IDoV= 1 UseB2=F ITyADJ=14
 ICtDFT=  3500011 ScaDFX=  1.000000  1.000000  1.000000  1.000000
 FoFCou: FMM=F IPFlag=           0 FMFlag=      100000 FMFlg1=           0
         NFxFlg=           0 DoJE=T BraDBF=F KetDBF=T FulRan=T
         wScrn=  0.000000 ICntrl=       500 IOpCl=  0 I1Cent=   200000004 NGrid=           0
         NMat0=    1 NMatS0=      1 NMatT0=    0 NMatD0=    1 NMtDS0=    0 NMtDT0=    0
 Symmetry not used in FoFCou.
 Harris En= -436.976122558770    
 Leave Link  401 at Mon Apr 21 19:44:30 2025, MaxMem=   536870912 cpu:               4.1 elap:               0.9
 (Enter /home/szhao/Apps/g16/l502.exe)
 Keep R1 and R2 ints in memory in canonical form, NReq=11470680.
 FoFCou: FMM=F IPFlag=           0 FMFlag=           0 FMFlg1=           0
         NFxFlg=           0 DoJE=F BraDBF=F KetDBF=F FulRan=T
         wScrn=  0.000000 ICntrl=       600 IOpCl=  0 I1Cent=           0 NGrid=           0
         NMat0=    1 NMatS0=   2080 NMatT0=    0 NMatD0=    1 NMtDS0=    0 NMtDT0=    0
 Symmetry not used in FoFCou.
 Two-electron integral symmetry not used.
 UHF open shell SCF:
 Using DIIS extrapolation, IDIIS=  1040.
 NGot=   536870912 LenX=   532532574 LenY=   532527777
 Requested convergence on RMS density matrix=1.00D-08 within 128 cycles.
 Requested convergence on MAX density matrix=1.00D-06.
 Requested convergence on             energy=1.00D-06.
 No special actions if energy rises.

 Cycle   1  Pass 1  IDiag  1:
 E= -437.176495149414    
 DIIS: error= 2.05D-03 at cycle   1 NSaved=   1.
 NSaved= 1 IEnMin= 1 EnMin= -437.176495149414     IErMin= 1 ErrMin= 2.05D-03
 ErrMax= 2.05D-03  0.00D+00 EMaxC= 1.00D-01 BMatC= 5.85D-04 BMatP= 5.85D-04
 IDIUse=3 WtCom= 9.79D-01 WtEn= 2.05D-02
 Coeff-Com:  0.100D+01
 Coeff-En:   0.100D+01
 Coeff:      0.100D+01
 Gap=     0.427 Goal=   None    Shift=    0.000
 Gap=     0.427 Goal=   None    Shift=    0.000
 GapD=    0.427 DampG=2.000 DampE=1.000 DampFc=2.0000 IDamp=-1.
 RMSDP=2.24D-04 MaxDP=4.73D-03              OVMax= 8.87D-03

 Cycle   2  Pass 1  IDiag  1:
 E= -437.176712360514     Delta-E=       -0.000217211099 Rises=F Damp=F
 DIIS: error= 2.51D-04 at cycle   2 NSaved=   2.
 NSaved= 2 IEnMin= 2 EnMin= -437.176712360514     IErMin= 2 ErrMin= 2.51D-04
 ErrMax= 2.51D-04  0.00D+00 EMaxC= 1.00D-01 BMatC= 1.30D-05 BMatP= 5.85D-04
 IDIUse=3 WtCom= 9.97D-01 WtEn= 2.51D-03
 Coeff-Com: -0.123D+00 0.112D+01
 Coeff-En:   0.000D+00 0.100D+01
 Coeff:     -0.123D+00 0.112D+01
 Gap=     0.155 Goal=   None    Shift=    0.000
 Gap=     0.155 Goal=   None    Shift=    0.000
 RMSDP=7.34D-05 MaxDP=1.48D-03 DE=-2.17D-04 OVMax= 2.38D-03

 Cycle   3  Pass 1  IDiag  1:
 E= -437.176722007547     Delta-E=       -0.000009647033 Rises=F Damp=F
 DIIS: error= 7.59D-05 at cycle   3 NSaved=   3.
 NSaved= 3 IEnMin= 3 EnMin= -437.176722007547     IErMin= 3 ErrMin= 7.59D-05
 ErrMax= 7.59D-05  0.00D+00 EMaxC= 1.00D-01 BMatC= 9.47D-07 BMatP= 1.30D-05
 IDIUse=1 WtCom= 1.00D+00 WtEn= 0.00D+00
 Coeff-Com: -0.240D-01 0.134D+00 0.890D+00
 Coeff:     -0.240D-01 0.134D+00 0.890D+00
 Gap=     0.155 Goal=   None    Shift=    0.000
 Gap=     0.155 Goal=   None    Shift=    0.000
 RMSDP=1.75D-05 MaxDP=3.85D-04 DE=-9.65D-06 OVMax= 5.21D-04

 Cycle   4  Pass 1  IDiag  1:
 E= -437.176722459828     Delta-E=       -0.000000452281 Rises=F Damp=F
 DIIS: error= 1.76D-05 at cycle   4 NSaved=   4.
 NSaved= 4 IEnMin= 4 EnMin= -437.176722459828     IErMin= 4 ErrMin= 1.76D-05
 ErrMax= 1.76D-05  0.00D+00 EMaxC= 1.00D-01 BMatC= 1.35D-07 BMatP= 9.47D-07
 IDIUse=1 WtCom= 1.00D+00 WtEn= 0.00D+00
 Coeff-Com:  0.650D-02-0.886D-01 0.217D+00 0.865D+00
 Coeff:      0.650D-02-0.886D-01 0.217D+00 0.865D+00
 Gap=     0.155 Goal=   None    Shift=    0.000
 Gap=     0.155 Goal=   None    Shift=    0.000
 RMSDP=5.96D-06 MaxDP=1.03D-04 DE=-4.52D-07 OVMax= 2.20D-04

 Cycle   5  Pass 1  IDiag  1:
 E= -437.176722539632     Delta-E=       -0.000000079804 Rises=F Damp=F
 DIIS: error= 6.71D-06 at cycle   5 NSaved=   5.
 NSaved= 5 IEnMin= 5 EnMin= -437.176722539632     IErMin= 5 ErrMin= 6.71D-06
 ErrMax= 6.71D-06  0.00D+00 EMaxC= 1.00D-01 BMatC= 4.54D-09 BMatP= 1.35D-07
 IDIUse=1 WtCom= 1.00D+00 WtEn= 0.00D+00
 Coeff-Com:  0.723D-03-0.453D-02-0.255D-01-0.498D-01 0.108D+01
 Coeff:      0.723D-03-0.453D-02-0.255D-01-0.498D-01 0.108D+01
 Gap=     0.155 Goal=   None    Shift=    0.000
 DSYEVD-2 returned Info=          97 IAlg= 4 N=    64 NDim=    64 NE2=     8320745 trying  DSYEV.
 Gap=     0.155 Goal=   None    Shift=    0.000
 DSYEVD-2 returned Info=          97 IAlg= 4 N=    64 NDim=    64 NE2=     8320745 trying  DSYEV.
 RMSDP=1.88D-06 MaxDP=2.68D-05 DE=-7.98D-08 OVMax= 1.10D-04

 Cycle   6  Pass 1  IDiag  1:
 E= -437.176722551263     Delta-E=       -0.000000011631 Rises=F Damp=F
 DIIS: error= 2.70D-06 at cycle   6 NSaved=   6.
 NSaved= 6 IEnMin= 6 EnMin= -437.176722551263     IErMin= 6 ErrMin= 2.70D-06
 ErrMax= 2.70D-06  0.00D+00 EMaxC= 1.00D-01 BMatC= 1.22D-09 BMatP= 4.54D-09
 IDIUse=1 WtCom= 1.00D+00 WtEn= 0.00D+00
 Coeff-Com: -0.728D-03 0.988D-02-0.251D-01-0.553D-01-0.197D+00 0.127D+01
 Coeff:     -0.728D-03 0.988D-02-0.251D-01-0.553D-01-0.197D+00 0.127D+01
 Gap=     0.155 Goal=   None    Shift=    0.000
 Gap=     0.155 Goal=   None    Shift=    0.000
 RMSDP=1.18D-06 MaxDP=1.61D-05 DE=-1.16D-08 OVMax= 6.73D-05

 Cycle   7  Pass 1  IDiag  1:
 E= -437.176722555188     Delta-E=       -0.000000003925 Rises=F Damp=F
 DIIS: error= 1.36D-06 at cycle   7 NSaved=   7.
 NSaved= 7 IEnMin= 7 EnMin= -437.176722555188     IErMin= 7 ErrMin= 1.36D-06
 ErrMax= 1.36D-06  0.00D+00 EMaxC= 1.00D-01 BMatC= 4.64D-10 BMatP= 1.22D-09
 IDIUse=1 WtCom= 1.00D+00 WtEn= 0.00D+00
 Coeff-Com: -0.482D-03 0.533D-02-0.906D-02-0.295D-01-0.185D+00 0.339D+00
 Coeff-Com:  0.880D+00
 Coeff:     -0.482D-03 0.533D-02-0.906D-02-0.295D-01-0.185D+00 0.339D+00
 Coeff:      0.880D+00
 Gap=     0.155 Goal=   None    Shift=    0.000
 Gap=     0.155 Goal=   None    Shift=    0.000
 RMSDP=6.42D-07 MaxDP=1.24D-05 DE=-3.93D-09 OVMax= 3.89D-05

 Cycle   8  Pass 1  IDiag  1:
 E= -437.176722556505     Delta-E=       -0.000000001317 Rises=F Damp=F
 DIIS: error= 9.06D-07 at cycle   8 NSaved=   8.
 NSaved= 8 IEnMin= 8 EnMin= -437.176722556505     IErMin= 8 ErrMin= 9.06D-07
 ErrMax= 9.06D-07  0.00D+00 EMaxC= 1.00D-01 BMatC= 2.17D-10 BMatP= 4.64D-10
 IDIUse=1 WtCom= 1.00D+00 WtEn= 0.00D+00
 Coeff-Com:  0.425D-03-0.553D-02 0.154D-01 0.326D-01 0.110D+00-0.648D+00
 Coeff-Com:  0.392D-01 0.146D+01
 Coeff:      0.425D-03-0.553D-02 0.154D-01 0.326D-01 0.110D+00-0.648D+00
 Coeff:      0.392D-01 0.146D+01
 Gap=     0.155 Goal=   None    Shift=    0.000
 Gap=     0.155 Goal=   None    Shift=    0.000
 RMSDP=9.20D-07 MaxDP=2.08D-05 DE=-1.32D-09 OVMax= 5.96D-05

 Cycle   9  Pass 1  IDiag  1:
 E= -437.176722557844     Delta-E=       -0.000000001338 Rises=F Damp=F
 DIIS: error= 7.13D-07 at cycle   9 NSaved=   9.
 NSaved= 9 IEnMin= 9 EnMin= -437.176722557844     IErMin= 9 ErrMin= 7.13D-07
 ErrMax= 7.13D-07  0.00D+00 EMaxC= 1.00D-01 BMatC= 9.61D-11 BMatP= 2.17D-10
 IDIUse=1 WtCom= 1.00D+00 WtEn= 0.00D+00
 Coeff-Com: -0.179D-03 0.257D-02-0.906D-02-0.158D-01-0.279D-01 0.381D+00
 Coeff-Com: -0.277D+00-0.113D+01 0.207D+01
 Coeff:     -0.179D-03 0.257D-02-0.906D-02-0.158D-01-0.279D-01 0.381D+00
 Coeff:     -0.277D+00-0.113D+01 0.207D+01
 Gap=     0.155 Goal=   None    Shift=    0.000
 Gap=     0.155 Goal=   None    Shift=    0.000
 RMSDP=1.04D-06 MaxDP=2.50D-05 DE=-1.34D-09 OVMax= 7.18D-05

 Cycle  10  Pass 1  IDiag  1:
 E= -437.176722558917     Delta-E=       -0.000000001073 Rises=F Damp=F
 DIIS: error= 6.06D-07 at cycle  10 NSaved=  10.
 NSaved=10 IEnMin=10 EnMin= -437.176722558917     IErMin=10 ErrMin= 6.06D-07
 ErrMax= 6.06D-07  0.00D+00 EMaxC= 1.00D-01 BMatC= 5.88D-11 BMatP= 9.61D-11
 IDIUse=1 WtCom= 1.00D+00 WtEn= 0.00D+00
 Coeff-Com: -0.169D-03 0.220D-02-0.583D-02-0.124D-01-0.529D-01 0.249D+00
 Coeff-Com:  0.348D-01-0.438D+00-0.384D+00 0.161D+01
 Coeff:     -0.169D-03 0.220D-02-0.583D-02-0.124D-01-0.529D-01 0.249D+00
 Coeff:      0.348D-01-0.438D+00-0.384D+00 0.161D+01
 Gap=     0.155 Goal=   None    Shift=    0.000
 Gap=     0.155 Goal=   None    Shift=    0.000
 RMSDP=8.60D-07 MaxDP=2.11D-05 DE=-1.07D-09 OVMax= 6.04D-05

 Cycle  11  Pass 1  IDiag  1:
 E= -437.176722559586     Delta-E=       -0.000000000669 Rises=F Damp=F
 DIIS: error= 4.63D-07 at cycle  11 NSaved=  11.
 NSaved=11 IEnMin=11 EnMin= -437.176722559586     IErMin=11 ErrMin= 4.63D-07
 ErrMax= 4.63D-07  0.00D+00 EMaxC= 1.00D-01 BMatC= 3.39D-11 BMatP= 5.88D-11
 IDIUse=1 WtCom= 1.00D+00 WtEn= 0.00D+00
 Coeff-Com:  0.193D-03-0.291D-02 0.110D-01 0.178D-01 0.310D-01-0.448D+00
 Coeff-Com:  0.322D+00 0.140D+01-0.275D+01-0.100D+00 0.253D+01
 Coeff:      0.193D-03-0.291D-02 0.110D-01 0.178D-01 0.310D-01-0.448D+00
 Coeff:      0.322D+00 0.140D+01-0.275D+01-0.100D+00 0.253D+01
 Gap=     0.155 Goal=   None    Shift=    0.000
 Gap=     0.155 Goal=   None    Shift=    0.000
 RMSDP=1.93D-06 MaxDP=4.76D-05 DE=-6.69D-10 OVMax= 1.36D-04

 Cycle  12  Pass 1  IDiag  1:
 E= -437.176722560388     Delta-E=       -0.000000000802 Rises=F Damp=F
 DIIS: error= 1.30D-07 at cycle  12 NSaved=  12.
 NSaved=12 IEnMin=12 EnMin= -437.176722560388     IErMin=12 ErrMin= 1.30D-07
 ErrMax= 1.30D-07  0.00D+00 EMaxC= 1.00D-01 BMatC= 2.49D-12 BMatP= 3.39D-11
 IDIUse=1 WtCom= 1.00D+00 WtEn= 0.00D+00
 Coeff-Com: -0.689D-05 0.155D-03-0.105D-02-0.978D-03 0.449D-04 0.405D-01
 Coeff-Com: -0.692D-01-0.225D+00 0.659D+00-0.296D+00-0.548D+00 0.144D+01
 Coeff:     -0.689D-05 0.155D-03-0.105D-02-0.978D-03 0.449D-04 0.405D-01
 Coeff:     -0.692D-01-0.225D+00 0.659D+00-0.296D+00-0.548D+00 0.144D+01
 Gap=     0.155 Goal=   None    Shift=    0.000
 Gap=     0.155 Goal=   None    Shift=    0.000
 RMSDP=5.63D-07 MaxDP=1.38D-05 DE=-8.02D-10 OVMax= 3.96D-05

 Cycle  13  Pass 1  IDiag  1:
 E= -437.176722560436     Delta-E=       -0.000000000048 Rises=F Damp=F
 DIIS: error= 2.57D-08 at cycle  13 NSaved=  13.
 NSaved=13 IEnMin=13 EnMin= -437.176722560436     IErMin=13 ErrMin= 2.57D-08
 ErrMax= 2.57D-08  0.00D+00 EMaxC= 1.00D-01 BMatC= 1.51D-13 BMatP= 2.49D-12
 IDIUse=1 WtCom= 1.00D+00 WtEn= 0.00D+00
 Coeff-Com: -0.115D-04 0.177D-03-0.734D-03-0.112D-02-0.106D-02 0.291D-01
 Coeff-Com: -0.157D-01-0.102D+00 0.237D+00-0.352D-01-0.236D+00 0.189D+00
 Coeff-Com:  0.937D+00
 Coeff:     -0.115D-04 0.177D-03-0.734D-03-0.112D-02-0.106D-02 0.291D-01
 Coeff:     -0.157D-01-0.102D+00 0.237D+00-0.352D-01-0.236D+00 0.189D+00
 Coeff:      0.937D+00
 Gap=     0.155 Goal=   None    Shift=    0.000
 Gap=     0.155 Goal=   None    Shift=    0.000
 RMSDP=2.67D-08 MaxDP=6.11D-07 DE=-4.84D-11 OVMax= 1.78D-06

 Cycle  14  Pass 1  IDiag  1:
 E= -437.176722560437     Delta-E=       -0.000000000001 Rises=F Damp=F
 DIIS: error= 4.34D-09 at cycle  14 NSaved=  14.
 NSaved=14 IEnMin=14 EnMin= -437.176722560437     IErMin=14 ErrMin= 4.34D-09
 ErrMax= 4.34D-09  0.00D+00 EMaxC= 1.00D-01 BMatC= 4.68D-15 BMatP= 1.51D-13
 IDIUse=1 WtCom= 1.00D+00 WtEn= 0.00D+00
 Coeff-Com: -0.557D-07-0.317D-05 0.419D-04-0.164D-04 0.758D-04-0.281D-02
 Coeff-Com:  0.481D-02 0.854D-02-0.366D-01 0.238D-01 0.278D-01-0.806D-01
 Coeff-Com:  0.115D-01 0.104D+01
 Coeff:     -0.557D-07-0.317D-05 0.419D-04-0.164D-04 0.758D-04-0.281D-02
 Coeff:      0.481D-02 0.854D-02-0.366D-01 0.238D-01 0.278D-01-0.806D-01
 Coeff:      0.115D-01 0.104D+01
 Gap=     0.155 Goal=   None    Shift=    0.000
 Gap=     0.155 Goal=   None    Shift=    0.000
 RMSDP=3.09D-09 MaxDP=6.03D-08 DE=-5.12D-13 OVMax= 1.90D-07

 SCF Done:  E(UM062X) =  -437.176722560     A.U. after   14 cycles
            NFock= 14  Conv=0.31D-08     -V/T= 2.0016
 <Sx>= 0.0000 <Sy>= 0.0000 <Sz>= 0.0000 <S**2>=-0.0000 S=-0.0000
 <L.S>=  0.00000000000    
 KE= 4.364822859399D+02 PE=-1.088424938851D+03 EE= 1.894310947481D+02
 Annihilation of the first spin contaminant:
 S**2 before annihilation    -0.0000,   after    -0.0000
 Leave Link  502 at Mon Apr 21 19:44:37 2025, MaxMem=   536870912 cpu:              49.6 elap:               6.5
 (Enter /home/szhao/Apps/g16/l701.exe)
 ... and contract with generalized density number  0.
 Compute integral first derivatives.
 Leave Link  701 at Mon Apr 21 19:44:37 2025, MaxMem=   536870912 cpu:               1.5 elap:               0.2
 (Enter /home/szhao/Apps/g16/l702.exe)
 L702 exits ... SP integral derivatives will be done elsewhere.
 Leave Link  702 at Mon Apr 21 19:44:38 2025, MaxMem=   536870912 cpu:               0.6 elap:               0.2
 (Enter /home/szhao/Apps/g16/l703.exe)
 Integral derivatives from FoFJK, PRISM(SPDF).
 Compute integral first derivatives, UseDBF=F ICtDFT=           0.
 Calling FoFJK, ICntrl=      2127 FMM=F ISym2X=0 I1Cent= 0 IOpClX= 1 NMat=1 NMatS=1 NMatT=0.
 FoFJK:  IHMeth= 1 ICntrl=    2127 DoSepK=F KAlg= 0 I1Cent=           0 FoldK=F
 IRaf=         0 NMat=       1 IRICut=       1 DoRegI=T DoRafI=F ISym2E= 0 IDoP0=0 IntGTp=1.
 FoFCou: FMM=F IPFlag=           0 FMFlag=      100000 FMFlg1=         800
         NFxFlg=           0 DoJE=F BraDBF=F KetDBF=F FulRan=T
         wScrn=  0.000000 ICntrl=      2127 IOpCl=  1 I1Cent=           0 NGrid=           0
         NMat0=    1 NMatS0=      1 NMatT0=    0 NMatD0=    1 NMtDS0=    0 NMtDT0=    0
 Symmetry not used in FoFCou.
[...]
 IDIUse=1 WtCom= 1.00D+00 WtEn= 0.00D+00
 Coeff-Com: -0.114D-03 0.176D-02 0.113D-02-0.703D-02-0.141D-02 0.344D-01
 Coeff-Com:  0.913D-02-0.579D-01 0.261D-02 0.583D+00 0.435D+00
 Coeff:     -0.114D-03 0.176D-02 0.113D-02-0.703D-02-0.141D-02 0.344D-01
 Coeff:      0.913D-02-0.579D-01 0.261D-02 0.583D+00 0.435D+00
 Gap=     0.155 Goal=   None    Shift=    0.000
 Gap=     0.155 Goal=   None    Shift=    0.000
 RMSDP=8.53D-09 MaxDP=1.90D-07 DE=-1.53D-12 OVMax= 5.28D-07

 SCF Done:  E(UM062X) =  -437.176722857     A.U. after   11 cycles
            NFock= 11  Conv=0.85D-08     -V/T= 2.0016
 <Sx>= 0.0000 <Sy>= 0.0000 <Sz>= 0.0000 <S**2>= 0.0000 S= 0.0000
 <L.S>=  0.00000000000    
 KE= 4.364811240961D+02 PE=-1.088417914775D+03 EE= 1.894283554489D+02
 Annihilation of the first spin contaminant:
 S**2 before annihilation     0.0000,   after     0.0000
 Leave Link  502 at Mon Apr 21 19:45:11 2025, MaxMem=   536870912 cpu:              37.6 elap:               5.0
 (Enter /home/szhao/Apps/g16/l701.exe)
 ... and contract with generalized density number  0.
 Compute integral first derivatives.
 Leave Link  701 at Mon Apr 21 19:45:12 2025, MaxMem=   536870912 cpu:               1.7 elap:               0.3
 (Enter /home/szhao/Apps/g16/l702.exe)
 L702 exits ... SP integral derivatives will be done elsewhere.
 Leave Link  702 at Mon Apr 21 19:45:12 2025, MaxMem=   536870912 cpu:               0.3 elap:               0.1
 (Enter /home/szhao/Apps/g16/l703.exe)
 Integral derivatives from FoFJK, PRISM(SPDF).
 Compute integral first derivatives, UseDBF=F ICtDFT=           0.
 Calling FoFJK, ICntrl=      2127 FMM=F ISym2X=0 I1Cent= 0 IOpClX= 1 NMat=1 NMatS=1 NMatT=0.
 FoFJK:  IHMeth= 1 ICntrl=    2127 DoSepK=F KAlg= 0 I1Cent=           0 FoldK=F
 IRaf=         0 NMat=       1 IRICut=       1 DoRegI=T DoRafI=F ISym2E= 0 IDoP0=0 IntGTp=1.
 FoFCou: FMM=F IPFlag=           0 FMFlag=      100000 FMFlg1=         800
         NFxFlg=           0 DoJE=F BraDBF=F KetDBF=F FulRan=T
         wScrn=  0.000000 ICntrl=      2127 IOpCl=  1 I1Cent=           0 NGrid=           0
         NMat0=    1 NMatS0=      1 NMatT0=    0 NMatD0=    1 NMtDS0=    0 NMtDT0=    0
 Symmetry not used in FoFCou.
 Leave Link  703 at Mon Apr 21 19:45:14 2025, MaxMem=   536870912 cpu:               5.9 elap:               0.9
 (Enter /home/szhao/Apps/g16/l716.exe)
 Dipole        =-1.47754630D+00-3.30849714D-04-7.78331586D-07
 -------------------------------------------------------------------
 Center     Atomic                   Forces (Hartrees/Bohr)
 Number     Number              X              Y              Z
 -------------------------------------------------------------------
      1        6          -0.000000000   -0.000000000   -0.000000000
      2       16          -0.000000000   -0.000000000   -0.000000000
      3        1          -0.000001504    0.000001611    0.000000005
      4        1           0.000001475    0.000000594    0.000000009
 -------------------------------------------------------------------
 Cartesian Forces:  Max     0.000001611 RMS     0.000000785
 Leave Link  716 at Mon Apr 21 19:45:14 2025, MaxMem=   536870912 cpu:               0.5 elap:               0.1
 (Enter /home/szhao/Apps/g16/l103.exe)

 GradGradGradGradGradGradGradGradGradGradGradGradGradGradGradGradGradGrad
 Berny optimization.
 Using GEDIIS/GDIIS optimizer.
 FormGI is forming the generalized inverse of G from B-inverse, IUseBI=4.
 Internal  Forces:  Max     0.000004076 RMS     0.000001905
 Search for a local minimum.
 Step number   6 out of a maximum of   22
 All quantities printed in internal units (Hartrees-Bohrs-Radians)
 RMS Force = .22496D-05 SwitMx=.10000D-02 MixMth= 2
 Mixed Optimization -- En-DIIS/RFO-DIIS
 Swapping is turned off.
 Update second derivatives using D2CorX and points    1    2    3    4    5
                                                      6
 DE= -2.02D-07 DEPred=-2.05D-07 R= 9.82D-01
 Trust test= 9.82D-01 RLast= 3.84D-03 DXMaxT set to 1.51D-01
 The second derivative matrix:
                          X1        Y1        Z1        X2        Y2
           X1           0.76774
           Y1           0.00014   0.50000
           Z1          -0.00011   0.00001   0.51621
           X2          -0.00000  -0.00000   0.00000   0.50000
           Y2           0.00001  -0.00000  -0.00000  -0.00000   0.50000
           Z2           0.00010  -0.00000  -0.00265  -0.00000   0.00000
           R1          -0.17866  -0.00007  -0.00046   0.00000  -0.00001
           R2          -0.17864  -0.00007  -0.00046   0.00000  -0.00001
           A1          -0.02749  -0.00002   0.00011  -0.00000   0.00000
           A2          -0.02242  -0.00003   0.00070   0.00000   0.00001
           A3           0.04900   0.00005  -0.00096  -0.00000  -0.00001
           D1           0.00030   0.00001   0.01338   0.00000  -0.00000
                          Z2        R1        R2        A1        A2
           Z2           0.50043
           R1          -0.00001   0.33920
           R2          -0.00001  -0.00947   0.33921
           A1          -0.00001  -0.00785  -0.00785   0.14833
           A2          -0.00011  -0.00634  -0.00634  -0.01153   0.14742
           A3           0.00014   0.01536   0.01536   0.02310   0.02420
           D1          -0.00219   0.00002   0.00002  -0.00013   0.00021
                          A3        D1
           A3           0.11265
           D1           0.00007   0.01106
 ITU=  0  0 -1  1  1  0
     Eigenvalues ---    0.01106   0.08625   0.15940   0.33251   0.34868
     Eigenvalues --- 1000.000001000.000001000.000001000.000001000.00000
     Eigenvalues --- 1000.000001000.00000
 En-DIIS/RFO-DIIS/Sim-DIIS IScMMF=       -3 using points:     6    5    4    3
 RFO step:  Lambda=-1.52576918D-10.
 NNeg= 0 NGDIIS= 4 SimSw=  2.50D-03 Rises=F DC= -2.02D-07 SmlDif=  1.00D-05
 NRisDI= 0 DoIntr=F SqrtH=F CThrHd= 10.0 CDAdj=  3.0
 RMS Error=  0.1001033709D-04 NUsed= 4 OKEnD=F EnDIS=F
 InvSVX:  RCond= 8.42D-09 Info=           0 Equed=N FErr=  8.06D-13 BErr=  7.27D-17
 DIIS inversion failure, remove point   4.
 InvSVX:  RCond= 2.00D-07 Info=           0 Equed=N FErr=  1.21D-15 BErr=  9.31D-17
 RFO-DIIS uses    3 points instead of    4
 DidBck=F Rises=F RFO-DIIS coefs:    0.99837    0.00086    0.00077    0.00000
 Iteration  1 RMS(Cart)=  0.00002062 RMS(Int)=  0.00000000
 Iteration  2 RMS(Cart)=  0.00000000 RMS(Int)=  0.00000000
 ITry= 1 IFail=0 DXMaxC= 4.35D-05 DCOld= 1.00D+10 DXMaxT= 1.51D-01 DXLimC= 3.00D+00 Rises=F
 Variable       Old X    -DE/DX   Delta X   Delta X   Delta X     New X
                                 (Linear)    (Quad)   (Total)
    X1       -3.16933  -0.00000   0.00000   0.00000   0.00000  -3.16933
    Y1        0.00000   0.00000   0.00000   0.00000   0.00000   0.00000
    Z1        0.00000   0.00000   0.00000   0.00000   0.00000   0.00000
    X2        3.16933   0.00000   0.00000   0.00000   0.00000   3.16933
    Y2        0.00000  -0.00000   0.00000   0.00000   0.00000   0.00000
    Z2        0.00000  -0.00000   0.00000   0.00000   0.00000   0.00000
    R1        2.08169  -0.00000   0.00000  -0.00000  -0.00000   2.08169
    R2        2.08169  -0.00000   0.00000  -0.00000  -0.00000   2.08169
    A1        2.20888   0.00000   0.00000   0.00003   0.00003   2.20890
    A2        2.20978  -0.00000   0.00000  -0.00002  -0.00002   2.20976
    A3        1.86453  -0.00000  -0.00000  -0.00000  -0.00000   1.86453
    D1        3.14159   0.00000   0.00000  -0.00000   0.00000  -3.14159
         Item               Value     Threshold  Converged?
 Maximum Force            0.000004     0.000450     YES
 RMS     Force            0.000002     0.000300     YES
 Maximum Displacement     0.000044     0.001800     YES
 RMS     Displacement     0.000021     0.001200     YES
 Predicted change in Energy=-9.500300D-11
 Optimization completed.
    -- Stationary point found.
                           ----------------------------
                           !   Optimized Parameters   !
                           ! (Angstroms and Degrees)  !
 --------------------------                            --------------------------
 ! Name  Definition              Value          Derivative Info.                !
 --------------------------------------------------------------------------------
 ! X1    R(1,-1)                -1.6771         -DE/DX =    0.0                 !
 ! Y1    R(1,-2)                 0.0            -DE/DX =    0.0                 !
 ! Z1    R(1,-3)                 0.0            -DE/DX =    0.0                 !
 ! X2    R(2,-1)                 1.6771         -DE/DX =    0.0                 !
 ! Y2    R(2,-2)                 0.0            -DE/DX =    0.0                 !
 ! Z2    R(2,-3)                 0.0            -DE/DX =    0.0                 !
 ! R1    R(1,3)                  1.1016         -DE/DX =    0.0                 !
 ! R2    R(1,4)                  1.1016         -DE/DX =    0.0                 !
 ! A1    A(2,1,3)              126.5592         -DE/DX =    0.0                 !
 ! A2    A(2,1,4)              126.6111         -DE/DX =    0.0                 !
 ! A3    A(3,1,4)              106.8297         -DE/DX =    0.0                 !
 ! D1    D(2,1,4,3)           -180.0001         -DE/DX =    0.0                 !
 --------------------------------------------------------------------------------
 Lowest energy point so far.  Saving SCF results.
 Largest change from initial coordinates is atom    3       0.090 Angstoms.
 GradGradGradGradGradGradGradGradGradGradGradGradGradGradGradGradGradGrad

 Leave Link  103 at Mon Apr 21 19:45:15 2025, MaxMem=   536870912 cpu:               0.6 elap:               0.1
 (Enter /home/szhao/Apps/g16/l202.exe)
                          Input orientation:                          
 ---------------------------------------------------------------------
 Center     Atomic      Atomic             Coordinates (Angstroms)
 Number     Number       Type             X           Y           Z
 ---------------------------------------------------------------------
      1          6           0       -1.677140    0.000000    0.000000
      2         16           0        1.677140    0.000000    0.000000
      3          1           0       -2.333301   -0.884837    0.000066
      4          1           0       -2.334102    0.884243   -0.000067
 ---------------------------------------------------------------------
                    Distance matrix (angstroms):
                    1          2          3          4
     1  C    0.000000
     2  S    3.354279   0.000000
     3  H    1.101583   4.106893   0.000000
     4  H    1.101583   4.107547   1.769080   0.000000
 Symmetry turned off by external request.
 Stoichiometry    CH2S
 Framework group  C1[X(CH2S)]
 Deg. of freedom     6
 Full point group                 C1      NOp   1
 Rotational constants (GHZ):         320.4550098           4.3329612           4.2751557
 Leave Link  202 at Mon Apr 21 19:45:15 2025, MaxMem=   536870912 cpu:               0.2 elap:               0.1
 (Enter /home/szhao/Apps/g16/l601.exe)
 Copying SCF densities to generalized density rwf, IOpCl= 1 IROHF=0.

 **********************************************************************

            Population analysis using the SCF density.

 **********************************************************************

 Alpha  occ. eigenvalues --  -89.92351 -10.65754  -8.28353  -6.21087  -6.19597
 Alpha  occ. eigenvalues --   -6.19590  -0.79350  -0.72579  -0.52296  -0.35238
 Alpha  occ. eigenvalues --   -0.30039  -0.30015
 Alpha virt. eigenvalues --   -0.14513  -0.11652   0.00843   0.05294   0.05360
 Alpha virt. eigenvalues --    0.06641   0.08355   0.08887   0.09321   0.14136
 Alpha virt. eigenvalues --    0.16768   0.17396   0.36479   0.37071   0.37196
 Alpha virt. eigenvalues --    0.44220   0.44682   0.56517   0.56665   0.60314
 Alpha virt. eigenvalues --    0.66886   0.75359   0.82526   0.83029   0.85359
 Alpha virt. eigenvalues --    0.86021   0.86023   1.06138   1.12667   1.16926
 Alpha virt. eigenvalues --    1.50042   1.51282   1.62312   1.70187   1.70385
 Alpha virt. eigenvalues --    1.70849   1.82612   1.85610   2.10335   2.37188
 Alpha virt. eigenvalues --    2.40851   2.46752   2.56779   2.71436   3.03093
 Alpha virt. eigenvalues --    3.60922   7.76379  17.46180  17.46279  17.47818
 Alpha virt. eigenvalues --   23.73362 189.01339
  Beta  occ. eigenvalues --  -89.92351 -10.65754  -8.28353  -6.21087  -6.19597
  Beta  occ. eigenvalues --   -6.19590  -0.79350  -0.72579  -0.52296  -0.35238
  Beta  occ. eigenvalues --   -0.30039  -0.30015
  Beta virt. eigenvalues --   -0.14513  -0.11652   0.00843   0.05294   0.05360
  Beta virt. eigenvalues --    0.06641   0.08355   0.08887   0.09321   0.14136
  Beta virt. eigenvalues --    0.16768   0.17396   0.36479   0.37071   0.37196
  Beta virt. eigenvalues --    0.44220   0.44682   0.56517   0.56665   0.60314
  Beta virt. eigenvalues --    0.66886   0.75359   0.82526   0.83029   0.85359
  Beta virt. eigenvalues --    0.86021   0.86023   1.06138   1.12667   1.16926
  Beta virt. eigenvalues --    1.50042   1.51282   1.62312   1.70187   1.70385
  Beta virt. eigenvalues --    1.70849   1.82612   1.85610   2.10335   2.37188
  Beta virt. eigenvalues --    2.40851   2.46752   2.56779   2.71436   3.03093
  Beta virt. eigenvalues --    3.60922   7.76379  17.46180  17.46279  17.47818
  Beta virt. eigenvalues --   23.73362 189.01339
          Condensed to atoms (all electrons):
               1          2          3          4
     1  C    5.588806   0.019122   0.327798   0.327839
     2  S    0.019122  16.041978   0.001640   0.001639
     3  H    0.327798   0.001640   0.540889  -0.034293
     4  H    0.327839   0.001639  -0.034293   0.540839
          Atomic-Atomic Spin Densities.
               1          2          3          4
     1  C    0.000000  -0.000000   0.000000  -0.000000
     2  S   -0.000000  -0.000000  -0.000000   0.000000
     3  H    0.000000  -0.000000  -0.000000   0.000000
     4  H   -0.000000   0.000000   0.000000   0.000000
 Mulliken charges and spin densities:
               1          2
     1  C   -0.263565   0.000000
     2  S   -0.064378  -0.000000
     3  H    0.163966  -0.000000
     4  H    0.163977   0.000000
 Sum of Mulliken charges =  -0.00000   0.00000
 Mulliken charges and spin densities with hydrogens summed into heavy atoms:
               1          2
     1  C    0.064378   0.000000
     2  S   -0.064378  -0.000000
 Electronic spatial extent (au):  <R**2>=            307.1303
 Charge=             -0.0000 electrons
 Dipole moment (field-independent basis, Debye):
    X=             -3.7555    Y=             -0.0008    Z=             -0.0000  Tot=              3.7555
 Quadrupole moment (field-independent basis, Debye-Ang):
   XX=            -11.7889   YY=            -22.2876   ZZ=            -21.9603
   XY=             -0.0000   XZ=             -0.0000   YZ=              0.0000
 Traceless Quadrupole moment (field-independent basis, Debye-Ang):
   XX=              6.8900   YY=             -3.6087   ZZ=             -3.2814
   XY=             -0.0000   XZ=             -0.0000   YZ=              0.0000
 Octapole moment (field-independent basis, Debye-Ang**2):
  XXX=            -30.3829  YYY=             -0.0007  ZZZ=              0.0000  XYY=            -15.8498
  XXY=             -0.0003  XXZ=             -0.0000  XZZ=            -15.5483  YZZ=              0.0002
  YYZ=             -0.0000  XYZ=              0.0000
 Hexadecapole moment (field-independent basis, Debye-Ang**3):
 XXXX=           -312.2130 YYYY=            -39.2638 ZZZZ=            -31.7087 XXXY=             -0.0158
 XXXZ=             -0.0000 YYYX=              0.0007 YYYZ=              0.0002 ZZZX=             -0.0000
 ZZZY=              0.0004 XXYY=            -70.9141 XXZZ=            -72.1347 YYZZ=            -12.1285
 XXYZ=             -0.0001 YYXZ=             -0.0000 ZZXY=             -0.0005
 N-N= 2.533171237276D+01 E-N=-1.088417914997D+03  KE= 4.364811240961D+02
                          Isotropic Fermi Contact Couplings
        Atom                 a.u.       MegaHertz       Gauss      10(-4) cm-1
     1  C(13)              0.00000       0.00000       0.00000       0.00000
     2  S(33)             -0.00000      -0.00000      -0.00000      -0.00000
     3  H(1)              -0.00000      -0.00002      -0.00001      -0.00001
     4  H(1)               0.00000       0.00002       0.00001       0.00001
 --------------------------------------------------------
       Center         ----  Spin Dipole Couplings  ----
                      3XX-RR        3YY-RR        3ZZ-RR
 --------------------------------------------------------
     1   Atom        0.000000     -0.000000     -0.000000
     2   Atom        0.000000     -0.000000      0.000000
     3   Atom        0.000000     -0.000000     -0.000000
     4   Atom       -0.000000      0.000000      0.000000
 --------------------------------------------------------
                        XY            XZ            YZ
 --------------------------------------------------------
     1   Atom       -0.000000     -0.000000     -0.000000
     2   Atom        0.000045     -0.000022      0.000000
     3   Atom       -0.000000     -0.000000      0.000000
     4   Atom       -0.000000     -0.000000     -0.000000
 --------------------------------------------------------


 ---------------------------------------------------------------------------------
              Anisotropic Spin Dipole Couplings in Principal Axis System
 ---------------------------------------------------------------------------------

       Atom             a.u.   MegaHertz   Gauss  10(-4) cm-1        Axes

              Baa    -0.0000    -0.000    -0.000    -0.000  0.7070  0.0881  0.7017
     1 C(13)  Bbb    -0.0000    -0.000    -0.000    -0.000 -0.0004  0.9923 -0.1242
              Bcc     0.0000     0.000     0.000     0.000  0.7072 -0.0875 -0.7016
 
              Baa    -0.0000    -0.002    -0.001    -0.001  0.7070 -0.6359  0.3093
     2 S(33)  Bbb     0.0000     0.000     0.000     0.000  0.0001  0.4375  0.8992
              Bcc     0.0000     0.002     0.001     0.001  0.7072  0.6358 -0.3093
 
              Baa    -0.0000    -0.000    -0.000    -0.000 -0.1886  0.7640 -0.6170
     3 H(1)   Bbb    -0.0000    -0.000    -0.000    -0.000  0.5654  0.5982  0.5679
              Bcc     0.0000     0.000     0.000     0.000  0.8030 -0.2417 -0.5448
 
              Baa    -0.0000    -0.000    -0.000    -0.000  0.8024  0.2427  0.5452
     4 H(1)   Bbb     0.0000     0.000     0.000     0.000 -0.5666  0.5967  0.5682
              Bcc     0.0000     0.000     0.000     0.000  0.1874  0.7649 -0.6163
 

 ---------------------------------------------------------------------------------

 No NMR shielding tensors so no spin-rotation constants.
 Leave Link  601 at Mon Apr 21 19:45:15 2025, MaxMem=   536870912 cpu:               2.2 elap:               0.3
 (Enter /home/szhao/Apps/g16/l9999.exe)
 1\1\GINC-NODE05\FOpt\UM062X\6-311+G(d,p)\C1H2S1\SZHAO\21-Apr-2025\0\\#
 p opt UM062X/6-311+G** nosymm int=superfine\\Title Card Required\\0,1\
 C,-1.67713956,0.,0.\S,1.67713956,0.,0.\H,-2.3333010241,-0.8848370197,0
 .0000657291\H,-2.3341016306,0.8842429697,-0.0000670218\\Version=ES64L-
 G16RevA.03\HF=-437.1767229\S2=0.\S2-1=0.\S2A=0.\RMSD=8.529e-09\RMSF=7.
 845e-07\Dipole=-1.4775463,-0.0003308,-0.0000008\Quadrupole=5.1225753,-
 2.6829462,-2.4396291,-0.0000142,-0.0000013,0.0000183\PG=C01 [X(C1H2S1)
 ]\\@


 The theorems and results in mathematical physics are
 not theorems and results about Nature, but about our
 description of it.
                   --Gerard 't Hooft
 Job cpu time:       0 days  0 hours  6 minutes 29.7 seconds.
 Elapsed time:       0 days  0 hours  0 minutes 55.9 seconds.
 File lengths (MBytes):  RWF=     22 Int=      0 D2E=      0 Chk=      2 Scr=      2
 Normal termination of Gaussian 16 at Mon Apr 21 19:45:16 2025.
