 Entering Gaussian System, Link 0=g16
 Initial command:
 /home/szhao/Apps/g16/l1.exe "/home/szhao/tmp/Gau-68289.inp" -scrdir="/home/szhao/tmp/"
 Default is to use a total of  16 processors:
                               16 via shared-memory
                                1 via Linda
 Entering Link 1 = /home/szhao/Apps/g16/l1.exe PID=     68290.
  
 Copyright (c) 1988,1990,1992,1993,1995,1998,2003,2009,2016,
            Gaussian, Inc.  All Rights Reserved.
  
 This is part of the Gaussian(R) 16 program.  It is based on
 the Gaussian(R) 09 system (copyright 2009, Gaussian, Inc.),
 the Gaussian(R) 03 system (copyright 2003, Gaussian, Inc.),
 the Gaussian(R) 98 system (copyright 1998, Gaussian, Inc.),
 the Gaussian(R) 94 system (copyright 1995, Gaussian, Inc.),
 the Gaussian 92(TM) system (copyright 1992, Gaussian, Inc.),
 the Gaussian 90(TM) system (copyright 1990, Gaussian, Inc.),
 the Gaussian 88(TM) system (copyright 1988, Gaussian, Inc.),
 the Gaussian 86(TM) system (copyright 1986, Carnegie Mellon
 University), and the Gaussian 82(TM) system (copyright 1983,
 Carnegie Mellon University). Gaussian is a federally registered
 trademark of Gaussian, Inc.
  
 This software contains proprietary and confidential information,
 including trade secrets, belonging to Gaussian, Inc.
  
 This software is provided under written license and may be
 used, copied, transmitted, or stored only in accord with that
 written license.
  
 The following legend is applicable only to US Government
 contracts under FAR:
  
                    RESTRICTED RIGHTS LEGEND
  
 Use, reproduction and disclosure by the US Government is
 subject to restrictions as set forth in subparagraphs (a)
 and (c) of the Commercial Computer Software - Restricted
 Rights clause in FAR 52.227-19.
  
 Gaussian, Inc.
 340 Quinnipiac St., Bldg. 40, Wallingford CT 06492
  
  
 ---------------------------------------------------------------
 Warning -- This program may not be used in any manner that
 competes with the business of Gaussian, Inc. or will provide
 assistance to any competitor of Gaussian, Inc.  The licensee
 of this program is prohibited from giving any competitor of
 Gaussian, Inc. access to this program.  By using this program,
 the user acknowledges that Gaussian, Inc. is engaged in the
 business of creating and licensing software in the field of
 computational chemistry and represents and warrants to the
 licensee that it is not a competitor of Gaussian, Inc. and that
 it will not use this program in any manner prohibited above.
 ---------------------------------------------------------------
  

 Cite this work as:
 Gaussian 16, Revision A.03,
 M. J. Frisch, G. W. Trucks, H. B. Schlegel, G. E. Scuseria, 
 M. A. Robb, J. R. Cheeseman, G. Scalmani, V. Barone, 
 G. A. Petersson, H. Nakatsuji, X. Li, M. Caricato, A. V. Marenich, 
 J. Bloino, B. G. Janesko, R. Gomperts, B. Mennucci, H. P. Hratchian, 
 J. V. Ortiz, A. F. Izmaylov, J. L. Sonnenberg, D. Williams-Young, 
 F. Ding, F. Lipparini, F. Egidi, J. Goings, B. Peng, A. Petrone, 
 T. Henderson, D. Ranasinghe, V. G. Zakrzewski, J. Gao, N. Rega, 
 G. Zheng, W. Liang, M. Hada, M. Ehara, K. Toyota, R. Fukuda, 
 J. Hasegawa, M. Ishida, T. Nakajima, Y. Honda, O. Kitao, H. Nakai, 
 T. Vreven, K. Throssell, J. A. Montgomery, Jr., J. E. Peralta, 
 F. Ogliaro, M. J. Bearpark, J. J. Heyd, E. N. Brothers, K. N. Kudin, 
 V. N. Staroverov, T. A. Keith, R. Kobayashi, J. Normand, 
 K. Raghavachari, A. P. Rendell, J. C. Burant, S. S. Iyengar, 
 J. Tomasi, M. Cossi, J. M. Millam, M. Klene, C. Adamo, R. Cammi, 
 J. W. Ochterski, R. L. Martin, K. Morokuma, O. Farkas, 
 J. B. Foresman, and D. J. Fox, Gaussian, Inc., Wallingford CT, 2016.
 
 ******************************************
 Gaussian 16:  ES64L-G16RevA.03 25-Dec-2016
                21-Apr-2025 
 ******************************************
 %chk=opt.chk
 %mem=4GB
 %nprocshared=8
 Will use up to    8 processors via shared memory.
 --------------------------------------------
 #p opt UM062X/6-311+G** nosymm int=superfine
 --------------------------------------------
 1/18=20,19=15,26=5,38=1/1,3;
 2/9=110,12=2,15=1,17=6,18=5,40=1/2;
 3/5=4,6=6,7=111,11=2,25=1,30=1,71=1,74=-55,75=-7,116=2/1,2,3;
 4//1;
 5/5=2,38=5/2;
 6/7=2,8=2,9=2,10=2,28=1/1;
 7/30=1/1,2,3,16;
 1/18=20,19=15,26=5/3(2);
 2/9=110,15=1/2;
 99//99;
 2/9=110,15=1/2;
 3/5=4,6=6,7=111,11=2,25=1,30=1,71=1,74=-55,75=-7,116=2/1,2,3;
 4/5=5,16=3,69=1/1;
 5/5=2,38=5/2;
 7/30=1/1,2,3,16;
 1/18=20,19=15,26=5/3(-5);
 2/9=110,15=1/2;
 6/7=2,8=2,9=2,10=2,19=2,28=1/1;
 99/9=1/99;
 Leave Link    1 at Mon Apr 21 20:51:44 2025, MaxMem=   536870912 cpu:               1.0 elap:               0.1
 (Enter /home/szhao/Apps/g16/l101.exe)
 -------------------
 Title Card Required
 -------------------
 Symbolic Z-matrix:
 Charge =  0 Multiplicity = 1
 P                    -1   -2.14222   0.        0. 
 P                    -1    2.14222   0.        0. 
 H                    0     2.25905  -1.40926   0. 
 H                    0    -2.25907   1.39816  -0.17652 
 H                    0     2.38226   0.11794  -1.3898 
 H                    0    -2.38227  -0.2911   -1.36408 
 
 Add virtual bond connecting atoms P2         and P1         Dist= 8.10D+00.
 ITRead=  2  2  0  0  0  0
 MicOpt= -2 -2 -1 -1 -1 -1
 NAtoms=      6 NQM=        4 NQMF=       2 NMMI=      0 NMMIF=      0
                NMic=       0 NMicF=      0.
                    Isotopes and Nuclear Properties:
 (Nuclear quadrupole moments (NQMom) in fm**2, nuclear magnetic moments (NMagM)
  in nuclear magnetons)

  Atom         1           2           3           4           5           6
 IAtWgt=          31          31           1           1           1           1
 AtmWgt=  30.9737634  30.9737634   1.0078250   1.0078250   1.0078250   1.0078250
 NucSpn=           1           1           1           1           1           1
 AtZEff=  -0.0000000  -0.0000000  -0.0000000  -0.0000000  -0.0000000  -0.0000000
 NQMom=    0.0000000   0.0000000   0.0000000   0.0000000   0.0000000   0.0000000
 NMagM=    1.1316000   1.1316000   2.7928460   2.7928460   2.7928460   2.7928460
 AtZNuc=  15.0000000  15.0000000   1.0000000   1.0000000   1.0000000   1.0000000
 Leave Link  101 at Mon Apr 21 20:51:44 2025, MaxMem=   536870912 cpu:               3.3 elap:               0.4
 (Enter /home/szhao/Apps/g16/l103.exe)

 GradGradGradGradGradGradGradGradGradGradGradGradGradGradGradGradGradGrad
 Berny optimization.
 Initialization pass.
                           ----------------------------
                           !    Initial Parameters    !
                           ! (Angstroms and Degrees)  !
 --------------------------                            --------------------------
 ! Name  Definition              Value          Derivative Info.                !
 --------------------------------------------------------------------------------
 ! X1    R(1,-1)                -2.1422         Frozen                          !
 ! Y1    R(1,-2)                 0.0            Frozen                          !
 ! Z1    R(1,-3)                 0.0            Frozen                          !
 ! X2    R(2,-1)                 2.1422         Frozen                          !
 ! Y2    R(2,-2)                 0.0            Frozen                          !
 ! Z2    R(2,-3)                 0.0            Frozen                          !
 ! R1    R(1,4)                  1.4141         estimate D2E/DX2                !
 ! R2    R(1,6)                  1.4153         estimate D2E/DX2                !
 ! R3    R(2,3)                  1.4141         estimate D2E/DX2                !
 ! R4    R(2,5)                  1.4153         estimate D2E/DX2                !
 ! A1    A(2,1,4)               94.74           estimate D2E/DX2                !
 ! A2    A(2,1,6)               99.7651         estimate D2E/DX2                !
 ! A3    A(4,1,6)               93.9586         estimate D2E/DX2                !
 ! A4    A(1,2,3)               94.7393         estimate D2E/DX2                !
 ! A5    A(1,2,5)               99.7651         estimate D2E/DX2                !
 ! A6    A(3,2,5)               93.9584         estimate D2E/DX2                !
 ! D1    D(4,1,2,3)           -172.8043         estimate D2E/DX2                !
 ! D2    D(4,1,2,5)            -77.9538         estimate D2E/DX2                !
 ! D3    D(6,1,2,3)            -77.9535         estimate D2E/DX2                !
 ! D4    D(6,1,2,5)             16.897          estimate D2E/DX2                !
 --------------------------------------------------------------------------------
 Trust Radius=3.00D-01 FncErr=1.00D-07 GrdErr=1.00D-07 EigMax=2.50D+02 EigMin=1.00D-04
 Number of steps in this run=     30 maximum allowed number of steps=    100.
 GradGradGradGradGradGradGradGradGradGradGradGradGradGradGradGradGradGrad

 Leave Link  103 at Mon Apr 21 20:51:44 2025, MaxMem=   536870912 cpu:               0.1 elap:               0.0
 (Enter /home/szhao/Apps/g16/l202.exe)
                          Input orientation:                          
 ---------------------------------------------------------------------
 Center     Atomic      Atomic             Coordinates (Angstroms)
 Number     Number       Type             X           Y           Z
 ---------------------------------------------------------------------
      1         15           0       -2.142217    0.000000    0.000000
      2         15           0        2.142217    0.000000    0.000000
      3          1           0        2.259053   -1.409264    0.000000
      4          1           0       -2.259069    1.398163   -0.176523
      5          1           0        2.382265    0.117937   -1.389802
      6          1           0       -2.382265   -0.291103   -1.364082
 ---------------------------------------------------------------------
                    Distance matrix (angstroms):
                    1          2          3          4          5
     1  P    0.000000
     2  P    4.284433   0.000000
     3  H    4.621385   1.414099   0.000000
     4  H    1.414098   4.621399   5.322239   0.000000
     5  H    4.734595   1.415303   2.068593   4.965179   0.000000
     6  H    1.415303   4.734595   4.965162   2.068596   4.782125
                    6
     6  H    0.000000
 Symmetry turned off by external request.
 Stoichiometry    H4P2
 Framework group  C1[X(H4P2)]
 Deg. of freedom    12
 Full point group                 C1      NOp   1
 Rotational constants (GHZ):          65.6805772           1.6311721           1.6298308
 Leave Link  202 at Mon Apr 21 20:51:45 2025, MaxMem=   536870912 cpu:               0.1 elap:               0.0
 (Enter /home/szhao/Apps/g16/l301.exe)
 Standard basis: 6-311+G(d,p) (5D, 7F)
 Ernie: Thresh=  0.10000D-02 Tol=  0.10000D-05 Strict=F.
    84 basis functions,   132 primitive gaussians,    86 cartesian basis functions
    17 alpha electrons       17 beta electrons
       nuclear repulsion energy        57.9565654146 Hartrees.
 IExCor= 4336 DFT=T Ex+Corr=M062X ExCW=0 ScaHFX=  0.540000
 ScaDFX=  1.000000  1.000000  1.000000  1.000000 ScalE2=  1.000000  1.000000
 IRadAn=      7 IRanWt=     -1 IRanGd=            0 ICorTp=0 IEmpDi=  4
 NAtoms=    6 NActive=    6 NUniq=    6 SFac= 1.00D+00 NAtFMM=   60 NAOKFM=F Big=F
 Integral buffers will be    131072 words long.
 Raffenetti 2 integral format.
 Two-electron integral symmetry is turned off.
 Leave Link  301 at Mon Apr 21 20:51:45 2025, MaxMem=   536870912 cpu:               0.9 elap:               0.2
 (Enter /home/szhao/Apps/g16/l302.exe)
 NPDir=0 NMtPBC=     1 NCelOv=     1 NCel=       1 NClECP=     1 NCelD=      1
         NCelK=      1 NCelE2=     1 NClLst=     1 CellRange=     0.0.
 One-electron integrals computed using PRISM.
 NBasis=    84 RedAO= T EigKep=  6.40D-03  NBF=    84
 NBsUse=    84 1.00D-06 EigRej= -1.00D+00 NBFU=    84
 Precomputing XC quadrature grid using
 IXCGrd= 4 IRadAn=           7 IRanWt=          -1 IRanGd=           0 AccXCQ= 0.00D+00.
 Generated NRdTot=       0 NPtTot=           0 NUsed=           0 NTot=          32
 NSgBfM=    79    79    79    79    79 MxSgAt=     6 MxSgA2=     6.
 Leave Link  302 at Mon Apr 21 20:51:45 2025, MaxMem=   536870912 cpu:               2.5 elap:               0.4
 (Enter /home/szhao/Apps/g16/l303.exe)
 DipDrv:  MaxL=1.
 Leave Link  303 at Mon Apr 21 20:51:46 2025, MaxMem=   536870912 cpu:               0.5 elap:               0.1
 (Enter /home/szhao/Apps/g16/l401.exe)
 ExpMin= 3.48D-02 ExpMax= 7.75D+04 ExpMxC= 2.65D+03 IAcc=3 IRadAn=         7 AccDes= 0.00D+00
 Harris functional with IExCor= 1009 and IRadAn=       7 diagonalized for initial guess.
 HarFok:  IExCor= 1009 AccDes= 0.00D+00 IRadAn=         7 IDoV= 1 UseB2=F ITyADJ=14
 ICtDFT=  3500011 ScaDFX=  1.000000  1.000000  1.000000  1.000000
 FoFCou: FMM=F IPFlag=           0 FMFlag=      100000 FMFlg1=           0
         NFxFlg=           0 DoJE=T BraDBF=F KetDBF=T FulRan=T
         wScrn=  0.000000 ICntrl=       500 IOpCl=  0 I1Cent=   200000004 NGrid=           0
         NMat0=    1 NMatS0=      1 NMatT0=    0 NMatD0=    1 NMtDS0=    0 NMtDT0=    0
 Symmetry not used in FoFCou.
 Harris En= -684.649888353583    
 JPrj=0 DoOrth=F DoCkMO=F.
 Initial guess <Sx>= 0.0000 <Sy>= 0.0000 <Sz>= 0.0000 <S**2>=-0.0000 S=-0.0000
 Leave Link  401 at Mon Apr 21 20:51:46 2025, MaxMem=   536870912 cpu:               4.1 elap:               0.6
 (Enter /home/szhao/Apps/g16/l502.exe)
 Keep R1 and R2 ints in memory in canonical form, NReq=20057634.
 FoFCou: FMM=F IPFlag=           0 FMFlag=           0 FMFlg1=           0
         NFxFlg=           0 DoJE=F BraDBF=F KetDBF=F FulRan=T
         wScrn=  0.000000 ICntrl=       600 IOpCl=  0 I1Cent=           0 NGrid=           0
         NMat0=    1 NMatS0=   3570 NMatT0=    0 NMatD0=    1 NMtDS0=    0 NMtDT0=    0
 Symmetry not used in FoFCou.
 Two-electron integral symmetry not used.
 UHF open shell SCF:
 Using DIIS extrapolation, IDIIS=  1040.
 NGot=   536870912 LenX=   524106186 LenY=   524098349
 Requested convergence on RMS density matrix=1.00D-08 within 128 cycles.
 Requested convergence on MAX density matrix=1.00D-06.
 Requested convergence on             energy=1.00D-06.
 No special actions if energy rises.

 Cycle   1  Pass 1  IDiag  1:
 E= -684.905544741160    
 DIIS: error= 2.10D-02 at cycle   1 NSaved=   1.
 NSaved= 1 IEnMin= 1 EnMin= -684.905544741160     IErMin= 1 ErrMin= 2.10D-02
 ErrMax= 2.10D-02  0.00D+00 EMaxC= 1.00D-01 BMatC= 2.17D-01 BMatP= 2.17D-01
 IDIUse=3 WtCom= 7.90D-01 WtEn= 2.10D-01
 Coeff-Com:  0.100D+01
 Coeff-En:   0.100D+01
 Coeff:      0.100D+01
 Gap=     0.097 Goal=   None    Shift=    0.000
 Gap=     0.097 Goal=   None    Shift=    0.000
 GapD=    0.097 DampG=0.500 DampE=0.500 DampFc=0.2500 IDamp=-1.
 Damping current iteration by 2.50D-01
 RMSDP=1.48D-03 MaxDP=1.83D-02              OVMax= 3.41D-02

 Cycle   2  Pass 1  IDiag  1:
 E= -684.910073938943     Delta-E=       -0.004529197783 Rises=F Damp=T
 DIIS: error= 1.56D-02 at cycle   2 NSaved=   2.
 NSaved= 2 IEnMin= 2 EnMin= -684.910073938943     IErMin= 2 ErrMin= 1.56D-02
 ErrMax= 1.56D-02  0.00D+00 EMaxC= 1.00D-01 BMatC= 1.07D-01 BMatP= 2.17D-01
 IDIUse=3 WtCom= 8.44D-01 WtEn= 1.56D-01
 Coeff-Com: -0.226D+01 0.326D+01
 Coeff-En:   0.000D+00 0.100D+01
 Coeff:     -0.191D+01 0.291D+01
 Gap=     0.098 Goal=   None    Shift=    0.000
 Gap=     0.098 Goal=   None    Shift=    0.000
 RMSDP=1.11D-03 MaxDP=1.11D-02 DE=-4.53D-03 OVMax= 8.13D-03

 Cycle   3  Pass 1  IDiag  1:
 E= -684.922321636447     Delta-E=       -0.012247697505 Rises=F Damp=F
 DIIS: error= 3.20D-04 at cycle   3 NSaved=   3.
 NSaved= 3 IEnMin= 3 EnMin= -684.922321636447     IErMin= 3 ErrMin= 3.20D-04
 ErrMax= 3.20D-04  0.00D+00 EMaxC= 1.00D-01 BMatC= 6.53D-05 BMatP= 1.07D-01
 IDIUse=3 WtCom= 9.97D-01 WtEn= 3.20D-03
 Coeff-Com:  0.928D-02-0.988D-02 0.100D+01
 Coeff-En:   0.000D+00 0.000D+00 0.100D+01
 Coeff:      0.925D-02-0.985D-02 0.100D+01
 Gap=     0.098 Goal=   None    Shift=    0.000
 Gap=     0.098 Goal=   None    Shift=    0.000
 RMSDP=1.39D-04 MaxDP=3.21D-03 DE=-1.22D-02 OVMax= 4.80D-03

 Cycle   4  Pass 1  IDiag  1:
 E= -684.922357143813     Delta-E=       -0.000035507366 Rises=F Damp=F
 DIIS: error= 1.97D-04 at cycle   4 NSaved=   4.
 NSaved= 4 IEnMin= 4 EnMin= -684.922357143813     IErMin= 4 ErrMin= 1.97D-04
 ErrMax= 1.97D-04  0.00D+00 EMaxC= 1.00D-01 BMatC= 1.28D-05 BMatP= 6.53D-05
 IDIUse=3 WtCom= 9.98D-01 WtEn= 1.97D-03
 Coeff-Com:  0.581D-01-0.798D-01 0.207D+00 0.815D+00
 Coeff-En:   0.000D+00 0.000D+00 0.000D+00 0.100D+01
 Coeff:      0.580D-01-0.797D-01 0.207D+00 0.815D+00
 Gap=     0.098 Goal=   None    Shift=    0.000
 Gap=     0.098 Goal=   None    Shift=    0.000
 RMSDP=4.31D-05 MaxDP=9.07D-04 DE=-3.55D-05 OVMax= 1.88D-03

 Cycle   5  Pass 1  IDiag  1:
 E= -684.922363698061     Delta-E=       -0.000006554248 Rises=F Damp=F
 DIIS: error= 4.46D-05 at cycle   5 NSaved=   5.
 NSaved= 5 IEnMin= 5 EnMin= -684.922363698061     IErMin= 5 ErrMin= 4.46D-05
 ErrMax= 4.46D-05  0.00D+00 EMaxC= 1.00D-01 BMatC= 1.03D-06 BMatP= 1.28D-05
 IDIUse=1 WtCom= 1.00D+00 WtEn= 0.00D+00
 Coeff-Com: -0.142D-01 0.190D-01-0.105D+00-0.297D-01 0.113D+01
 Coeff:     -0.142D-01 0.190D-01-0.105D+00-0.297D-01 0.113D+01
 Gap=     0.098 Goal=   None    Shift=    0.000
 Gap=     0.098 Goal=   None    Shift=    0.000
 RMSDP=2.33D-05 MaxDP=2.86D-04 DE=-6.55D-06 OVMax= 1.41D-03

 Cycle   6  Pass 1  IDiag  1:
 E= -684.922364905281     Delta-E=       -0.000001207221 Rises=F Damp=F
 DIIS: error= 2.39D-05 at cycle   6 NSaved=   6.
 NSaved= 6 IEnMin= 6 EnMin= -684.922364905281     IErMin= 6 ErrMin= 2.39D-05
 ErrMax= 2.39D-05  0.00D+00 EMaxC= 1.00D-01 BMatC= 1.63D-07 BMatP= 1.03D-06
 IDIUse=1 WtCom= 1.00D+00 WtEn= 0.00D+00
 Coeff-Com: -0.680D-02 0.924D-02-0.419D-01-0.506D-01 0.293D+00 0.797D+00
 Coeff:     -0.680D-02 0.924D-02-0.419D-01-0.506D-01 0.293D+00 0.797D+00
 Gap=     0.099 Goal=   None    Shift=    0.000
 Gap=     0.099 Goal=   None    Shift=    0.000
 RMSDP=1.03D-05 MaxDP=2.97D-04 DE=-1.21D-06 OVMax= 8.25D-04

 Cycle   7  Pass 1  IDiag  1:
 E= -684.922364712089     Delta-E=        0.000000193192 Rises=F Damp=F
 DIIS: error= 5.90D-05 at cycle   7 NSaved=   7.
 NSaved= 7 IEnMin= 6 EnMin= -684.922364905281     IErMin= 6 ErrMin= 2.39D-05
 ErrMax= 5.90D-05  0.00D+00 EMaxC= 1.00D-01 BMatC= 6.65D-07 BMatP= 1.63D-07
 IDIUse=1 WtCom= 1.00D+00 WtEn= 0.00D+00
 Coeff-Com: -0.209D-02 0.295D-02-0.831D-02-0.395D-01-0.661D-01 0.776D+00
 Coeff-Com:  0.337D+00
 Coeff:     -0.209D-02 0.295D-02-0.831D-02-0.395D-01-0.661D-01 0.776D+00
 Coeff:      0.337D+00
 Gap=     0.099 Goal=   None    Shift=    0.000
 Gap=     0.099 Goal=   None    Shift=    0.000
 RMSDP=7.15D-06 MaxDP=2.14D-04 DE= 1.93D-07 OVMax= 6.19D-04

 Cycle   8  Pass 1  IDiag  1:
 E= -684.922365079727     Delta-E=       -0.000000367638 Rises=F Damp=F
 DIIS: error= 3.60D-06 at cycle   8 NSaved=   8.
 NSaved= 8 IEnMin= 8 EnMin= -684.922365079727     IErMin= 8 ErrMin= 3.60D-06
 ErrMax= 3.60D-06  0.00D+00 EMaxC= 1.00D-01 BMatC= 4.94D-09 BMatP= 1.63D-07
 IDIUse=1 WtCom= 1.00D+00 WtEn= 0.00D+00
 Coeff-Com:  0.959D-03-0.128D-02 0.703D-02 0.244D-02-0.628D-01-0.965D-01
 Coeff-Com:  0.309D-01 0.112D+01
 Coeff:      0.959D-03-0.128D-02 0.703D-02 0.244D-02-0.628D-01-0.965D-01
 Coeff:      0.309D-01 0.112D+01
 Gap=     0.099 Goal=   None    Shift=    0.000
 Gap=     0.099 Goal=   None    Shift=    0.000
 RMSDP=1.54D-06 MaxDP=1.85D-05 DE=-3.68D-07 OVMax= 1.17D-04

 Cycle   9  Pass 1  IDiag  1:
 E= -684.922365085753     Delta-E=       -0.000000006026 Rises=F Damp=F
 DIIS: error= 6.80D-07 at cycle   9 NSaved=   9.
 NSaved= 9 IEnMin= 9 EnMin= -684.922365085753     IErMin= 9 ErrMin= 6.80D-07
 ErrMax= 6.80D-07  0.00D+00 EMaxC= 1.00D-01 BMatC= 9.54D-11 BMatP= 4.94D-09
 IDIUse=1 WtCom= 1.00D+00 WtEn= 0.00D+00
 Coeff-Com:  0.106D-03-0.148D-03 0.749D-03 0.259D-02 0.219D-02-0.505D-01
 Coeff-Com: -0.148D-01 0.118D+00 0.942D+00
 Coeff:      0.106D-03-0.148D-03 0.749D-03 0.259D-02 0.219D-02-0.505D-01
 Coeff:     -0.148D-01 0.118D+00 0.942D+00
 Gap=     0.099 Goal=   None    Shift=    0.000
 Gap=     0.099 Goal=   None    Shift=    0.000
 RMSDP=1.74D-07 MaxDP=1.77D-06 DE=-6.03D-09 OVMax= 7.81D-06

 Cycle  10  Pass 1  IDiag  1:
 E= -684.922365085825     Delta-E=       -0.000000000072 Rises=F Damp=F
 DIIS: error= 1.13D-07 at cycle  10 NSaved=  10.
 NSaved=10 IEnMin=10 EnMin= -684.922365085825     IErMin=10 ErrMin= 1.13D-07
 ErrMax= 1.13D-07  0.00D+00 EMaxC= 1.00D-01 BMatC= 3.81D-12 BMatP= 9.54D-11
 IDIUse=1 WtCom= 1.00D+00 WtEn= 0.00D+00
 Coeff-Com: -0.612D-06-0.223D-06 0.939D-06 0.250D-03 0.885D-03-0.604D-02
 Coeff-Com: -0.321D-02-0.101D-01 0.125D+00 0.893D+00
 Coeff:     -0.612D-06-0.223D-06 0.939D-06 0.250D-03 0.885D-03-0.604D-02
 Coeff:     -0.321D-02-0.101D-01 0.125D+00 0.893D+00
 Gap=     0.099 Goal=   None    Shift=    0.000
 Gap=     0.099 Goal=   None    Shift=    0.000
 RMSDP=4.28D-08 MaxDP=6.56D-07 DE=-7.21D-11 OVMax= 2.20D-06

 Cycle  11  Pass 1  IDiag  1:
 E= -684.922365085827     Delta-E=       -0.000000000002 Rises=F Damp=F
 DIIS: error= 3.14D-08 at cycle  11 NSaved=  11.
 NSaved=11 IEnMin=11 EnMin= -684.922365085827     IErMin=11 ErrMin= 3.14D-08
 ErrMax= 3.14D-08  0.00D+00 EMaxC= 1.00D-01 BMatC= 3.10D-13 BMatP= 3.81D-12
 IDIUse=1 WtCom= 1.00D+00 WtEn= 0.00D+00
 Coeff-Com: -0.930D-05 0.130D-04-0.568D-04-0.228D-03-0.136D-03 0.470D-02
 Coeff-Com:  0.131D-02-0.121D-01-0.715D-01 0.147D+00 0.931D+00
 Coeff:     -0.930D-05 0.130D-04-0.568D-04-0.228D-03-0.136D-03 0.470D-02
 Coeff:      0.131D-02-0.121D-01-0.715D-01 0.147D+00 0.931D+00
 Gap=     0.099 Goal=   None    Shift=    0.000
 Gap=     0.099 Goal=   None    Shift=    0.000
 RMSDP=9.42D-09 MaxDP=1.52D-07 DE=-1.82D-12 OVMax= 4.29D-07

 SCF Done:  E(UM062X) =  -684.922365086     A.U. after   11 cycles
            NFock= 11  Conv=0.94D-08     -V/T= 2.0015
 <Sx>= 0.0000 <Sy>= 0.0000 <Sz>= 0.0000 <S**2>= 0.0000 S= 0.0000
 <L.S>=  0.00000000000    
 KE= 6.838837483095D+02 PE=-1.745188840848D+03 EE= 3.184261620386D+02
 Annihilation of the first spin contaminant:
 S**2 before annihilation     0.0000,   after     0.0000
 Leave Link  502 at Mon Apr 21 20:51:56 2025, MaxMem=   536870912 cpu:              69.1 elap:               9.1
 (Enter /home/szhao/Apps/g16/l601.exe)
 Copying SCF densities to generalized density rwf, IOpCl= 1 IROHF=0.

 **********************************************************************

            Population analysis using the SCF density.

 **********************************************************************

 Alpha  occ. eigenvalues --  -78.04936 -78.04935  -6.87339  -6.87338  -4.98887
 Alpha  occ. eigenvalues --   -4.98886  -4.98765  -4.98764  -4.98575  -4.98575
 Alpha  occ. eigenvalues --   -0.71267  -0.70918  -0.45525  -0.45500  -0.36025
 Alpha  occ. eigenvalues --   -0.35582  -0.24553
 Alpha virt. eigenvalues --   -0.14701   0.01550   0.02784   0.03540   0.03758
 Alpha virt. eigenvalues --    0.05650   0.05878   0.06059   0.06272   0.06417
 Alpha virt. eigenvalues --    0.08176   0.13034   0.18108   0.28994   0.29077
 Alpha virt. eigenvalues --    0.30617   0.31367   0.31674   0.33883   0.37157
 Alpha virt. eigenvalues --    0.38889   0.44603   0.48168   0.55417   0.61954
 Alpha virt. eigenvalues --    0.64222   0.64232   0.67160   0.67172   0.68365
 Alpha virt. eigenvalues --    0.68934   0.87085   0.87733   0.95917   0.96049
 Alpha virt. eigenvalues --    1.37304   1.37481   1.44029   1.44029   1.47214
 Alpha virt. eigenvalues --    1.48648   1.49294   1.51551   1.60047   1.60739
 Alpha virt. eigenvalues --    1.61037   1.65949   1.67676   1.67836   2.00450
 Alpha virt. eigenvalues --    2.02523   2.12237   2.12627   2.55333   2.56350
 Alpha virt. eigenvalues --    2.63597   2.66768   6.98705   7.01891  13.99156
 Alpha virt. eigenvalues --   14.00661  14.03044  14.03255  14.04419  14.04457
 Alpha virt. eigenvalues --  163.25494 163.29339
  Beta  occ. eigenvalues --  -78.04936 -78.04935  -6.87339  -6.87338  -4.98887
  Beta  occ. eigenvalues --   -4.98886  -4.98765  -4.98764  -4.98575  -4.98575
  Beta  occ. eigenvalues --   -0.71267  -0.70918  -0.45525  -0.45500  -0.36025
  Beta  occ. eigenvalues --   -0.35582  -0.24553
  Beta virt. eigenvalues --   -0.14701   0.01550   0.02784   0.03540   0.03758
  Beta virt. eigenvalues --    0.05650   0.05878   0.06059   0.06272   0.06417
  Beta virt. eigenvalues --    0.08176   0.13034   0.18108   0.28994   0.29077
  Beta virt. eigenvalues --    0.30617   0.31367   0.31674   0.33883   0.37157
  Beta virt. eigenvalues --    0.38889   0.44603   0.48168   0.55417   0.61954
  Beta virt. eigenvalues --    0.64222   0.64232   0.67160   0.67172   0.68365
  Beta virt. eigenvalues --    0.68934   0.87085   0.87733   0.95917   0.96049
  Beta virt. eigenvalues --    1.37304   1.37481   1.44029   1.44029   1.47214
  Beta virt. eigenvalues --    1.48648   1.49294   1.51551   1.60047   1.60739
  Beta virt. eigenvalues --    1.61037   1.65949   1.67676   1.67836   2.00450
  Beta virt. eigenvalues --    2.02523   2.12237   2.12627   2.55333   2.56350
  Beta virt. eigenvalues --    2.63597   2.66768   6.98705   7.01891  13.99156
  Beta virt. eigenvalues --   14.00661  14.03044  14.03255  14.04419  14.04457
  Beta virt. eigenvalues --  163.25494 163.29339
          Condensed to atoms (all electrons):
               1          2          3          4          5          6
     1  P   14.361679   0.117345  -0.002098   0.260797  -0.001732   0.255736
     2  P    0.117345  14.361675   0.260797  -0.002098   0.255739  -0.001731
     3  H   -0.002098   0.260797   0.763699   0.000041  -0.020301   0.000057
     4  H    0.260797  -0.002098   0.000041   0.763701   0.000057  -0.020301
     5  H   -0.001732   0.255739  -0.020301   0.000057   0.772247   0.000070
     6  H    0.255736  -0.001731   0.000057  -0.020301   0.000070   0.772250
          Atomic-Atomic Spin Densities.
               1          2          3          4          5          6
     1  P    0.000000  -0.000000  -0.000000  -0.000000   0.000000  -0.000000
     2  P   -0.000000  -0.000000  -0.000000   0.000000  -0.000000   0.000000
     3  H   -0.000000  -0.000000   0.000000  -0.000000   0.000000   0.000000
     4  H   -0.000000   0.000000  -0.000000   0.000000  -0.000000   0.000000
     5  H    0.000000  -0.000000   0.000000  -0.000000   0.000000  -0.000000
     6  H   -0.000000   0.000000   0.000000   0.000000  -0.000000   0.000000
 Mulliken charges and spin densities:
               1          2
     1  P    0.008274   0.000000
     2  P    0.008274  -0.000000
     3  H   -0.002193   0.000000
     4  H   -0.002195  -0.000000
     5  H   -0.006079   0.000000
     6  H   -0.006079   0.000000
 Sum of Mulliken charges =   0.00000   0.00000
 Mulliken charges and spin densities with hydrogens summed into heavy atoms:
               1          2
     1  P   -0.000001   0.000000
     2  P    0.000001  -0.000000
 Electronic spatial extent (au):  <R**2>=            661.2426
 Charge=              0.0000 electrons
 Dipole moment (field-independent basis, Debye):
    X=             -0.0000    Y=             -0.0814    Z=             -1.2953  Tot=              1.2979
 Quadrupole moment (field-independent basis, Debye-Ang):
   XX=            -26.7294   YY=            -29.6287   ZZ=            -30.4550
   XY=             -2.7520   XZ=              0.1731   YZ=             -0.0521
 Traceless Quadrupole moment (field-independent basis, Debye-Ang):
   XX=              2.2083   YY=             -0.6910   ZZ=             -1.5173
   XY=             -2.7520   XZ=              0.1731   YZ=             -0.0521
 Octapole moment (field-independent basis, Debye-Ang**2):
  XXX=              0.0001  YYY=              0.3807  ZZZ=              6.1324  XYY=             -0.4296
  XXY=             -0.4252  XXZ=             -6.7640  XZZ=              0.4297  YZZ=              0.1318
  YYZ=              2.0184  XYZ=             -3.4029
 Hexadecapole moment (field-independent basis, Debye-Ang**3):
 XXXX=           -870.4899 YYYY=            -65.0404 ZZZZ=            -67.2559 XXXY=             -4.6156
 XXXZ=              0.2904 YYYX=              9.6797 YYYZ=             -0.2347 ZZZX=             -0.6394
 ZZZY=              0.0948 XXYY=           -154.5387 XXZZ=           -158.7665 YYZZ=            -22.9054
 XXYZ=             -0.2668 YYXZ=             -0.1822 ZZXY=              3.3888
 N-N= 5.795656541456D+01 E-N=-1.745188840509D+03  KE= 6.838837483095D+02
                          Isotropic Fermi Contact Couplings
        Atom                 a.u.       MegaHertz       Gauss      10(-4) cm-1
     1  P(31)              0.00000       0.00000       0.00000       0.00000
     2  P(31)             -0.00000      -0.00000      -0.00000      -0.00000
     3  H(1)               0.00000       0.00000       0.00000       0.00000
     4  H(1)               0.00000       0.00000       0.00000       0.00000
     5  H(1)               0.00000       0.00000       0.00000       0.00000
     6  H(1)               0.00000       0.00000       0.00000       0.00000
 --------------------------------------------------------
       Center         ----  Spin Dipole Couplings  ----
                      3XX-RR        3YY-RR        3ZZ-RR
 --------------------------------------------------------
     1   Atom        0.000000      0.000000      0.000000
     2   Atom        0.000000      0.000000      0.000000
     3   Atom        0.000000      0.000000      0.000000
     4   Atom        0.000000      0.000000      0.000000
     5   Atom        0.000000      0.000000      0.000000
     6   Atom        0.000000      0.000000      0.000000
 --------------------------------------------------------
                        XY            XZ            YZ
 --------------------------------------------------------
     1   Atom        0.000000      0.000000      0.000000
     2   Atom        0.000000      0.000000      0.000000
     3   Atom        0.000000      0.000000      0.000000
     4   Atom        0.000000      0.000000      0.000000
     5   Atom        0.000000      0.000000      0.000000
     6   Atom        0.000000      0.000000      0.000000
 --------------------------------------------------------


 ---------------------------------------------------------------------------------
              Anisotropic Spin Dipole Couplings in Principal Axis System
 ---------------------------------------------------------------------------------

       Atom             a.u.   MegaHertz   Gauss  10(-4) cm-1        Axes

              Baa     0.0000     0.000     0.000     0.000  1.0000  0.0000  0.0000
     1 P(31)  Bbb     0.0000     0.000     0.000     0.000 -0.0000  1.0000  0.0000
              Bcc     0.0000     0.000     0.000     0.000  0.0000  0.0000  1.0000
 
              Baa     0.0000     0.000     0.000     0.000  1.0000  0.0000  0.0000
     2 P(31)  Bbb     0.0000     0.000     0.000     0.000 -0.0000  1.0000  0.0000
              Bcc     0.0000     0.000     0.000     0.000  0.0000  0.0000  1.0000
 
              Baa     0.0000     0.000     0.000     0.000  1.0000  0.0000  0.0000
     3 H(1)   Bbb     0.0000     0.000     0.000     0.000 -0.0000  1.0000  0.0000
              Bcc     0.0000     0.000     0.000     0.000  0.0000  0.0000  1.0000
 
              Baa     0.0000     0.000     0.000     0.000  1.0000  0.0000  0.0000
     4 H(1)   Bbb     0.0000     0.000     0.000     0.000 -0.0000  1.0000  0.0000
              Bcc     0.0000     0.000     0.000     0.000  0.0000  0.0000  1.0000
 
              Baa     0.0000     0.000     0.000     0.000  1.0000  0.0000  0.0000
     5 H(1)   Bbb     0.0000     0.000     0.000     0.000 -0.0000  1.0000  0.0000
              Bcc     0.0000     0.000     0.000     0.000  0.0000  0.0000  1.0000
 
              Baa     0.0000     0.000     0.000     0.000  1.0000  0.0000  0.0000
     6 H(1)   Bbb     0.0000     0.000     0.000     0.000 -0.0000  1.0000  0.0000
              Bcc     0.0000     0.000     0.000     0.000  0.0000  0.0000  1.0000
 

 ---------------------------------------------------------------------------------

 No NMR shielding tensors so no spin-rotation constants.
 Leave Link  601 at Mon Apr 21 20:51:56 2025, MaxMem=   536870912 cpu:               1.1 elap:               0.2
 (Enter /home/szhao/Apps/g16/l701.exe)
 ... and contract with generalized density number  0.
 Compute integral first derivatives.
 Leave Link  701 at Mon Apr 21 20:51:56 2025, MaxMem=   536870912 cpu:               1.2 elap:               0.2
 (Enter /home/szhao/Apps/g16/l702.exe)
 L702 exits ... SP integral derivatives will be done elsewhere.
 Leave Link  702 at Mon Apr 21 20:51:57 2025, MaxMem=   536870912 cpu:               0.4 elap:               0.1
 (Enter /home/szhao/Apps/g16/l703.exe)
 Integral derivatives from FoFJK, PRISM(SPDF).
 Compute integral first derivatives, UseDBF=F ICtDFT=           0.
 Calling FoFJK, ICntrl=      2127 FMM=F ISym2X=0 I1Cent= 0 IOpClX= 1 NMat=1 NMatS=1 NMatT=0.
 FoFJK:  IHMeth= 1 ICntrl=    2127 DoSepK=F KAlg= 0 I1Cent=           0 FoldK=F
 IRaf=         0 NMat=       1 IRICut=       1 DoRegI=T DoRafI=F ISym2E= 0 IDoP0=0 IntGTp=1.
 FoFCou: FMM=F IPFlag=           0 FMFlag=      100000 FMFlg1=         800
         NFxFlg=           0 DoJE=F BraDBF=F KetDBF=F FulRan=T
         wScrn=  0.000000 ICntrl=      2127 IOpCl=  1 I1Cent=           0 NGrid=           0
         NMat0=    1 NMatS0=      1 NMatT0=    0 NMatD0=    1 NMtDS0=    0 NMtDT0=    0
 Symmetry not used in FoFCou.
 Leave Link  703 at Mon Apr 21 20:51:58 2025, MaxMem=   536870912 cpu:               9.0 elap:               1.2
 (Enter /home/szhao/Apps/g16/l716.exe)
 Dipole        =-1.61985662D-06-3.20414657D-02-5.09627070D-01
 -------------------------------------------------------------------
 Center     Atomic                   Forces (Hartrees/Bohr)
 Number     Number              X              Y              Z
 -------------------------------------------------------------------
      1       15          -0.000000000   -0.000000000   -0.000000000
      2       15          -0.000000000   -0.000000000   -0.000000000
      3        1          -0.001336461   -0.001948457   -0.002516823
      4        1           0.001337828    0.001609611   -0.002755074
      5        1          -0.001454256   -0.002383825   -0.002043759
      6        1           0.001450312    0.002104157   -0.002319516
 -------------------------------------------------------------------
 Cartesian Forces:  Max     0.002755074 RMS     0.001629137
 Leave Link  716 at Mon Apr 21 20:51:58 2025, MaxMem=   536870912 cpu:               0.4 elap:               0.1
 (Enter /home/szhao/Apps/g16/l103.exe)

 GradGradGradGradGradGradGradGradGradGradGradGradGradGradGradGradGradGrad
 Berny optimization.
 FormGI is forming the generalized inverse of G from B-inverse, IUseBI=4.
 Internal  Forces:  Max     0.005413147 RMS     0.003619839
 Search for a local minimum.
 Step number   1 out of a maximum of   30
 All quantities printed in internal units (Hartrees-Bohrs-Radians)
 RMS Force = .32456D-02 SwitMx=.10000D-02 MixMth= 1
 Mixed Optimization -- RFO/linear search
 Second derivative matrix not updated -- first step.
 The second derivative matrix:
                          X1        Y1        Z1        X2        Y2
           X1           0.50000
           Y1           0.00000   0.50000
           Z1           0.00000   0.00000   0.50000
           X2           0.00000   0.00000   0.00000   0.50000
           Y2           0.00000   0.00000   0.00000   0.00000   0.50000
           Z2           0.00000   0.00000   0.00000   0.00000   0.00000
           R1           0.00000   0.00000   0.00000   0.00000   0.00000
           R2           0.00000   0.00000   0.00000   0.00000   0.00000
           R3           0.00000   0.00000   0.00000   0.00000   0.00000
           R4           0.00000   0.00000   0.00000   0.00000   0.00000
           A1           0.00000   0.00000   0.00000   0.00000   0.00000
           A2           0.00000   0.00000   0.00000   0.00000   0.00000
           A3           0.00000   0.00000   0.00000   0.00000   0.00000
           A4           0.00000   0.00000   0.00000   0.00000   0.00000
           A5           0.00000   0.00000   0.00000   0.00000   0.00000
           A6           0.00000   0.00000   0.00000   0.00000   0.00000
           D1           0.00000   0.00000   0.00000   0.00000   0.00000
           D2           0.00000   0.00000   0.00000   0.00000   0.00000
           D3           0.00000   0.00000   0.00000   0.00000   0.00000
           D4           0.00000   0.00000   0.00000   0.00000   0.00000
                          Z2        R1        R2        R3        R4
           Z2           0.50000
           R1           0.00000   0.21281
           R2           0.00000   0.00000   0.21209
           R3           0.00000   0.00000   0.00000   0.21281
           R4           0.00000   0.00000   0.00000   0.00000   0.21209
           A1           0.00000   0.00000   0.00000   0.00000   0.00000
           A2           0.00000   0.00000   0.00000   0.00000   0.00000
           A3           0.00000   0.00000   0.00000   0.00000   0.00000
           A4           0.00000   0.00000   0.00000   0.00000   0.00000
           A5           0.00000   0.00000   0.00000   0.00000   0.00000
           A6           0.00000   0.00000   0.00000   0.00000   0.00000
           D1           0.00000   0.00000   0.00000   0.00000   0.00000
           D2           0.00000   0.00000   0.00000   0.00000   0.00000
           D3           0.00000   0.00000   0.00000   0.00000   0.00000
           D4           0.00000   0.00000   0.00000   0.00000   0.00000
                          A1        A2        A3        A4        A5
           A1           0.16000
           A2           0.00000   0.16000
           A3           0.00000   0.00000   0.16000
           A4           0.00000   0.00000   0.00000   0.16000
           A5           0.00000   0.00000   0.00000   0.00000   0.16000
           A6           0.00000   0.00000   0.00000   0.00000   0.00000
           D1           0.00000   0.00000   0.00000   0.00000   0.00000
           D2           0.00000   0.00000   0.00000   0.00000   0.00000
           D3           0.00000   0.00000   0.00000   0.00000   0.00000
           D4           0.00000   0.00000   0.00000   0.00000   0.00000
                          A6        D1        D2        D3        D4
           A6           0.16000
           D1           0.00000   0.00230
           D2           0.00000   0.00000   0.00230
           D3           0.00000   0.00000   0.00000   0.00230
           D4           0.00000   0.00000   0.00000   0.00000   0.00230
 ITU=  0
     Eigenvalues ---    0.00230   0.07808   0.07808   0.16000   0.16000
     Eigenvalues ---    0.16000   0.16000   0.21209   0.21209   0.21281
     Eigenvalues ---    0.212811000.000001000.000001000.000001000.00000
     Eigenvalues --- 1000.000001000.000001000.000001000.000001000.00000
 RFO step:  Lambda=-1.30119706D-03 EMin= 2.30000000D-03
 Linear search not attempted -- first point.
 Iteration  1 RMS(Cart)=  0.04879121 RMS(Int)=  0.00103395
 Iteration  2 RMS(Cart)=  0.00112913 RMS(Int)=  0.00033839
 Iteration  3 RMS(Cart)=  0.00000096 RMS(Int)=  0.00033839
 ITry= 1 IFail=0 DXMaxC= 8.60D-02 DCOld= 1.00D+10 DXMaxT= 3.00D-01 DXLimC= 3.00D+00 Rises=F
 Variable       Old X    -DE/DX   Delta X   Delta X   Delta X     New X
                                 (Linear)    (Quad)   (Total)
    X1       -4.04820   0.00279   0.00000   0.00000   0.00000  -4.04820
    Y1        0.00000   0.00481   0.00000   0.00000   0.00000   0.00000
    Z1        0.00000  -0.00514   0.00000   0.00000   0.00000   0.00000
    X2        4.04820  -0.00279   0.00000   0.00000   0.00000   4.04820
    Y2        0.00000  -0.00541   0.00000   0.00000   0.00000   0.00000
    Z2        0.00000  -0.00450   0.00000   0.00000   0.00000   0.00000
    R1        2.67226   0.00182   0.00000   0.00852   0.00852   2.68078
    R2        2.67454   0.00156   0.00000   0.00730   0.00730   2.68183
    R3        2.67226   0.00183   0.00000   0.00855   0.00855   2.68081
    R4        2.67453   0.00156   0.00000   0.00732   0.00732   2.68185
    A1        1.65352  -0.00447   0.00000  -0.03203  -0.03214   1.62139
    A2        1.74123  -0.00491   0.00000  -0.03281  -0.03285   1.70838
    A3        1.63989  -0.00272   0.00000  -0.04131  -0.04207   1.59782
    A4        1.65351  -0.00447   0.00000  -0.03200  -0.03211   1.62140
    A5        1.74123  -0.00493   0.00000  -0.03288  -0.03292   1.70831
    A6        1.63988  -0.00271   0.00000  -0.04124  -0.04200   1.59788
    D1       -3.01600   0.00406   0.00000   0.05205   0.05130  -2.96470
    D2       -1.36055   0.00001   0.00000   0.00103   0.00103  -1.35952
    D3       -1.36054   0.00000   0.00000   0.00096   0.00096  -1.35958
    D4        0.29491  -0.00405   0.00000  -0.05005  -0.04930   0.24561
         Item               Value     Threshold  Converged?
 Maximum Force            0.004926     0.000450     NO 
 RMS     Force            0.003246     0.000300     NO 
 Maximum Displacement     0.086003     0.001800     NO 
 RMS     Displacement     0.049220     0.001200     NO 
 Predicted change in Energy=-6.470754D-04
 Lowest energy point so far.  Saving SCF results.
 GradGradGradGradGradGradGradGradGradGradGradGradGradGradGradGradGradGrad

 Leave Link  103 at Mon Apr 21 20:51:59 2025, MaxMem=   536870912 cpu:               0.7 elap:               0.3
 (Enter /home/szhao/Apps/g16/l202.exe)
                          Input orientation:                          
 ---------------------------------------------------------------------
 Center     Atomic      Atomic             Coordinates (Angstroms)
 Number     Number       Type             X           Y           Z
 ---------------------------------------------------------------------
      1         15           0       -2.142217    0.000000    0.000000
      2         15           0        2.142217    0.000000    0.000000
      3          1           0        2.213978   -1.416369   -0.035303
      4          1           0       -2.213956    1.400465   -0.214479
      5          1           0        2.336754    0.083331   -1.403307
      6          1           0       -2.336855   -0.260374   -1.381430
 ---------------------------------------------------------------------
                    Distance matrix (angstroms):
                    1          2          3          4          5
     1  P    0.000000
     2  P    4.284433   0.000000
     3  H    4.580806   1.418625   0.000000
     4  H    1.418608   4.580779   5.251024   0.000000
     5  H    4.694400   1.419175   2.033620   4.884374   0.000000
     6  H    1.419164   4.694489   4.884513   2.033534   4.686281
                    6
     6  H    0.000000
 Symmetry turned off by external request.
 Stoichiometry    H4P2
 Framework group  C1[X(H4P2)]
 Deg. of freedom    12
 Full point group                 C1      NOp   1
 Rotational constants (GHZ):          64.8997756           1.6350950           1.6342407
 Leave Link  202 at Mon Apr 21 20:51:59 2025, MaxMem=   536870912 cpu:               0.5 elap:               0.1
 (Enter /home/szhao/Apps/g16/l301.exe)
 Standard basis: 6-311+G(d,p) (5D, 7F)
 Ernie: Thresh=  0.10000D-02 Tol=  0.10000D-05 Strict=F.
    84 basis functions,   132 primitive gaussians,    86 cartesian basis functions
    17 alpha electrons       17 beta electrons
       nuclear repulsion energy        57.9653185605 Hartrees.
 IExCor= 4336 DFT=T Ex+Corr=M062X ExCW=0 ScaHFX=  0.540000
 ScaDFX=  1.000000  1.000000  1.000000  1.000000 ScalE2=  1.000000  1.000000
 IRadAn=      7 IRanWt=     -1 IRanGd=            0 ICorTp=0 IEmpDi=  4
 NAtoms=    6 NActive=    6 NUniq=    6 SFac= 1.00D+00 NAtFMM=   60 NAOKFM=F Big=F
 Integral buffers will be    131072 words long.
 Raffenetti 2 integral format.
 Two-electron integral symmetry is turned off.
 Leave Link  301 at Mon Apr 21 20:51:59 2025, MaxMem=   536870912 cpu:               0.6 elap:               0.1
 (Enter /home/szhao/Apps/g16/l302.exe)
 NPDir=0 NMtPBC=     1 NCelOv=     1 NCel=       1 NClECP=     1 NCelD=      1
         NCelK=      1 NCelE2=     1 NClLst=     1 CellRange=     0.0.
 One-electron integrals computed using PRISM.
 NBasis=    84 RedAO= T EigKep=  5.98D-03  NBF=    84
 NBsUse=    84 1.00D-06 EigRej= -1.00D+00 NBFU=    84
 Precomputing XC quadrature grid using
 IXCGrd= 4 IRadAn=           7 IRanWt=          -1 IRanGd=           0 AccXCQ= 0.00D+00.
 Generated NRdTot=       0 NPtTot=           0 NUsed=           0 NTot=          32
 NSgBfM=    79    79    79    79    79 MxSgAt=     6 MxSgA2=     6.
 Leave Link  302 at Mon Apr 21 20:52:00 2025, MaxMem=   536870912 cpu:               2.1 elap:               0.3
 (Enter /home/szhao/Apps/g16/l303.exe)
 DipDrv:  MaxL=1.
 Leave Link  303 at Mon Apr 21 20:52:00 2025, MaxMem=   536870912 cpu:               0.5 elap:               0.1
 (Enter /home/szhao/Apps/g16/l401.exe)
 Initial guess from the checkpoint file:  "opt.chk"
 B after Tr=    -0.000003   -0.000366   -0.005794
         Rot=    1.000000    0.000356    0.000055    0.000876 Ang=   0.11 deg.
 Guess basis will be translated and rotated to current coordinates.
 JPrj=2 DoOrth=T DoCkMO=T.
 Initial guess <Sx>= 0.0000 <Sy>= 0.0000 <Sz>= 0.0000 <S**2>=-0.0000 S=-0.0000
 Generating alternative initial guess.
 ExpMin= 3.48D-02 ExpMax= 7.75D+04 ExpMxC= 2.65D+03 IAcc=3 IRadAn=         5 AccDes= 0.00D+00
 Harris functional with IExCor= 1009 and IRadAn=       5 diagonalized for initial guess.
 HarFok:  IExCor= 1009 AccDes= 0.00D+00 IRadAn=         5 IDoV= 1 UseB2=F ITyADJ=14
 ICtDFT=  3500011 ScaDFX=  1.000000  1.000000  1.000000  1.000000
 FoFCou: FMM=F IPFlag=           0 FMFlag=      100000 FMFlg1=           0
         NFxFlg=           0 DoJE=T BraDBF=F KetDBF=T FulRan=T
         wScrn=  0.000000 ICntrl=       500 IOpCl=  0 I1Cent=   200000004 NGrid=           0
         NMat0=    1 NMatS0=      1 NMatT0=    0 NMatD0=    1 NMtDS0=    0 NMtDT0=    0
 Symmetry not used in FoFCou.
 Harris En= -684.652092427597    
 Leave Link  401 at Mon Apr 21 20:52:01 2025, MaxMem=   536870912 cpu:               2.9 elap:               0.4
 (Enter /home/szhao/Apps/g16/l502.exe)
 Keep R1 and R2 ints in memory in canonical form, NReq=20057634.
 FoFCou: FMM=F IPFlag=           0 FMFlag=           0 FMFlg1=           0
         NFxFlg=           0 DoJE=F BraDBF=F KetDBF=F FulRan=T
         wScrn=  0.000000 ICntrl=       600 IOpCl=  0 I1Cent=           0 NGrid=           0
         NMat0=    1 NMatS0=   3570 NMatT0=    0 NMatD0=    1 NMtDS0=    0 NMtDT0=    0
 Symmetry not used in FoFCou.
 Two-electron integral symmetry not used.
 UHF open shell SCF:
 Using DIIS extrapolation, IDIIS=  1040.
 NGot=   536870912 LenX=   524106186 LenY=   524098349
 Requested convergence on RMS density matrix=1.00D-08 within 128 cycles.
 Requested convergence on MAX density matrix=1.00D-06.
 Requested convergence on             energy=1.00D-06.
 No special actions if energy rises.

 Cycle   1  Pass 1  IDiag  1:
 E= -684.922606467753    
 DIIS: error= 1.64D-03 at cycle   1 NSaved=   1.
 NSaved= 1 IEnMin= 1 EnMin= -684.922606467753     IErMin= 1 ErrMin= 1.64D-03
 ErrMax= 1.64D-03  0.00D+00 EMaxC= 1.00D-01 BMatC= 1.01D-03 BMatP= 1.01D-03
 IDIUse=3 WtCom= 9.84D-01 WtEn= 1.64D-02
 Coeff-Com:  0.100D+01
 Coeff-En:   0.100D+01
 Coeff:      0.100D+01
 Gap=     0.392 Goal=   None    Shift=    0.000
 Gap=     0.392 Goal=   None    Shift=    0.000
 GapD=    0.392 DampG=1.000 DampE=1.000 DampFc=1.0000 IDamp=-1.
 RMSDP=3.94D-04 MaxDP=5.54D-03              OVMax= 1.55D-02

 Cycle   2  Pass 1  IDiag  1:
 E= -684.923207752268     Delta-E=       -0.000601284514 Rises=F Damp=F
 DIIS: error= 4.80D-04 at cycle   2 NSaved=   2.
 NSaved= 2 IEnMin= 2 EnMin= -684.923207752268     IErMin= 2 ErrMin= 4.80D-04
 ErrMax= 4.80D-04  0.00D+00 EMaxC= 1.00D-01 BMatC= 5.28D-05 BMatP= 1.01D-03
 IDIUse=3 WtCom= 9.95D-01 WtEn= 4.80D-03
 Coeff-Com: -0.115D+00 0.111D+01
 Coeff-En:   0.000D+00 0.100D+01
 Coeff:     -0.114D+00 0.111D+01
 Gap=     0.099 Goal=   None    Shift=    0.000
 Gap=     0.099 Goal=   None    Shift=    0.000
 RMSDP=1.05D-04 MaxDP=9.93D-04 DE=-6.01D-04 OVMax= 6.92D-03

 Cycle   3  Pass 1  IDiag  1:
 E= -684.923262643055     Delta-E=       -0.000054890788 Rises=F Damp=F
 DIIS: error= 1.38D-04 at cycle   3 NSaved=   3.
 NSaved= 3 IEnMin= 3 EnMin= -684.923262643055     IErMin= 3 ErrMin= 1.38D-04
 ErrMax= 1.38D-04  0.00D+00 EMaxC= 1.00D-01 BMatC= 3.96D-06 BMatP= 5.28D-05
 IDIUse=3 WtCom= 9.99D-01 WtEn= 1.38D-03
 Coeff-Com: -0.316D-01 0.809D-01 0.951D+00
 Coeff-En:   0.000D+00 0.000D+00 0.100D+01
 Coeff:     -0.316D-01 0.808D-01 0.951D+00
 Gap=     0.099 Goal=   None    Shift=    0.000
 Gap=     0.099 Goal=   None    Shift=    0.000
 RMSDP=4.85D-05 MaxDP=8.43D-04 DE=-5.49D-05 OVMax= 3.16D-03

 Cycle   4  Pass 1  IDiag  1:
 E= -684.923269275104     Delta-E=       -0.000006632049 Rises=F Damp=F
 DIIS: error= 7.84D-05 at cycle   4 NSaved=   4.
 NSaved= 4 IEnMin= 4 EnMin= -684.923269275104     IErMin= 4 ErrMin= 7.84D-05
 ErrMax= 7.84D-05  0.00D+00 EMaxC= 1.00D-01 BMatC= 1.49D-06 BMatP= 3.96D-06
 IDIUse=1 WtCom= 1.00D+00 WtEn= 0.00D+00
 Coeff-Com:  0.153D-01-0.189D+00 0.128D+00 0.105D+01
 Coeff:      0.153D-01-0.189D+00 0.128D+00 0.105D+01
 Gap=     0.099 Goal=   None    Shift=    0.000
 Gap=     0.099 Goal=   None    Shift=    0.000
 RMSDP=2.16D-05 MaxDP=2.26D-04 DE=-6.63D-06 OVMax= 1.63D-03

 Cycle   5  Pass 1  IDiag  1:
 E= -684.923270677947     Delta-E=       -0.000001402843 Rises=F Damp=F
 DIIS: error= 2.53D-05 at cycle   5 NSaved=   5.
 NSaved= 5 IEnMin= 5 EnMin= -684.923270677947     IErMin= 5 ErrMin= 2.53D-05
 ErrMax= 2.53D-05  0.00D+00 EMaxC= 1.00D-01 BMatC= 1.47D-07 BMatP= 1.49D-06
 IDIUse=1 WtCom= 1.00D+00 WtEn= 0.00D+00
 Coeff-Com:  0.678D-02-0.687D-01 0.104D-01 0.332D+00 0.719D+00
 Coeff:      0.678D-02-0.687D-01 0.104D-01 0.332D+00 0.719D+00
 Gap=     0.099 Goal=   None    Shift=    0.000
 Gap=     0.099 Goal=   None    Shift=    0.000
 RMSDP=9.40D-06 MaxDP=2.71D-04 DE=-1.40D-06 OVMax= 7.82D-04

 Cycle   6  Pass 1  IDiag  1:
 E= -684.923270501741     Delta-E=        0.000000176206 Rises=F Damp=F
 DIIS: error= 5.39D-05 at cycle   6 NSaved=   6.
 NSaved= 6 IEnMin= 5 EnMin= -684.923270677947     IErMin= 5 ErrMin= 2.53D-05
 ErrMax= 5.39D-05  0.00D+00 EMaxC= 1.00D-01 BMatC= 5.48D-07 BMatP= 1.47D-07
 IDIUse=1 WtCom= 1.00D+00 WtEn= 0.00D+00
 Coeff-Com: -0.220D-03 0.181D-01-0.447D-01-0.152D+00 0.784D+00 0.395D+00
 Coeff:     -0.220D-03 0.181D-01-0.447D-01-0.152D+00 0.784D+00 0.395D+00
 Gap=     0.099 Goal=   None    Shift=    0.000
 Gap=     0.099 Goal=   None    Shift=    0.000
 RMSDP=6.53D-06 MaxDP=1.89D-04 DE= 1.76D-07 OVMax= 5.47D-04

 Cycle   7  Pass 1  IDiag  1:
 E= -684.923270801939     Delta-E=       -0.000000300198 Rises=F Damp=F
 DIIS: error= 1.61D-06 at cycle   7 NSaved=   7.
 NSaved= 7 IEnMin= 7 EnMin= -684.923270801939     IErMin= 7 ErrMin= 1.61D-06
 ErrMax= 1.61D-06  0.00D+00 EMaxC= 1.00D-01 BMatC= 1.48D-09 BMatP= 1.47D-07
 IDIUse=1 WtCom= 1.00D+00 WtEn= 0.00D+00
 Coeff-Com: -0.625D-03 0.101D-01-0.135D-01-0.647D-01 0.130D+00 0.917D-01
 Coeff-Com:  0.847D+00
 Coeff:     -0.625D-03 0.101D-01-0.135D-01-0.647D-01 0.130D+00 0.917D-01
 Coeff:      0.847D+00
 Gap=     0.099 Goal=   None    Shift=    0.000
 Gap=     0.099 Goal=   None    Shift=    0.000
 RMSDP=8.55D-07 MaxDP=1.27D-05 DE=-3.00D-07 OVMax= 3.59D-05

 Cycle   8  Pass 1  IDiag  1:
 E= -684.923270802995     Delta-E=       -0.000000001056 Rises=F Damp=F
 DIIS: error= 1.59D-07 at cycle   8 NSaved=   8.
 NSaved= 8 IEnMin= 8 EnMin= -684.923270802995     IErMin= 8 ErrMin= 1.59D-07
 ErrMax= 1.59D-07  0.00D+00 EMaxC= 1.00D-01 BMatC= 1.92D-11 BMatP= 1.48D-09
 IDIUse=1 WtCom= 1.00D+00 WtEn= 0.00D+00
 Coeff-Com: -0.558D-05-0.401D-03 0.841D-03 0.513D-02-0.288D-01-0.148D-01
 Coeff-Com: -0.107D-01 0.105D+01
 Coeff:     -0.558D-05-0.401D-03 0.841D-03 0.513D-02-0.288D-01-0.148D-01
 Coeff:     -0.107D-01 0.105D+01
 Gap=     0.099 Goal=   None    Shift=    0.000
 Gap=     0.099 Goal=   None    Shift=    0.000
 RMSDP=2.08D-07 MaxDP=3.13D-06 DE=-1.06D-09 OVMax= 5.74D-06

 Cycle   9  Pass 1  IDiag  1:
 E= -684.923270803020     Delta-E=       -0.000000000024 Rises=F Damp=F
 DIIS: error= 2.82D-08 at cycle   9 NSaved=   9.
 NSaved= 9 IEnMin= 9 EnMin= -684.923270803020     IErMin= 9 ErrMin= 2.82D-08
 ErrMax= 2.82D-08  0.00D+00 EMaxC= 1.00D-01 BMatC= 3.93D-13 BMatP= 1.92D-11
 IDIUse=1 WtCom= 1.00D+00 WtEn= 0.00D+00
 Coeff-Com:  0.127D-04-0.176D-03 0.250D-03 0.114D-02-0.150D-02-0.112D-02
 Coeff-Com: -0.108D-01-0.707D-01 0.108D+01
 Coeff:      0.127D-04-0.176D-03 0.250D-03 0.114D-02-0.150D-02-0.112D-02
 Coeff:     -0.108D-01-0.707D-01 0.108D+01
 Gap=     0.099 Goal=   None    Shift=    0.000
 Gap=     0.099 Goal=   None    Shift=    0.000
 RMSDP=2.47D-08 MaxDP=3.25D-07 DE=-2.43D-11 OVMax= 8.74D-07

 Cycle  10  Pass 1  IDiag  1:
 E= -684.923270803021     Delta-E=       -0.000000000001 Rises=F Damp=F
 DIIS: error= 4.40D-09 at cycle  10 NSaved=  10.
 NSaved=10 IEnMin=10 EnMin= -684.923270803021     IErMin=10 ErrMin= 4.40D-09
 ErrMax= 4.40D-09  0.00D+00 EMaxC= 1.00D-01 BMatC= 1.71D-14 BMatP= 3.93D-13
 IDIUse=1 WtCom= 1.00D+00 WtEn= 0.00D+00
 Coeff-Com:  0.127D-05-0.273D-06-0.838D-05-0.102D-03 0.892D-03 0.428D-03
 Coeff-Com: -0.732D-03-0.380D-01 0.850D-01 0.953D+00
 Coeff:      0.127D-05-0.273D-06-0.838D-05-0.102D-03 0.892D-03 0.428D-03
 Coeff:     -0.732D-03-0.380D-01 0.850D-01 0.953D+00
 Gap=     0.099 Goal=   None    Shift=    0.000
 Gap=     0.099 Goal=   None    Shift=    0.000
 RMSDP=3.23D-09 MaxDP=4.74D-08 DE=-1.14D-12 OVMax= 1.41D-07

 SCF Done:  E(UM062X) =  -684.923270803     A.U. after   10 cycles
            NFock= 10  Conv=0.32D-08     -V/T= 2.0015
 <Sx>= 0.0000 <Sy>= 0.0000 <Sz>= 0.0000 <S**2>=-0.0000 S=-0.0000
 <L.S>=  0.00000000000    
 KE= 6.838672634605D+02 PE=-1.745183643971D+03 EE= 3.184277911471D+02
 Annihilation of the first spin contaminant:
 S**2 before annihilation    -0.0000,   after     0.0000
 Leave Link  502 at Mon Apr 21 20:52:09 2025, MaxMem=   536870912 cpu:              63.1 elap:               8.3
 (Enter /home/szhao/Apps/g16/l701.exe)
 ... and contract with generalized density number  0.
 Compute integral first derivatives.
 Leave Link  701 at Mon Apr 21 20:52:10 2025, MaxMem=   536870912 cpu:               1.5 elap:               0.3
 (Enter /home/szhao/Apps/g16/l702.exe)
 L702 exits ... SP integral derivatives will be done elsewhere.
 Leave Link  702 at Mon Apr 21 20:52:10 2025, MaxMem=   536870912 cpu:               0.5 elap:               0.1
 (Enter /home/szhao/Apps/g16/l703.exe)
 Integral derivatives from FoFJK, PRISM(SPDF).
 Compute integral first derivatives, UseDBF=F ICtDFT=           0.
 Calling FoFJK, ICntrl=      2127 FMM=F ISym2X=0 I1Cent= 0 IOpClX= 1 NMat=1 NMatS=1 NMatT=0.
 FoFJK:  IHMeth= 1 ICntrl=    2127 DoSepK=F KAlg= 0 I1Cent=           0 FoldK=F
 IRaf=         0 NMat=       1 IRICut=       1 DoRegI=T DoRafI=F ISym2E= 0 IDoP0=0 IntGTp=1.
 FoFCou: FMM=F IPFlag=           0 FMFlag=      100000 FMFlg1=         800
         NFxFlg=           0 DoJE=F BraDBF=F KetDBF=F FulRan=T
         wScrn=  0.000000 ICntrl=      2127 IOpCl=  1 I1Cent=           0 NGrid=           0
         NMat0=    1 NMatS0=      1 NMatT0=    0 NMatD0=    1 NMtDS0=    0 NMtDT0=    0
 Symmetry not used in FoFCou.
 Leave Link  703 at Mon Apr 21 20:52:11 2025, MaxMem=   536870912 cpu:               9.0 elap:               1.2
 (Enter /home/szhao/Apps/g16/l716.exe)
 Dipole        = 1.96420743D-05-3.15725787D-02-4.96303943D-01
 -------------------------------------------------------------------
 Center     Atomic                   Forces (Hartrees/Bohr)
 Number     Number              X              Y              Z
 -------------------------------------------------------------------
      1       15          -0.000000000   -0.000000000   -0.000000000
      2       15          -0.000000000   -0.000000000   -0.000000000
      3        1          -0.001482243   -0.000258489    0.000237443
      4        1           0.001482291    0.000290395    0.000207570
      5        1          -0.001637087    0.000251616   -0.000428260
      6        1           0.001639981   -0.000303402   -0.000399214
 -------------------------------------------------------------------
 Cartesian Forces:  Max     0.001639981 RMS     0.000764220
 Leave Link  716 at Mon Apr 21 20:52:12 2025, MaxMem=   536870912 cpu:               0.7 elap:               0.2
 (Enter /home/szhao/Apps/g16/l103.exe)

 GradGradGradGradGradGradGradGradGradGradGradGradGradGradGradGradGradGrad
 Berny optimization.
 Using GEDIIS/GDIIS optimizer.
 FormGI is forming the generalized inverse of G from B-inverse, IUseBI=4.
 Internal  Forces:  Max     0.004482439 RMS     0.002152711
 Search for a local minimum.
 Step number   2 out of a maximum of   30
 All quantities printed in internal units (Hartrees-Bohrs-Radians)
 RMS Force = .22641D-02 SwitMx=.10000D-02 MixMth= 1
 Mixed Optimization -- RFO/linear search
 Update second derivatives using D2CorX and points    1    2
 DE= -9.06D-04 DEPred=-6.47D-04 R= 1.40D+00
 TightC=F SS=  1.41D+00  RLast= 1.14D-01 DXNew= 5.0454D-01 3.4307D-01
 Trust test= 1.40D+00 RLast= 1.14D-01 DXMaxT set to 3.43D-01
 The second derivative matrix:
                          X1        Y1        Z1        X2        Y2
           X1           0.50014
           Y1          -0.00167   0.51990
           Z1           0.00204  -0.02437   0.52984
           X2          -0.00014   0.00164  -0.00201   0.50013
           Y2           0.00191  -0.02281   0.02793  -0.00188   0.52615
           Z2           0.00182  -0.02174   0.02663  -0.00179   0.02492
           R1          -0.00069   0.00820  -0.01004   0.00067  -0.00939
           R2          -0.00056   0.00667  -0.00816   0.00055  -0.00764
           R3          -0.00069   0.00824  -0.01009   0.00068  -0.00945
           R4          -0.00056   0.00672  -0.00823   0.00055  -0.00770
           A1           0.00024  -0.00282   0.00346  -0.00023   0.00324
           A2           0.00018  -0.00215   0.00263  -0.00018   0.00246
           A3           0.00143  -0.01710   0.02094  -0.00141   0.01960
           A4           0.00023  -0.00281   0.00344  -0.00023   0.00322
           A5           0.00019  -0.00226   0.00276  -0.00019   0.00259
           A6           0.00143  -0.01706   0.02089  -0.00140   0.01955
           D1          -0.00167   0.01991  -0.02438   0.00164  -0.02282
           D2          -0.00001   0.00011  -0.00014   0.00001  -0.00013
           D3          -0.00001   0.00008  -0.00009   0.00001  -0.00009
           D4           0.00165  -0.01972   0.02415  -0.00162   0.02260
                          Z2        R1        R2        R3        R4
           Z2           0.52376
           R1          -0.00895   0.21367
           R2          -0.00728   0.00060   0.21249
           R3          -0.00901   0.00087   0.00061   0.21369
           R4          -0.00734   0.00061   0.00041   0.00062   0.21252
           A1           0.00309   0.00597   0.00514   0.00599   0.00515
           A2           0.00235   0.00641   0.00550   0.00643   0.00552
           A3           0.01868   0.00230   0.00224   0.00229   0.00222
           A4           0.00307   0.00597   0.00514   0.00599   0.00515
           A5           0.00247   0.00638   0.00548   0.00640   0.00549
           A6           0.01864   0.00230   0.00224   0.00229   0.00222
           D1          -0.02175   0.00804   0.00653   0.00808   0.00658
           D2          -0.00013   0.00004   0.00004   0.00004   0.00004
           D3          -0.00008   0.00003   0.00002   0.00003   0.00002
           D4           0.02155  -0.00796  -0.00647  -0.00801  -0.00652
                          A1        A2        A3        A4        A5
           A1           0.14017
           A2          -0.02037   0.13910
           A3          -0.02405  -0.02522   0.14003
           A4          -0.01981  -0.02036  -0.02405   0.14020
           A5          -0.02040  -0.02094  -0.02519  -0.02039   0.13903
           A6          -0.02402  -0.02518  -0.01995  -0.02401  -0.02515
           D1          -0.00236  -0.00167  -0.01650  -0.00235  -0.00178
           D2          -0.00001  -0.00000  -0.00009  -0.00001  -0.00000
           D3          -0.00000   0.00000  -0.00005  -0.00000   0.00000
           D4           0.00235   0.00167   0.01636   0.00234   0.00178
                          A6        D1        D2        D3        D4
           A6           0.14007
           D1          -0.01646   0.02221
           D2          -0.00009   0.00011   0.00230
           D3          -0.00005   0.00008   0.00000   0.00230
           D4           0.01632  -0.01972  -0.00011  -0.00008   0.02183
 ITU=  1  0
 Use linear search instead of GDIIS.
     Eigenvalues ---    0.00230   0.05014   0.07942   0.14449   0.16000
     Eigenvalues ---    0.16000   0.16006   0.21209   0.21235   0.21281
     Eigenvalues ---    0.222001000.000001000.000001000.000001000.00000
     Eigenvalues --- 1000.000001000.000001000.000001000.000001000.00000
 RFO step:  Lambda=-6.73851317D-04 EMin= 2.30034060D-03
 Quartic linear search produced a step of  0.58220.
 Iteration  1 RMS(Cart)=  0.07147940 RMS(Int)=  0.00246400
 Iteration  2 RMS(Cart)=  0.00266269 RMS(Int)=  0.00102781
 Iteration  3 RMS(Cart)=  0.00000589 RMS(Int)=  0.00102781
 Iteration  4 RMS(Cart)=  0.00000001 RMS(Int)=  0.00102781
 ITry= 1 IFail=0 DXMaxC= 1.65D-01 DCOld= 1.00D+10 DXMaxT= 3.43D-01 DXLimC= 3.00D+00 Rises=F
 Variable       Old X    -DE/DX   Delta X   Delta X   Delta X     New X
                                 (Linear)    (Quad)   (Total)
    X1       -4.04820   0.00312   0.00000   0.00000   0.00000  -4.04820
    Y1        0.00000   0.00081   0.00000   0.00000   0.00000   0.00000
    Z1        0.00000  -0.00025   0.00000   0.00000   0.00000   0.00000
    X2        4.04820  -0.00312   0.00000   0.00000   0.00000   4.04820
    Y2        0.00000  -0.00084   0.00000   0.00000   0.00000   0.00000
    Z2        0.00000  -0.00014   0.00000   0.00000   0.00000   0.00000
    R1        2.68078   0.00018   0.00496   0.00083   0.00580   2.68658
    R2        2.68183   0.00022   0.00425   0.00120   0.00545   2.68728
    R3        2.68081   0.00018   0.00498   0.00081   0.00579   2.68660
    R4        2.68185   0.00021   0.00426   0.00116   0.00542   2.68727
    A1        1.62139  -0.00390  -0.01871  -0.03707  -0.05596   1.56543
    A2        1.70838  -0.00448  -0.01913  -0.04277  -0.06188   1.64650
    A3        1.59782   0.00071  -0.02449   0.00949  -0.01730   1.58052
    A4        1.62140  -0.00390  -0.01869  -0.03708  -0.05595   1.56546
    A5        1.70831  -0.00447  -0.01917  -0.04267  -0.06182   1.64648
    A6        1.59788   0.00071  -0.02445   0.00944  -0.01731   1.58057
    D1       -2.96470   0.00006   0.02987  -0.01143   0.01614  -2.94856
    D2       -1.35952  -0.00002   0.00060  -0.00945  -0.00885  -1.36837
    D3       -1.35958  -0.00001   0.00056  -0.00940  -0.00884  -1.36842
    D4        0.24561  -0.00009  -0.02870  -0.00743  -0.03384   0.21177
         Item               Value     Threshold  Converged?
 Maximum Force            0.004482     0.000450     NO 
 RMS     Force            0.002264     0.000300     NO 
 Maximum Displacement     0.164576     0.001800     NO 
 RMS     Displacement     0.072580     0.001200     NO 
 Predicted change in Energy=-5.254760D-04
 Lowest energy point so far.  Saving SCF results.
 GradGradGradGradGradGradGradGradGradGradGradGradGradGradGradGradGradGrad

 Leave Link  103 at Mon Apr 21 20:52:12 2025, MaxMem=   536870912 cpu:               0.9 elap:               0.2
 (Enter /home/szhao/Apps/g16/l202.exe)
                          Input orientation:                          
 ---------------------------------------------------------------------
 Center     Atomic      Atomic             Coordinates (Angstroms)
 Number     Number       Type             X           Y           Z
 ---------------------------------------------------------------------
      1         15           0       -2.142217    0.000000    0.000000
      2         15           0        2.142217    0.000000    0.000000
      3          1           0        2.134626   -1.420924   -0.045990
      4          1           0       -2.134589    1.403343   -0.227444
      5          1           0        2.249745    0.059188   -1.416736
      6          1           0       -2.249765   -0.239923   -1.397530
 ---------------------------------------------------------------------
                    Distance matrix (angstroms):
                    1          2          3          4          5
     1  P    0.000000
     2  P    4.284433   0.000000
     3  H    4.506942   1.421688   0.000000
     4  H    1.421675   4.506902   5.122070   0.000000
     5  H    4.615189   1.422043   2.020626   4.737462   0.000000
     6  H    1.422047   4.615209   4.737543   2.020566   4.509482
                    6
     6  H    0.000000
 Symmetry turned off by external request.
 Stoichiometry    H4P2
 Framework group  C1[X(H4P2)]
 Deg. of freedom    12
 Full point group                 C1      NOp   1
 Rotational constants (GHZ):          64.1210394           1.6426283           1.6421707
 Leave Link  202 at Mon Apr 21 20:52:12 2025, MaxMem=   536870912 cpu:               0.1 elap:               0.1
 (Enter /home/szhao/Apps/g16/l301.exe)
 Standard basis: 6-311+G(d,p) (5D, 7F)
 Ernie: Thresh=  0.10000D-02 Tol=  0.10000D-05 Strict=F.
    84 basis functions,   132 primitive gaussians,    86 cartesian basis functions
    17 alpha electrons       17 beta electrons
       nuclear repulsion energy        58.0504716038 Hartrees.
 IExCor= 4336 DFT=T Ex+Corr=M062X ExCW=0 ScaHFX=  0.540000
 ScaDFX=  1.000000  1.000000  1.000000  1.000000 ScalE2=  1.000000  1.000000
 IRadAn=      7 IRanWt=     -1 IRanGd=            0 ICorTp=0 IEmpDi=  4
 NAtoms=    6 NActive=    6 NUniq=    6 SFac= 1.00D+00 NAtFMM=   60 NAOKFM=F Big=F
 Integral buffers will be    131072 words long.
 Raffenetti 2 integral format.
 Two-electron integral symmetry is turned off.
 Leave Link  301 at Mon Apr 21 20:52:13 2025, MaxMem=   536870912 cpu:               0.6 elap:               0.4
 (Enter /home/szhao/Apps/g16/l302.exe)
 NPDir=0 NMtPBC=     1 NCelOv=     1 NCel=       1 NClECP=     1 NCelD=      1
         NCelK=      1 NCelE2=     1 NClLst=     1 CellRange=     0.0.
 One-electron integrals computed using PRISM.
 NBasis=    84 RedAO= T EigKep=  5.76D-03  NBF=    84
 NBsUse=    84 1.00D-06 EigRej= -1.00D+00 NBFU=    84
 Precomputing XC quadrature grid using
 IXCGrd= 4 IRadAn=           7 IRanWt=          -1 IRanGd=           0 AccXCQ= 0.00D+00.
 Generated NRdTot=       0 NPtTot=           0 NUsed=           0 NTot=          32
 NSgBfM=    79    79    79    79    79 MxSgAt=     6 MxSgA2=     6.
 Leave Link  302 at Mon Apr 21 20:52:13 2025, MaxMem=   536870912 cpu:               1.5 elap:               0.2
 (Enter /home/szhao/Apps/g16/l303.exe)
 DipDrv:  MaxL=1.
 Leave Link  303 at Mon Apr 21 20:52:13 2025, MaxMem=   536870912 cpu:               0.4 elap:               0.1
 (Enter /home/szhao/Apps/g16/l401.exe)
 Initial guess from the checkpoint file:  "opt.chk"
 B after Tr=     0.000005   -0.000191   -0.002963
         Rot=    0.999999    0.000319    0.000063    0.000973 Ang=   0.12 deg.
 Guess basis will be translated and rotated to current coordinates.
 JPrj=2 DoOrth=T DoCkMO=T.
 Initial guess <Sx>= 0.0000 <Sy>= 0.0000 <Sz>= 0.0000 <S**2>= 0.0000 S= 0.0000
 Generating alternative initial guess.
 ExpMin= 3.48D-02 ExpMax= 7.75D+04 ExpMxC= 2.65D+03 IAcc=3 IRadAn=         5 AccDes= 0.00D+00
 Harris functional with IExCor= 1009 and IRadAn=       5 diagonalized for initial guess.
 HarFok:  IExCor= 1009 AccDes= 0.00D+00 IRadAn=         5 IDoV= 1 UseB2=F ITyADJ=14
 ICtDFT=  3500011 ScaDFX=  1.000000  1.000000  1.000000  1.000000
 FoFCou: FMM=F IPFlag=           0 FMFlag=      100000 FMFlg1=           0
         NFxFlg=           0 DoJE=T BraDBF=F KetDBF=T FulRan=T
         wScrn=  0.000000 ICntrl=       500 IOpCl=  0 I1Cent=   200000004 NGrid=           0
         NMat0=    1 NMatS0=      1 NMatT0=    0 NMatD0=    1 NMtDS0=    0 NMtDT0=    0
 Symmetry not used in FoFCou.
 Harris En= -684.652825359457    
 Leave Link  401 at Mon Apr 21 20:52:14 2025, MaxMem=   536870912 cpu:               2.7 elap:               0.4
 (Enter /home/szhao/Apps/g16/l502.exe)
 Keep R1 and R2 ints in memory in canonical form, NReq=20057634.
 FoFCou: FMM=F IPFlag=           0 FMFlag=           0 FMFlg1=           0
         NFxFlg=           0 DoJE=F BraDBF=F KetDBF=F FulRan=T
         wScrn=  0.000000 ICntrl=       600 IOpCl=  0 I1Cent=           0 NGrid=           0
         NMat0=    1 NMatS0=   3570 NMatT0=    0 NMatD0=    1 NMtDS0=    0 NMtDT0=    0
 Symmetry not used in FoFCou.
 Two-electron integral symmetry not used.
 UHF open shell SCF:
 Using DIIS extrapolation, IDIIS=  1040.
 NGot=   536870912 LenX=   524106186 LenY=   524098349
 Requested convergence on RMS density matrix=1.00D-08 within 128 cycles.
 Requested convergence on MAX density matrix=1.00D-06.
 Requested convergence on             energy=1.00D-06.
 No special actions if energy rises.

 Cycle   1  Pass 1  IDiag  1:
 E= -684.922345843922    
 DIIS: error= 2.55D-03 at cycle   1 NSaved=   1.
 NSaved= 1 IEnMin= 1 EnMin= -684.922345843922     IErMin= 1 ErrMin= 2.55D-03
 ErrMax= 2.55D-03  0.00D+00 EMaxC= 1.00D-01 BMatC= 2.21D-03 BMatP= 2.21D-03
 IDIUse=3 WtCom= 9.74D-01 WtEn= 2.55D-02
 Coeff-Com:  0.100D+01
 Coeff-En:   0.100D+01
 Coeff:      0.100D+01
 Gap=     0.388 Goal=   None    Shift=    0.000
 Gap=     0.388 Goal=   None    Shift=    0.000
 GapD=    0.388 DampG=1.000 DampE=1.000 DampFc=1.0000 IDamp=-1.
 RMSDP=5.84D-04 MaxDP=9.75D-03              OVMax= 2.63D-02

 Cycle   2  Pass 1  IDiag  1:
 E= -684.923811727150     Delta-E=       -0.001465883228 Rises=F Damp=F
 DIIS: error= 8.40D-04 at cycle   2 NSaved=   2.
 NSaved= 2 IEnMin= 2 EnMin= -684.923811727150     IErMin= 2 ErrMin= 8.40D-04
 ErrMax= 8.40D-04  0.00D+00 EMaxC= 1.00D-01 BMatC= 1.44D-04 BMatP= 2.21D-03
 IDIUse=3 WtCom= 9.92D-01 WtEn= 8.40D-03
 Coeff-Com: -0.126D+00 0.113D+01
 Coeff-En:   0.000D+00 0.100D+01
 Coeff:     -0.125D+00 0.112D+01
 Gap=     0.100 Goal=   None    Shift=    0.000
 Gap=     0.100 Goal=   None    Shift=    0.000
 RMSDP=1.64D-04 MaxDP=1.85D-03 DE=-1.47D-03 OVMax= 1.18D-02

 Cycle   3  Pass 1  IDiag  1:
 E= -684.923964505815     Delta-E=       -0.000152778665 Rises=F Damp=F
 DIIS: error= 2.44D-04 at cycle   3 NSaved=   3.
 NSaved= 3 IEnMin= 3 EnMin= -684.923964505815     IErMin= 3 ErrMin= 2.44D-04
 ErrMax= 2.44D-04  0.00D+00 EMaxC= 1.00D-01 BMatC= 1.12D-05 BMatP= 1.44D-04
 IDIUse=3 WtCom= 9.98D-01 WtEn= 2.44D-03
 Coeff-Com: -0.391D-01 0.104D+00 0.935D+00
 Coeff-En:   0.000D+00 0.000D+00 0.100D+01
 Coeff:     -0.390D-01 0.104D+00 0.935D+00
 Gap=     0.100 Goal=   None    Shift=    0.000
 Gap=     0.100 Goal=   None    Shift=    0.000
 RMSDP=8.13D-05 MaxDP=1.46D-03 DE=-1.53D-04 OVMax= 5.33D-03

 Cycle   4  Pass 1  IDiag  1:
 E= -684.923983238538     Delta-E=       -0.000018732723 Rises=F Damp=F
 DIIS: error= 1.34D-04 at cycle   4 NSaved=   4.
 NSaved= 4 IEnMin= 4 EnMin= -684.923983238538     IErMin= 4 ErrMin= 1.34D-04
 ErrMax= 1.34D-04  0.00D+00 EMaxC= 1.00D-01 BMatC= 4.13D-06 BMatP= 1.12D-05
 IDIUse=3 WtCom= 9.99D-01 WtEn= 1.34D-03
 Coeff-Com:  0.181D-01-0.204D+00 0.103D+00 0.108D+01
 Coeff-En:   0.000D+00 0.000D+00 0.000D+00 0.100D+01
 Coeff:      0.181D-01-0.203D+00 0.103D+00 0.108D+01
 Gap=     0.100 Goal=   None    Shift=    0.000
 Gap=     0.100 Goal=   None    Shift=    0.000
 RMSDP=3.69D-05 MaxDP=4.01D-04 DE=-1.87D-05 OVMax= 2.81D-03

 Cycle   5  Pass 1  IDiag  1:
 E= -684.923987288409     Delta-E=       -0.000004049872 Rises=F Damp=F
 DIIS: error= 1.51D-05 at cycle   5 NSaved=   5.
 NSaved= 5 IEnMin= 5 EnMin= -684.923987288409     IErMin= 5 ErrMin= 1.51D-05
 ErrMax= 1.51D-05  0.00D+00 EMaxC= 1.00D-01 BMatC= 8.80D-08 BMatP= 4.13D-06
 IDIUse=1 WtCom= 1.00D+00 WtEn= 0.00D+00
 Coeff-Com:  0.998D-03 0.396D-02-0.321D-01-0.672D-01 0.109D+01
 Coeff:      0.998D-03 0.396D-02-0.321D-01-0.672D-01 0.109D+01
 Gap=     0.100 Goal=   None    Shift=    0.000
 Gap=     0.100 Goal=   None    Shift=    0.000
 RMSDP=1.13D-05 MaxDP=2.41D-04 DE=-4.05D-06 OVMax= 7.09D-04

 Cycle   6  Pass 1  IDiag  1:
 E= -684.923987105698     Delta-E=        0.000000182711 Rises=F Damp=F
 DIIS: error= 5.71D-05 at cycle   6 NSaved=   6.
 NSaved= 6 IEnMin= 5 EnMin= -684.923987288409     IErMin= 5 ErrMin= 1.51D-05
 ErrMax= 5.71D-05  0.00D+00 EMaxC= 1.00D-01 BMatC= 5.83D-07 BMatP= 8.80D-08
 IDIUse=1 WtCom= 1.00D+00 WtEn= 0.00D+00
 Coeff-Com: -0.129D-02 0.273D-01-0.388D-01-0.184D+00 0.925D+00 0.272D+00
 Coeff:     -0.129D-02 0.273D-01-0.388D-01-0.184D+00 0.925D+00 0.272D+00
 Gap=     0.100 Goal=   None    Shift=    0.000
 Gap=     0.100 Goal=   None    Shift=    0.000
 RMSDP=6.48D-06 MaxDP=1.96D-04 DE= 1.83D-07 OVMax= 5.73D-04

 Cycle   7  Pass 1  IDiag  1:
 E= -684.923987416576     Delta-E=       -0.000000310878 Rises=F Damp=F
 DIIS: error= 2.76D-06 at cycle   7 NSaved=   7.
 NSaved= 7 IEnMin= 7 EnMin= -684.923987416576     IErMin= 7 ErrMin= 2.76D-06
 ErrMax= 2.76D-06  0.00D+00 EMaxC= 1.00D-01 BMatC= 2.50D-09 BMatP= 8.80D-08
 IDIUse=1 WtCom= 1.00D+00 WtEn= 0.00D+00
 Coeff-Com: -0.554D-03 0.818D-02-0.946D-02-0.479D-01 0.122D+00 0.764D-01
 Coeff-Com:  0.851D+00
 Coeff:     -0.554D-03 0.818D-02-0.946D-02-0.479D-01 0.122D+00 0.764D-01
 Coeff:      0.851D+00
 Gap=     0.100 Goal=   None    Shift=    0.000
 Gap=     0.100 Goal=   None    Shift=    0.000
 RMSDP=1.05D-06 MaxDP=1.55D-05 DE=-3.11D-07 OVMax= 3.74D-05

 Cycle   8  Pass 1  IDiag  1:
 E= -684.923987418328     Delta-E=       -0.000000001753 Rises=F Damp=F
 DIIS: error= 3.16D-07 at cycle   8 NSaved=   8.
 NSaved= 8 IEnMin= 8 EnMin= -684.923987418328     IErMin= 8 ErrMin= 3.16D-07
 ErrMax= 3.16D-07  0.00D+00 EMaxC= 1.00D-01 BMatC= 5.34D-11 BMatP= 2.50D-09
 IDIUse=1 WtCom= 1.00D+00 WtEn= 0.00D+00
 Coeff-Com:  0.152D-04-0.607D-03 0.721D-03 0.577D-02-0.405D-01-0.852D-02
 Coeff-Com:  0.749D-01 0.968D+00
 Coeff:      0.152D-04-0.607D-03 0.721D-03 0.577D-02-0.405D-01-0.852D-02
 Coeff:      0.749D-01 0.968D+00
 Gap=     0.100 Goal=   None    Shift=    0.000
 Gap=     0.100 Goal=   None    Shift=    0.000
 RMSDP=2.56D-07 MaxDP=3.85D-06 DE=-1.75D-09 OVMax= 6.39D-06

 Cycle   9  Pass 1  IDiag  1:
 E= -684.923987418375     Delta-E=       -0.000000000046 Rises=F Damp=F
 DIIS: error= 6.61D-08 at cycle   9 NSaved=   9.
 NSaved= 9 IEnMin= 9 EnMin= -684.923987418375     IErMin= 9 ErrMin= 6.61D-08
 ErrMax= 6.61D-08  0.00D+00 EMaxC= 1.00D-01 BMatC= 3.64D-12 BMatP= 5.34D-11
 IDIUse=1 WtCom= 1.00D+00 WtEn= 0.00D+00
 Coeff-Com:  0.189D-04-0.376D-03 0.486D-03 0.279D-02-0.134D-01-0.420D-02
 Coeff-Com: -0.455D-02 0.223D+00 0.797D+00
 Coeff:      0.189D-04-0.376D-03 0.486D-03 0.279D-02-0.134D-01-0.420D-02
 Coeff:     -0.455D-02 0.223D+00 0.797D+00
 Gap=     0.100 Goal=   None    Shift=    0.000
 Gap=     0.100 Goal=   None    Shift=    0.000
 RMSDP=3.15D-08 MaxDP=5.25D-07 DE=-4.64D-11 OVMax= 1.11D-06

 Cycle  10  Pass 1  IDiag  1:
 E= -684.923987418376     Delta-E=       -0.000000000002 Rises=F Damp=F
 DIIS: error= 1.49D-08 at cycle  10 NSaved=  10.
 NSaved=10 IEnMin=10 EnMin= -684.923987418376     IErMin=10 ErrMin= 1.49D-08
 ErrMax= 1.49D-08  0.00D+00 EMaxC= 1.00D-01 BMatC= 2.28D-13 BMatP= 3.64D-12
 IDIUse=1 WtCom= 1.00D+00 WtEn= 0.00D+00
 Coeff-Com:  0.291D-05-0.130D-04 0.275D-04-0.601D-04 0.184D-02 0.173D-03
 Coeff-Com: -0.800D-02-0.606D-01 0.104D+00 0.963D+00
 Coeff:      0.291D-05-0.130D-04 0.275D-04-0.601D-04 0.184D-02 0.173D-03
 Coeff:     -0.800D-02-0.606D-01 0.104D+00 0.963D+00
 Gap=     0.100 Goal=   None    Shift=    0.000
 Gap=     0.100 Goal=   None    Shift=    0.000
 RMSDP=1.07D-08 MaxDP=1.48D-07 DE=-1.59D-12 OVMax= 4.57D-07

 Cycle  11  Pass 1  IDiag  1:
 E= -684.923987418375     Delta-E=        0.000000000001 Rises=F Damp=F
 DIIS: error= 3.91D-09 at cycle  11 NSaved=  11.
 NSaved=11 IEnMin=10 EnMin= -684.923987418376     IErMin=11 ErrMin= 3.91D-09
 ErrMax= 3.91D-09  0.00D+00 EMaxC= 1.00D-01 BMatC= 3.95D-15 BMatP= 2.28D-13
 IDIUse=1 WtCom= 1.00D+00 WtEn= 0.00D+00
 Coeff-Com: -0.536D-06 0.933D-05-0.166D-04-0.531D-04 0.191D-03 0.869D-04
 Coeff-Com:  0.670D-03-0.456D-03-0.181D-01-0.123D+00 0.114D+01
 Coeff:     -0.536D-06 0.933D-05-0.166D-04-0.531D-04 0.191D-03 0.869D-04
 Coeff:      0.670D-03-0.456D-03-0.181D-01-0.123D+00 0.114D+01
 Gap=     0.100 Goal=   None    Shift=    0.000
 Gap=     0.100 Goal=   None    Shift=    0.000
 RMSDP=1.99D-09 MaxDP=2.92D-08 DE= 1.25D-12 OVMax= 7.53D-08

 SCF Done:  E(UM062X) =  -684.923987418     A.U. after   11 cycles
            NFock= 11  Conv=0.20D-08     -V/T= 2.0016
 <Sx>= 0.0000 <Sy>= 0.0000 <Sz>= 0.0000 <S**2>=-0.0000 S=-0.0000
 <L.S>=  0.00000000000    
 KE= 6.838537179649D+02 PE=-1.745332121161D+03 EE= 3.185039441740D+02
 Annihilation of the first spin contaminant:
 S**2 before annihilation    -0.0000,   after     0.0000
 Leave Link  502 at Mon Apr 21 20:52:24 2025, MaxMem=   536870912 cpu:              72.0 elap:               9.4
 (Enter /home/szhao/Apps/g16/l701.exe)
 ... and contract with generalized density number  0.
 Compute integral first derivatives.
 Leave Link  701 at Mon Apr 21 20:52:24 2025, MaxMem=   536870912 cpu:               1.0 elap:               0.2
 (Enter /home/szhao/Apps/g16/l702.exe)
 L702 exits ... SP integral derivatives will be done elsewhere.
 Leave Link  702 at Mon Apr 21 20:52:24 2025, MaxMem=   536870912 cpu:               0.4 elap:               0.1
 (Enter /home/szhao/Apps/g16/l703.exe)
 Integral derivatives from FoFJK, PRISM(SPDF).
 Compute integral first derivatives, UseDBF=F ICtDFT=           0.
 Calling FoFJK, ICntrl=      2127 FMM=F ISym2X=0 I1Cent= 0 IOpClX= 1 NMat=1 NMatS=1 NMatT=0.
 FoFJK:  IHMeth= 1 ICntrl=    2127 DoSepK=F KAlg= 0 I1Cent=           0 FoldK=F
 IRaf=         0 NMat=       1 IRICut=       1 DoRegI=T DoRafI=F ISym2E= 0 IDoP0=0 IntGTp=1.
 FoFCou: FMM=F IPFlag=           0 FMFlag=      100000 FMFlg1=         800
         NFxFlg=           0 DoJE=F BraDBF=F KetDBF=F FulRan=T
         wScrn=  0.000000 ICntrl=      2127 IOpCl=  1 I1Cent=           0 NGrid=           0
         NMat0=    1 NMatS0=      1 NMatT0=    0 NMatD0=    1 NMtDS0=    0 NMtDT0=    0
 Symmetry not used in FoFCou.
 Leave Link  703 at Mon Apr 21 20:52:26 2025, MaxMem=   536870912 cpu:               9.2 elap:               1.2
 (Enter /home/szhao/Apps/g16/l716.exe)
 Dipole        =-1.56790321D-05-3.21982952D-02-5.01242955D-01
 -------------------------------------------------------------------
 Center     Atomic                   Forces (Hartrees/Bohr)
 Number     Number              X              Y              Z
 -------------------------------------------------------------------
      1       15          -0.000000000   -0.000000000   -0.000000000
      2       15          -0.000000000   -0.000000000   -0.000000000
      3        1          -0.000877378    0.000970673    0.001508038
      4        1           0.000877058   -0.000771045    0.001626193
      5        1          -0.001219256    0.001389578    0.000834638
      6        1           0.001213381   -0.001266266    0.001003452
 -------------------------------------------------------------------
 Cartesian Forces:  Max     0.001626193 RMS     0.000948425
 Leave Link  716 at Mon Apr 21 20:52:26 2025, MaxMem=   536870912 cpu:               0.6 elap:               0.3
 (Enter /home/szhao/Apps/g16/l103.exe)

 GradGradGradGradGradGradGradGradGradGradGradGradGradGradGradGradGradGrad
 Berny optimization.
 Using GEDIIS/GDIIS optimizer.
 FormGI is forming the generalized inverse of G from B-inverse, IUseBI=4.
 Internal  Forces:  Max     0.003118754 RMS     0.001942026
 Search for a local minimum.
 Step number   3 out of a maximum of   30
 All quantities printed in internal units (Hartrees-Bohrs-Radians)
[...]
           D2          -0.00112  -0.00018  -0.00089  -0.00079   0.00197
           D3           0.00121  -0.00021   0.00067   0.00081  -0.00139
           D4          -0.00312   0.00688   0.02067   0.00670  -0.00726
                          A6        D1        D2        D3        D4
           A6           0.10718
           D1          -0.01991   0.02286
           D2           0.00161  -0.00084   0.00221
           D3          -0.00157  -0.00012  -0.00082   0.00196
           D4           0.01995  -0.02152  -0.00006  -0.00104   0.02272
 ITU=  0  0  0  1  1 -1  1  1  0  1  0  1  1  1  1  1  1  1  1  1
 ITU=  1
     Eigenvalues ---    0.00023   0.01925   0.03862   0.07829   0.08230
     Eigenvalues ---    0.13197   0.16363   0.21231   0.21294   0.21340
     Eigenvalues ---    0.216501000.000001000.000001000.000001000.00000
     Eigenvalues --- 1000.000001000.000001000.000001000.000001000.00000
 En-DIIS/RFO-DIIS/Sim-DIIS IScMMF=       -3 using points:    22   21   20   19   18   17   16   15   14   13
 RFO step:  Lambda=-1.32204238D-09.
 NNeg= 0 NGDIIS=10 SimSw=  2.50D-01 Rises=F DC= -4.90D-08 SmlDif=  1.00D-05
 NRisDI= 0 DoIntr=F SqrtH=F CThrHd= 10.0 CDAdj=  3.0
 RMS Error=  0.2458811839D-03 NUsed=10 OKEnD=F EnDIS=F
 InvSVX:  RCond= 6.32D-12 Info=           0 Equed=N FErr=  1.25D-08 BErr=  7.62D-17
 DIIS inversion failure, remove point  10.
 InvSVX:  RCond= 9.58D-12 Info=           0 Equed=N FErr=  8.68D-09 BErr=  9.17D-17
 DIIS inversion failure, remove point   9.
 InvSVX:  RCond= 1.99D-11 Info=           0 Equed=N FErr=  3.43D-09 BErr=  5.54D-17
 DIIS inversion failure, remove point   8.
 InvSVX:  RCond= 4.03D-11 Info=           0 Equed=N FErr=  1.70D-09 BErr=  1.10D-16
 DIIS inversion failure, remove point   7.
 InvSVX:  RCond= 5.19D-11 Info=           0 Equed=N FErr=  1.31D-09 BErr=  6.98D-17
 DIIS inversion failure, remove point   6.
 InvSVX:  RCond= 1.57D-10 Info=           0 Equed=N FErr=  3.49D-10 BErr=  7.68D-17
 DIIS inversion failure, remove point   5.
 InvSVX:  RCond= 3.16D-10 Info=           0 Equed=N FErr=  1.50D-10 BErr=  6.89D-17
 DIIS inversion failure, remove point   4.
 InvSVX:  RCond= 4.84D-09 Info=           0 Equed=N FErr=  1.30D-12 BErr=  1.07D-16
 DIIS inversion failure, remove point   3.
 InvSVX:  RCond= 3.96D-04 Info=           0 Equed=N FErr=  9.50D-16 BErr=  8.68D-17
 RFO-DIIS uses    2 points instead of   10
 DidBck=F Rises=F RFO-DIIS coefs:    0.94175    0.05825    0.00000    0.00000    0.00000
                  RFO-DIIS coefs:    0.00000    0.00000    0.00000    0.00000    0.00000
 Iteration  1 RMS(Cart)=  0.00033406 RMS(Int)=  0.00000005
 Iteration  2 RMS(Cart)=  0.00000005 RMS(Int)=  0.00000000
 ITry= 1 IFail=0 DXMaxC= 5.86D-04 DCOld= 1.00D+10 DXMaxT= 1.08D+00 DXLimC= 3.00D+00 Rises=F
 Variable       Old X    -DE/DX   Delta X   Delta X   Delta X     New X
                                 (Linear)    (Quad)   (Total)
    X1       -4.04820   0.00000   0.00000   0.00000   0.00000  -4.04820
    Y1        0.00000   0.00000   0.00000   0.00000   0.00000   0.00000
    Z1        0.00000  -0.00000   0.00000   0.00000   0.00000   0.00000
    X2        4.04820  -0.00000   0.00000   0.00000   0.00000   4.04820
    Y2        0.00000  -0.00000   0.00000   0.00000   0.00000   0.00000
    Z2        0.00000   0.00000   0.00000   0.00000   0.00000   0.00000
    R1        2.68105   0.00000  -0.00000   0.00000   0.00000   2.68105
    R2        2.68117   0.00000   0.00000  -0.00000  -0.00000   2.68117
    R3        2.68094   0.00000   0.00000  -0.00000  -0.00000   2.68093
    R4        2.68134   0.00000  -0.00000   0.00000   0.00000   2.68134
    A1        1.50216   0.00001  -0.00001   0.00003   0.00002   1.50218
    A2        1.50517  -0.00001   0.00001  -0.00004  -0.00003   1.50515
    A3        1.60347  -0.00000   0.00000  -0.00002  -0.00002   1.60345
    A4        1.50542  -0.00001   0.00000  -0.00010  -0.00009   1.50533
    A5        1.50559   0.00001   0.00001   0.00004   0.00005   1.50564
    A6        1.60371  -0.00000   0.00000  -0.00002  -0.00002   1.60370
    D1        1.70504   0.00000   0.00054   0.00002   0.00056   1.70560
    D2       -2.97002   0.00000   0.00055   0.00000   0.00055  -2.96947
    D3       -2.97001  -0.00000   0.00055  -0.00000   0.00055  -2.96947
    D4       -1.36188  -0.00000   0.00055  -0.00002   0.00053  -1.36135
         Item               Value     Threshold  Converged?
 Maximum Force            0.000010     0.000450     YES
 RMS     Force            0.000004     0.000300     YES
 Maximum Displacement     0.000586     0.001800     YES
 RMS     Displacement     0.000334     0.001200     YES
 Predicted change in Energy=-1.050381D-09
 Optimization completed.
    -- Stationary point found.
                           ----------------------------
                           !   Optimized Parameters   !
                           ! (Angstroms and Degrees)  !
 --------------------------                            --------------------------
 ! Name  Definition              Value          Derivative Info.                !
 --------------------------------------------------------------------------------
 ! X1    R(1,-1)                -2.1422         -DE/DX =    0.0                 !
 ! Y1    R(1,-2)                 0.0            -DE/DX =    0.0                 !
 ! Z1    R(1,-3)                 0.0            -DE/DX =    0.0                 !
 ! X2    R(2,-1)                 2.1422         -DE/DX =    0.0                 !
 ! Y2    R(2,-2)                 0.0            -DE/DX =    0.0                 !
 ! Z2    R(2,-3)                 0.0            -DE/DX =    0.0                 !
 ! R1    R(1,4)                  1.4187         -DE/DX =    0.0                 !
 ! R2    R(1,6)                  1.4188         -DE/DX =    0.0                 !
 ! R3    R(2,3)                  1.4187         -DE/DX =    0.0                 !
 ! R4    R(2,5)                  1.4189         -DE/DX =    0.0                 !
 ! A1    A(2,1,4)               86.0672         -DE/DX =    0.0                 !
 ! A2    A(2,1,6)               86.2399         -DE/DX =    0.0                 !
 ! A3    A(4,1,6)               91.8719         -DE/DX =    0.0                 !
 ! A4    A(1,2,3)               86.2543         -DE/DX =    0.0                 !
 ! A5    A(1,2,5)               86.264          -DE/DX =    0.0                 !
 ! A6    A(3,2,5)               91.8859         -DE/DX =    0.0                 !
 ! D1    D(4,1,2,3)             97.6915         -DE/DX =    0.0                 !
 ! D2    D(4,1,2,5)           -170.1694         -DE/DX =    0.0                 !
 ! D3    D(6,1,2,3)           -170.1691         -DE/DX =    0.0                 !
 ! D4    D(6,1,2,5)            -78.03           -DE/DX =    0.0                 !
 --------------------------------------------------------------------------------
 Lowest energy point so far.  Saving SCF results.
 Largest change from initial coordinates is atom    6       1.213 Angstoms.
 GradGradGradGradGradGradGradGradGradGradGradGradGradGradGradGradGradGrad

 Leave Link  103 at Mon Apr 21 20:57:00 2025, MaxMem=   536870912 cpu:               0.6 elap:               0.1
 (Enter /home/szhao/Apps/g16/l202.exe)
                          Input orientation:                          
 ---------------------------------------------------------------------
 Center     Atomic      Atomic             Coordinates (Angstroms)
 Number     Number       Type             X           Y           Z
 ---------------------------------------------------------------------
      1         15           0       -2.142217    0.000000    0.000000
      2         15           0        2.142217    0.000000    0.000000
      3          1           0        2.049537   -1.032573    0.968445
      4          1           0       -2.044909    1.097735    0.893508
      5          1           0        2.049763   -0.929378   -1.068173
      6          1           0       -2.049173    0.852119   -1.130609
 ---------------------------------------------------------------------
                    Distance matrix (angstroms):
                    1          2          3          4          5
     1  P    0.000000
     2  P    4.284433   0.000000
     3  H    4.424352   1.418690   0.000000
     4  H    1.418749   4.419886   4.616093   0.000000
     5  H    4.424639   1.418902   2.039230   4.972294   0.000000
     6  H    1.418817   4.424040   4.975692   2.038969   4.469777
                    6
     6  H    0.000000
 Symmetry turned off by external request.
 Stoichiometry    H4P2
 Framework group  C1[X(H4P2)]
 Deg. of freedom    12
 Full point group                 C1      NOp   1
 Rotational constants (GHZ):          64.3127979           1.6565022           1.6537100
 Leave Link  202 at Mon Apr 21 20:57:01 2025, MaxMem=   536870912 cpu:               0.1 elap:               0.0
 (Enter /home/szhao/Apps/g16/l601.exe)
 Copying SCF densities to generalized density rwf, IOpCl= 1 IROHF=0.

 **********************************************************************

            Population analysis using the SCF density.

 **********************************************************************

 Alpha  occ. eigenvalues --  -78.05063 -78.05062  -6.87450  -6.87449  -4.99000
 Alpha  occ. eigenvalues --   -4.99000  -4.98874  -4.98873  -4.98691  -4.98690
 Alpha  occ. eigenvalues --   -0.71226  -0.70823  -0.45116  -0.44950  -0.36274
 Alpha  occ. eigenvalues --   -0.36105  -0.24751
 Alpha virt. eigenvalues --   -0.14713   0.01622   0.02870   0.03216   0.04032
 Alpha virt. eigenvalues --    0.04841   0.05956   0.06082   0.06115   0.06224
 Alpha virt. eigenvalues --    0.07988   0.13753   0.18518   0.28596   0.29254
 Alpha virt. eigenvalues --    0.30220   0.30935   0.32565   0.33588   0.36606
 Alpha virt. eigenvalues --    0.39101   0.45563   0.47900   0.55852   0.63644
 Alpha virt. eigenvalues --    0.63957   0.64090   0.67113   0.67248   0.67991
 Alpha virt. eigenvalues --    0.68114   0.87283   0.87620   0.95016   0.95753
 Alpha virt. eigenvalues --    1.37926   1.38895   1.43756   1.43783   1.47454
 Alpha virt. eigenvalues --    1.47867   1.48909   1.51201   1.60212   1.60896
 Alpha virt. eigenvalues --    1.61267   1.65009   1.67309   1.67767   2.01373
 Alpha virt. eigenvalues --    2.03120   2.10860   2.11241   2.56367   2.56751
 Alpha virt. eigenvalues --    2.62542   2.66972   6.98657   7.02873  13.99266
 Alpha virt. eigenvalues --   14.00615  14.02819  14.03213  14.03919  14.04093
 Alpha virt. eigenvalues --  163.25209 163.30527
  Beta  occ. eigenvalues --  -78.05063 -78.05062  -6.87450  -6.87449  -4.99000
  Beta  occ. eigenvalues --   -4.99000  -4.98874  -4.98873  -4.98691  -4.98690
  Beta  occ. eigenvalues --   -0.71226  -0.70823  -0.45116  -0.44950  -0.36274
  Beta  occ. eigenvalues --   -0.36105  -0.24751
  Beta virt. eigenvalues --   -0.14713   0.01622   0.02870   0.03216   0.04032
  Beta virt. eigenvalues --    0.04841   0.05956   0.06082   0.06115   0.06224
  Beta virt. eigenvalues --    0.07988   0.13753   0.18518   0.28596   0.29254
  Beta virt. eigenvalues --    0.30220   0.30935   0.32565   0.33588   0.36606
  Beta virt. eigenvalues --    0.39101   0.45563   0.47900   0.55852   0.63644
  Beta virt. eigenvalues --    0.63957   0.64090   0.67113   0.67248   0.67991
  Beta virt. eigenvalues --    0.68114   0.87283   0.87620   0.95016   0.95753
  Beta virt. eigenvalues --    1.37926   1.38895   1.43756   1.43783   1.47454
  Beta virt. eigenvalues --    1.47867   1.48909   1.51201   1.60212   1.60896
  Beta virt. eigenvalues --    1.61267   1.65009   1.67309   1.67767   2.01373
  Beta virt. eigenvalues --    2.03120   2.10860   2.11241   2.56367   2.56751
  Beta virt. eigenvalues --    2.62542   2.66972   6.98657   7.02873  13.99266
  Beta virt. eigenvalues --   14.00615  14.02819  14.03213  14.03919  14.04093
  Beta virt. eigenvalues --  163.25209 163.30527
          Condensed to atoms (all electrons):
               1          2          3          4          5          6
     1  P   14.378914   0.119638  -0.002856   0.256513  -0.002867   0.255841
     2  P    0.119638  14.379232   0.256503  -0.002868   0.255856  -0.002856
     3  H   -0.002856   0.256503   0.763608   0.000139  -0.020674   0.000084
     4  H    0.256513  -0.002868   0.000139   0.763577   0.000085  -0.020682
     5  H   -0.002867   0.255856  -0.020674   0.000085   0.765291   0.000171
     6  H    0.255841  -0.002856   0.000084  -0.020682   0.000171   0.765330
          Atomic-Atomic Spin Densities.
               1          2          3          4          5          6
     1  P   -0.000000  -0.000000   0.000000   0.000000   0.000000   0.000000
     2  P   -0.000000   0.000000  -0.000000  -0.000000  -0.000000  -0.000000
     3  H    0.000000  -0.000000  -0.000000  -0.000000   0.000000   0.000000
     4  H    0.000000  -0.000000  -0.000000   0.000000  -0.000000  -0.000000
     5  H    0.000000  -0.000000   0.000000  -0.000000  -0.000000  -0.000000
     6  H    0.000000  -0.000000   0.000000  -0.000000  -0.000000   0.000000
 Mulliken charges and spin densities:
               1          2
     1  P   -0.005182  -0.000000
     2  P   -0.005504   0.000000
     3  H    0.003196  -0.000000
     4  H    0.003238   0.000000
     5  H    0.002139  -0.000000
     6  H    0.002113   0.000000
 Sum of Mulliken charges =  -0.00000  -0.00000
 Mulliken charges and spin densities with hydrogens summed into heavy atoms:
               1          2
     1  P    0.000169  -0.000000
     2  P   -0.000169   0.000000
 Electronic spatial extent (au):  <R**2>=            645.9234
 Charge=             -0.0000 electrons
 Dipole moment (field-independent basis, Debye):
    X=              0.0010    Y=             -0.0048    Z=             -0.1522  Tot=              0.1523
 Quadrupole moment (field-independent basis, Debye-Ang):
   XX=            -28.6029   YY=            -31.2420   ZZ=            -28.5568
   XY=             -4.3322   XZ=              0.1550   YZ=              0.0945
 Traceless Quadrupole moment (field-independent basis, Debye-Ang):
   XX=              0.8644   YY=             -1.7748   ZZ=              0.9104
   XY=             -4.3322   XZ=              0.1550   YZ=              0.0945
 Octapole moment (field-independent basis, Debye-Ang**2):
  XXX=              0.0119  YYY=              0.0271  ZZZ=              0.6634  XYY=             -0.0426
  XXY=             -0.0285  XXZ=             -0.6447  XZZ=              0.0324  YZZ=              0.0086
  YYZ=              0.2212  XYZ=             -0.5048
 Hexadecapole moment (field-independent basis, Debye-Ang**3):
 XXXX=           -873.9404 YYYY=            -71.3773 ZZZZ=            -63.2671 XXXY=             -9.5191
 XXXZ=              0.3683 YYYX=             14.2658 YYYZ=              0.2472 ZZZX=             -0.5316
 ZZZY=              0.0378 XXYY=           -159.3776 XXZZ=           -146.0349 YYZZ=            -21.4518
 XXYZ=              0.4686 YYXZ=             -0.1500 ZZXY=              5.0026
 N-N= 5.831178315732D+01 E-N=-1.745863826960D+03  KE= 6.838626277659D+02
                          Isotropic Fermi Contact Couplings
        Atom                 a.u.       MegaHertz       Gauss      10(-4) cm-1
     1  P(31)              0.00000       0.00001       0.00001       0.00000
     2  P(31)             -0.00000      -0.00001      -0.00001      -0.00000
     3  H(1)              -0.00000      -0.00000      -0.00000      -0.00000
     4  H(1)               0.00000       0.00000       0.00000       0.00000
     5  H(1)              -0.00000      -0.00000      -0.00000      -0.00000
     6  H(1)               0.00000       0.00000       0.00000       0.00000
 --------------------------------------------------------
       Center         ----  Spin Dipole Couplings  ----
                      3XX-RR        3YY-RR        3ZZ-RR
 --------------------------------------------------------
     1   Atom       -0.000001      0.000000      0.000000
     2   Atom        0.000001     -0.000000     -0.000000
     3   Atom        0.000000     -0.000000     -0.000000
     4   Atom       -0.000000     -0.000000      0.000000
     5   Atom        0.000000     -0.000000      0.000000
     6   Atom       -0.000000      0.000000     -0.000000
 --------------------------------------------------------
                        XY            XZ            YZ
 --------------------------------------------------------
     1   Atom        0.000000     -0.000000      0.000000
     2   Atom       -0.000000     -0.000000      0.000000
     3   Atom        0.000000     -0.000000     -0.000000
     4   Atom       -0.000000     -0.000000     -0.000000
     5   Atom       -0.000000      0.000000      0.000000
     6   Atom        0.000000      0.000000      0.000000
 --------------------------------------------------------


 ---------------------------------------------------------------------------------
              Anisotropic Spin Dipole Couplings in Principal Axis System
 ---------------------------------------------------------------------------------

       Atom             a.u.   MegaHertz   Gauss  10(-4) cm-1        Axes

              Baa    -0.0000    -0.000    -0.000    -0.000  0.9944 -0.1048  0.0109
     1 P(31)  Bbb     0.0000     0.000     0.000     0.000  0.1054  0.9872 -0.1200
              Bcc     0.0000     0.000     0.000     0.000  0.0018  0.1205  0.9927
 
              Baa    -0.0000    -0.000    -0.000    -0.000  0.0011 -0.0410  0.9992
     2 P(31)  Bbb    -0.0000    -0.000    -0.000    -0.000  0.1027  0.9939  0.0407
              Bcc     0.0000     0.000     0.000     0.000  0.9947 -0.1026 -0.0053
 
              Baa    -0.0000    -0.000    -0.000    -0.000  0.0877  0.6987  0.7100
     3 H(1)   Bbb     0.0000     0.000     0.000     0.000  0.9888 -0.1475  0.0230
              Bcc     0.0000     0.000     0.000     0.000 -0.1208 -0.7000  0.7038
 
              Baa    -0.0000    -0.000    -0.000    -0.000  0.1233  0.7474  0.6528
     4 H(1)   Bbb    -0.0000    -0.000    -0.000    -0.000  0.9884 -0.1512 -0.0136
              Bcc     0.0000     0.000     0.000     0.000 -0.0885 -0.6469  0.7574
 
              Baa    -0.0000    -0.000    -0.000    -0.000  0.0881  0.7668 -0.6358
     5 H(1)   Bbb     0.0000     0.000     0.000     0.000  0.9885 -0.1459 -0.0389
              Bcc     0.0000     0.000     0.000     0.000  0.1226  0.6251  0.7709
 
              Baa    -0.0000    -0.000    -0.000    -0.000 -0.1231 -0.5693  0.8128
     6 H(1)   Bbb    -0.0000    -0.000    -0.000    -0.000  0.9881 -0.1461  0.0473
              Bcc     0.0000     0.000     0.000     0.000  0.0919  0.8090  0.5806
 

 ---------------------------------------------------------------------------------

 No NMR shielding tensors so no spin-rotation constants.
 Leave Link  601 at Mon Apr 21 20:57:01 2025, MaxMem=   536870912 cpu:               2.1 elap:               0.3
 (Enter /home/szhao/Apps/g16/l9999.exe)
 1\1\GINC-NODE05\FOpt\UM062X\6-311+G(d,p)\H4P2\SZHAO\21-Apr-2025\0\\#p 
 opt UM062X/6-311+G** nosymm int=superfine\\Title Card Required\\0,1\P,
 -2.14221652,0.,0.\P,2.14221652,0.,0.\H,2.0495371512,-1.0325732255,0.96
 84447525\H,-2.0449085733,1.0977351905,0.8935080916\H,2.0497628172,-0.9
 293776941,-1.0681728013\H,-2.0491729581,0.8521187339,-1.1306090532\\Ve
 rsion=ES64L-G16RevA.03\HF=-684.9248838\S2=0.\S2-1=0.\S2A=0.\RMSD=7.511
 e-09\RMSF=8.237e-06\Dipole=0.0004127,-0.0018996,-0.0598757\Quadrupole=
 0.642624,-1.3194992,0.6768752,-3.2208568,0.115258,0.070234\PG=C01 [X(H
 4P2)]\\@


 THE WISE MAN HAS THE POWER TO REASON AWAY
 WHAT A FOOL BELIEVES.
                     - DOOBIE BROTHERS
 Job cpu time:       0 days  0 hours 32 minutes 14.8 seconds.
 Elapsed time:       0 days  0 hours  4 minutes 29.1 seconds.
 File lengths (MBytes):  RWF=     22 Int=      0 D2E=      0 Chk=      3 Scr=      2
 Normal termination of Gaussian 16 at Mon Apr 21 20:57:02 2025.
