Title Card Required                                                     
FOpt      UM062X                                                      6-311+G(d,p)        
Number of atoms                            I                4
Info1-9                                    I   N=           9
          13          13           0           0           0         110
           2          18        -502
Full Title                                 C   N=           2
Title Card Required     
Route                                      C   N=           5
#p opt UM062X/6-311+G** nosymm int=superfine SCF=NoVarAcc   
Charge                                     I                1
Multiplicity                               I                2
Number of electrons                        I               13
Number of alpha electrons                  I                7
Number of beta electrons                   I                6
Number of basis functions                  I               56
Number of independent functions            I               56
Number of point charges in /Mol/           I                0
Number of translation vectors              I                0
Atomic numbers                             I   N=           4
           6           6           1           1
Nuclear charges                            R   N=           4
  6.00000000E+00  6.00000000E+00  1.00000000E+00  1.00000000E+00
Current cartesian coordinates              R   N=          12
 -1.39502606E+01  0.00000000E+00  0.00000000E+00  1.39502606E+01  0.00000000E+00
  0.00000000E+00 -1.60630472E+01  5.87291523E-13 -1.87228973E-13  1.60630456E+01
 -3.52767675E-14 -1.64724805E-13
Number of symbols in /Mol/                 I                0
Force Field                                I                0
Atom Types                                 C   N=           4
                                                
Int Atom Types                             I   N=           4
           0           0           0           0
MM charges                                 R   N=           4
  0.00000000E+00  0.00000000E+00  0.00000000E+00  0.00000000E+00
Integer atomic weights                     I   N=           4
          12          12           1           1
Real atomic weights                        R   N=           4
  1.20000000E+01  1.20000000E+01  1.00782504E+00  1.00782504E+00
Atom fragment info                         I   N=           4
           0           0           0           0
Atom residue num                           I   N=           4
           0           0           0           0
Nuclear spins                              I   N=           4
           0           0           1           1
Nuclear ZEff                               R   N=           4
 -3.60000000E+00 -3.60000000E+00 -1.00000000E+00 -1.00000000E+00
Nuclear ZNuc                               R   N=           4
  6.00000000E+00  6.00000000E+00  1.00000000E+00  1.00000000E+00
Nuclear QMom                               R   N=           4
  0.00000000E+00  0.00000000E+00  0.00000000E+00  0.00000000E+00
Nuclear GFac                               R   N=           4
  0.00000000E+00  0.00000000E+00  2.79284600E+00  2.79284600E+00
MicOpt                                     I   N=           4
          -2          -2          -1          -1
Number of residues                         I                0
Number of secondary structures             I                0
Redundant internal dimensions              I   N=           4
          12           8           4           0
Redundant internal coordinate indices      I   N=          48
           1          -1           0           0           1          -2
           0           0           1          -3           0           0
           2          -1           0           0           2          -2
           0           0           2          -3           0           0
           1           3           0           0           2           4
           0           0           2           1           3          -4
           1           2           4          -4           2           1
           3          -8           1           2           4          -8
Redundant internal coordinates             R   N=          12
 -1.39502606E+01  0.00000000E+00  0.00000000E+00  1.39502606E+01  0.00000000E+00
  0.00000000E+00  2.11278659E+00  2.11278494E+00  3.14159265E+00  3.14159265E+00
  3.14159265E+00  3.14159265E+00
ZRed-IntVec                                I   N=          12
          -1          -1          -1          -1          -1          -1
           0           0           0           0           0           0
ZRed-FPVec                                 R   N=          12
  0.00000000E+00  0.00000000E+00  0.00000000E+00  0.00000000E+00  0.00000000E+00
  0.00000000E+00  0.00000000E+00  0.00000000E+00  0.00000000E+00  0.00000000E+00
  0.00000000E+00  0.00000000E+00
ZRed-Constraint1                           R   N=          12
 -1.39502606E+01  0.00000000E+00  0.00000000E+00  1.39502606E+01  0.00000000E+00
  0.00000000E+00  2.08057524E+00  2.08053366E+00  3.14159265E+00  3.14159265E+00
  3.14159265E+00  3.14159265E+00
ZRed-Constraint2                           R   N=          12
 -1.39502606E+01  0.00000000E+00  0.00000000E+00  1.39502606E+01  0.00000000E+00
  0.00000000E+00  0.00000000E+00  0.00000000E+00  0.00000000E+00  0.00000000E+00
  0.00000000E+00  0.00000000E+00
Number of contracted shells                I               20
Number of primitive shells                 I               38
Pure/Cartesian d shells                    I                0
Pure/Cartesian f shells                    I                0
Highest angular momentum                   I                2
Largest degree of contraction              I                6
Shell types                                I   N=          20
           0          -1          -1          -1          -1          -2
           0          -1          -1          -1          -1          -2
           0           0           0           1           0           0
           0           1
Number of primitives per shell             I   N=          20
           6           3           1           1           1           1
           6           3           1           1           1           1
           3           1           1           1           3           1
           1           1
Shell to atom map                          I   N=          20
           1           1           1           1           1           1
           2           2           2           2           2           2
           3           3           3           3           4           4
           4           4
Primitive exponents                        R   N=          38
  4.56324000E+03  6.82024000E+02  1.54973000E+02  4.44553000E+01  1.30290000E+01
  1.82773000E+00  2.09642000E+01  4.80331000E+00  1.45933000E+00  4.83456000E-01
  1.45585000E-01  4.38000000E-02  6.26000000E-01  4.56324000E+03  6.82024000E+02
  1.54973000E+02  4.44553000E+01  1.30290000E+01  1.82773000E+00  2.09642000E+01
  4.80331000E+00  1.45933000E+00  4.83456000E-01  1.45585000E-01  4.38000000E-02
  6.26000000E-01  3.38650000E+01  5.09479000E+00  1.15879000E+00  3.25840000E-01
  1.02741000E-01  7.50000000E-01  3.38650000E+01  5.09479000E+00  1.15879000E+00
  3.25840000E-01  1.02741000E-01  7.50000000E-01
Contraction coefficients                   R   N=          38
  1.96665025E-03  1.52306019E-02  7.61269097E-02  2.60801033E-01  6.16462078E-01
  2.21006028E-01  1.14660081E-01  9.19999648E-01 -3.03068213E-03  1.00000000E+00
  1.00000000E+00  1.00000000E+00  1.00000000E+00  1.96665025E-03  1.52306019E-02
  7.61269097E-02  2.60801033E-01  6.16462078E-01  2.21006028E-01  1.14660081E-01
  9.19999648E-01 -3.03068213E-03  1.00000000E+00  1.00000000E+00  1.00000000E+00
  1.00000000E+00  2.54938145E-02  1.90373109E-01  8.52161486E-01  1.00000000E+00
  1.00000000E+00  1.00000000E+00  2.54938145E-02  1.90373109E-01  8.52161486E-01
  1.00000000E+00  1.00000000E+00  1.00000000E+00
P(S=P) Contraction coefficients            R   N=          38
  0.00000000E+00  0.00000000E+00  0.00000000E+00  0.00000000E+00  0.00000000E+00
  0.00000000E+00  4.02486927E-02  2.37593957E-01  8.15853851E-01  1.00000000E+00
  1.00000000E+00  1.00000000E+00  0.00000000E+00  0.00000000E+00  0.00000000E+00
  0.00000000E+00  0.00000000E+00  0.00000000E+00  0.00000000E+00  4.02486927E-02
  2.37593957E-01  8.15853851E-01  1.00000000E+00  1.00000000E+00  1.00000000E+00
  0.00000000E+00  0.00000000E+00  0.00000000E+00  0.00000000E+00  0.00000000E+00
  0.00000000E+00  0.00000000E+00  0.00000000E+00  0.00000000E+00  0.00000000E+00
  0.00000000E+00  0.00000000E+00  0.00000000E+00
Coordinates of each shell                  R   N=          60
 -1.39502606E+01  0.00000000E+00  0.00000000E+00 -1.39502606E+01  0.00000000E+00
  0.00000000E+00 -1.39502606E+01  0.00000000E+00  0.00000000E+00 -1.39502606E+01
  0.00000000E+00  0.00000000E+00 -1.39502606E+01  0.00000000E+00  0.00000000E+00
 -1.39502606E+01  0.00000000E+00  0.00000000E+00  1.39502606E+01  0.00000000E+00
  0.00000000E+00  1.39502606E+01  0.00000000E+00  0.00000000E+00  1.39502606E+01
  0.00000000E+00  0.00000000E+00  1.39502606E+01  0.00000000E+00  0.00000000E+00
  1.39502606E+01  0.00000000E+00  0.00000000E+00  1.39502606E+01  0.00000000E+00
  0.00000000E+00 -1.60630472E+01  5.87291523E-13 -1.87228973E-13 -1.60630472E+01
  5.87291523E-13 -1.87228973E-13 -1.60630472E+01  5.87291523E-13 -1.87228973E-13
 -1.60630472E+01  5.87291523E-13 -1.87228973E-13  1.60630456E+01 -3.52767675E-14
 -1.64724805E-13  1.60630456E+01 -3.52767675E-14 -1.64724805E-13  1.60630456E+01
 -3.52767675E-14 -1.64724805E-13  1.60630456E+01 -3.52767675E-14 -1.64724805E-13
Num ILSW                                   I              100
ILSW                                       I   N=         100
           1           0           0           0           2           0
           0           0           0           0        4336          -1
           7           0           0           0           2           0
           0           0           0           0           1           0
           1           1           0           0           0           0
           0           0      100000           0          -1           0
           0           0           0           0           0           0
           0           0           0           1           0           0
           0 -2000000000           1           0           0           0
           0           0           4          52           0           0
           0           0          55           0           0           0
           0           0           0           4           0           1
           0           0           0           0           0           0
           0           0           0           0           0           0
           0           0           0           0           0           0
           0           0           0           0           0           0
           0           0           0           0
Num RLSW                                   I               52
RLSW                                       R   N=          52
  1.00000000E+00  1.00000000E+00  1.00000000E+00  1.00000000E+00  5.40000000E-01
  0.00000000E+00  0.00000000E+00  1.00000000E+00  0.00000000E+00  0.00000000E+00
  0.00000000E+00  0.00000000E+00  1.00000000E+00  0.00000000E+00  0.00000000E+00
  0.00000000E+00  0.00000000E+00  1.00000000E+00  0.00000000E+00  0.00000000E+00
  0.00000000E+00  0.00000000E+00  1.00000000E+00  0.00000000E+00  0.00000000E+00
  0.00000000E+00  0.00000000E+00  1.00000000E+00  0.00000000E+00  0.00000000E+00
  0.00000000E+00  0.00000000E+00  1.00000000E+00  0.00000000E+00  0.00000000E+00
  0.00000000E+00  0.00000000E+00  0.00000000E+00  1.00000000E+00  1.00000000E+00
  0.00000000E+00  1.00000000E+00  0.00000000E+00  0.00000000E+00  0.00000000E+00
  0.00000000E+00  0.00000000E+00  0.00000000E+00  0.00000000E+00  0.00000000E+00
  0.00000000E+00  0.00000000E+00
MxBond                                     I                2
NBond                                      I   N=           4
           2           2           1           1
IBond                                      I   N=           8
           2           3           1           4           1           0
           2           0
RBond                                      R   N=           8
  1.00000000E-01  1.00000000E+00  1.00000000E-01  1.00000000E+00  1.00000000E+00
  0.00000000E+00  1.00000000E+00  0.00000000E+00
Virial Ratio                               R      2.002699612401608E+00
SCF Energy                                 R     -7.658494050956052E+01
Total Energy                               R     -7.658494050956052E+01
S**2                                       R      7.512991916499141E-01
S**2 after annihilation                    R      7.500012144819930E-01
RMS Force                                  R      1.421229112390492E-04
RMS Density                                R      3.245536449491595E-09
Job Status                                 I                1
Nuclear derivative order                   I                1
External E-field                           R   N=          35
  0.00000000E+00  0.00000000E+00  0.00000000E+00  0.00000000E+00  0.00000000E+00
  0.00000000E+00  0.00000000E+00  0.00000000E+00  0.00000000E+00  0.00000000E+00
  0.00000000E+00  0.00000000E+00  0.00000000E+00  0.00000000E+00  0.00000000E+00
  0.00000000E+00  0.00000000E+00  0.00000000E+00  0.00000000E+00  0.00000000E+00
  0.00000000E+00  0.00000000E+00  0.00000000E+00  0.00000000E+00  0.00000000E+00
  0.00000000E+00  0.00000000E+00  0.00000000E+00  0.00000000E+00  0.00000000E+00
  0.00000000E+00  0.00000000E+00  0.00000000E+00  0.00000000E+00  0.00000000E+00
IOpCl                                      I                1
IROHF                                      I                0
Alpha Orbital Energies                     R   N=          56
 -1.09084923E+01 -1.09084922E+01 -9.46467507E-01 -9.46467298E-01 -5.96597532E-01
 -5.96597506E-01 -4.17475709E-01 -3.98231441E-01 -2.95823298E-01 -2.95823233E-01
 -8.62095127E-02 -8.62093896E-02 -3.29104762E-02 -3.29104239E-02 -3.12345421E-02
 -3.12345078E-02 -3.03232892E-02 -3.03209604E-02  2.80333038E-02  2.80340680E-02
  3.10572295E-01  3.10573814E-01  4.03530922E-01  4.03530969E-01  4.12605854E-01
  4.12605894E-01  4.39043729E-01  4.39044019E-01  5.05832269E-01  5.05833206E-01
  9.28996790E-01  9.28996861E-01  9.30922901E-01  9.30943336E-01  1.11368912E+00
  1.11368914E+00  1.12403165E+00  1.12403167E+00  1.38904577E+00  1.38904635E+00
  1.66189705E+00  1.66189769E+00  1.66467825E+00  1.66468014E+00  2.19260359E+00
  2.19260439E+00  2.31248848E+00  2.31248894E+00  2.47512014E+00  2.47512024E+00
  2.48945156E+00  2.48945165E+00  2.96884697E+00  2.96884752E+00  2.32747194E+01
  2.32747207E+01
Beta Orbital Energies                      R   N=          56
 -1.09043473E+01 -1.09043472E+01 -9.22861102E-01 -9.22860880E-01 -5.82673069E-01
 -5.82673053E-01 -2.77003636E-01 -2.77003589E-01 -2.60680186E-01 -2.60680134E-01
 -8.82009043E-02 -8.82008612E-02 -3.04700653E-02 -3.04677409E-02 -2.49412042E-02
 -2.49411881E-02 -1.56826475E-02 -1.56826271E-02  4.60748862E-02  4.60756863E-02
  3.03981999E-01  3.03983644E-01  4.08160300E-01  4.08160335E-01  4.10728305E-01
  4.10728341E-01  4.68910959E-01  4.68911244E-01  5.27062255E-01  5.27063148E-01
  1.00000980E+00  1.00001005E+00  1.00903529E+00  1.00903556E+00  1.14630517E+00
  1.14630520E+00  1.14640709E+00  1.14640712E+00  1.39305527E+00  1.39305581E+00
  1.67903343E+00  1.67903410E+00  1.68580563E+00  1.68580630E+00  2.35058995E+00
  2.35059055E+00  2.35986371E+00  2.35986554E+00  2.50123452E+00  2.50123460E+00
  2.52479286E+00  2.52479295E+00  3.06207361E+00  3.06207492E+00  2.32878323E+01
  2.32878337E+01
Alpha MO coefficients                      R   N=        3136
  5.64020456E-01  4.64681425E-01 -2.03284457E-03 -9.80718589E-13 -6.26392783E-13
  9.34598658E-03 -1.18207840E-03  1.75727491E-13  2.19340973E-13 -3.96359480E-03
 -7.41847965E-05  1.07423443E-13 -6.46518821E-14  4.33709289E-04  6.45653474E-04
  3.87680522E-14  1.03600734E-13 -4.93264123E-04  8.07054733E-14  1.64581028E-05
  8.29351374E-04  2.61800583E-13  2.09911216E-04  1.72940353E-04  7.56456274E-07
  1.92428245E-16 -6.90257958E-16  3.47765638E-06  4.40159557E-07 -2.93066669E-16
  3.69981593E-16 -1.47351274E-06  2.65859398E-08 -1.19878413E-15 -6.56582562E-16
  1.62672361E-07 -2.37440808E-07  3.71916456E-16  2.27385844E-16 -1.39170033E-07
 -2.23406540E-15  2.56935887E-08  3.34081968E-07 -4.33818949E-15  3.68805092E-04
 -2.62756959E-03  2.18526651E-03 -1.84821078E-03 -1.83489838E-13 -9.17764224E-14
  1.36856426E-07 -9.75937818E-07  8.09172075E-07  6.87805418E-07  4.93483794E-15
  2.32792192E-15 -2.09911236E-04 -1.72940178E-04  7.56669379E-07  2.28839195E-16
  5.08912865E-16 -3.47893006E-06  4.39711982E-07  4.51036197E-16 -5.06886599E-16
  1.47674468E-06  2.86327342E-08 -7.75877874E-16  2.53043215E-16 -1.60153086E-07
 -2.43144901E-07  5.39043068E-16 -1.58134287E-16  2.19933240E-07 -6.21348861E-16
  2.56991684E-08 -2.87888334E-07  2.37175826E-16  5.64020456E-01  4.64681424E-01
  2.03284471E-03  5.27166880E-13 -9.48781746E-13  9.34599670E-03  1.18209030E-03
 -1.60651075E-13  1.86371578E-13 -3.96359300E-03  7.41845683E-05  4.26470892E-14
  8.96901386E-14  4.33705110E-04 -6.45655134E-04 -9.79175644E-14  3.83718359E-14
 -4.71627544E-04 -2.32892899E-13 -1.64731096E-05  8.41850239E-04  9.75429986E-14
 -1.37658948E-07  9.79871111E-07 -8.17410402E-07  6.87893499E-07  4.45383541E-16
 -6.01103336E-16  3.68803281E-04 -2.62758615E-03  2.18527579E-03  1.84822002E-03
  8.20376642E-14 -1.74192677E-13 -2.35622418E-03 -3.84664375E-03 -1.66716996E-03
  1.99447944E-12  8.31945491E-13  1.13436679E-02 -2.55758464E-03  3.48482846E-12
  1.48259846E-12  7.16465692E-03 -9.54063990E-04  1.07774086E-12  4.28934792E-13
 -1.61566533E-04 -6.77224890E-05 -1.01370438E-13 -4.91112406E-14 -1.18643053E-04
  1.49089370E-14 -6.91486191E-06  2.23509727E-04  8.00533533E-14 -1.12738676E-01
 -1.84051041E-01  7.97696058E-02 -4.07960934E-11  8.72019356E-11  5.42762479E-01
  1.22373481E-01 -7.20067922E-11  1.53069826E-10  3.42808232E-01  4.56491754E-02
 -2.18655391E-11  4.67628631E-11 -7.73065444E-03  3.24053964E-03  2.43946033E-12
 -4.39763650E-12 -6.32449768E-03 -3.24246094E-12  4.17495302E-04  1.03203999E-02
  1.05672077E-12  2.91158647E-03  3.62000435E-03 -5.96967678E-05  4.98286609E-04
 -2.26693221E-13 -1.00702767E-13  1.39311457E-01  1.73207469E-01 -2.85643704E-03
 -2.38416496E-02  4.60917803E-12 -1.01266269E-11 -1.12738701E-01 -1.84051087E-01
 -7.97694751E-02  9.52153018E-11  4.01647243E-11  5.42762679E-01 -1.22373353E-01
  1.66461142E-10  7.15696763E-11  3.42808505E-01 -4.56491682E-02  5.12567805E-11
  2.09945188E-11 -7.73066804E-03 -3.24053782E-03 -4.87538964E-12 -2.29392827E-12
 -5.77503019E-03  6.87502817E-13 -4.17110021E-04  1.06376002E-02  3.82559584E-12
  2.35622324E-03  3.84664216E-03 -1.66717578E-03  8.80395200E-13 -1.81042778E-12
 -1.13436646E-02 -2.55759189E-03  1.54751657E-12 -3.17849033E-12 -7.16464239E-03
 -9.54059339E-04  4.96933719E-13 -9.60478400E-13  1.61573087E-04 -6.77311737E-05
 -4.81090054E-14  9.33615144E-14  1.34235480E-04  6.86469695E-14 -6.92290748E-06
 -2.14509712E-04 -2.05184379E-14  1.39311281E-01  1.73207351E-01 -2.85641321E-03
  2.38416376E-02 -1.08479733E-11 -4.80492609E-12 -2.91159200E-03 -3.62001968E-03
  5.97010375E-05  4.98287802E-04 -9.54159157E-14  2.11935354E-13 -3.92622301E-03
 -6.54579935E-03  1.52706522E-02  2.60680676E-11  9.50889535E-12  2.02884939E-02
  2.25911757E-02  4.05832828E-11  1.49295892E-11  2.42519092E-02  1.29242183E-02
  2.82181505E-11  1.01326949E-11  1.66053127E-03 -1.99375228E-04 -4.42676717E-13
 -1.77256366E-13  1.37042926E-03 -1.98706845E-13  1.00594350E-06 -2.36955123E-03
 -4.86763363E-13 -6.03115053E-02 -1.00551349E-01 -2.34575387E-01 -1.60306044E-10
  3.62022543E-10  3.11655667E-01 -3.47027274E-01 -2.50952818E-10  5.64047372E-10
  3.72538577E-01 -1.98531278E-01 -1.72732175E-10  3.91325295E-10  2.55076908E-02
  3.06268076E-03  2.56832161E-12 -6.30337245E-12  2.10207342E-02  6.86655474E-12
  5.50399449E-06 -3.64168491E-02 -3.26610355E-12 -8.76458668E-03 -1.57989829E-02
 -7.25055269E-03 -7.24977151E-04  1.47345316E-12  5.14001211E-13 -1.34634410E-01
 -2.42690986E-01 -1.11377103E-01  1.11364884E-02 -8.77872937E-12  2.03684266E-11
 -6.03114695E-02 -1.00551287E-01  2.34575362E-01  3.99452582E-10  1.48032438E-10
  3.11655489E-01  3.47027301E-01  6.21862065E-10  2.32425687E-10  3.72538167E-01
  1.98531399E-01  4.32066142E-10  1.58446857E-10  2.55076539E-02 -3.06267161E-03
 -6.92165367E-12 -2.49518970E-12  2.10275477E-02 -3.21476562E-12 -5.49822571E-06
 -3.64128997E-02 -7.39968692E-12  3.92622761E-03  6.54580718E-03  1.52706531E-02
  1.07792736E-11 -2.33976531E-11 -2.02885195E-02  2.25911728E-02  1.68773311E-11
 -3.64517264E-11 -2.42519380E-02  1.29242162E-02  1.17357021E-11 -2.52334283E-11
 -1.66052323E-03 -1.99379877E-04 -1.27246701E-13  4.28861710E-13 -1.36687728E-03
 -4.33353911E-13  1.00557111E-06  2.37160199E-03  2.41128029E-13 -1.34634451E-01
 -2.42691091E-01 -1.11377096E-01 -1.11365035E-02  2.25618338E-11  8.04406020E-12
  8.76458173E-03  1.57989676E-02  7.25055170E-03 -7.24975223E-04  5.97103947E-13
 -1.31375618E-12 -6.52416844E-12 -1.04902929E-11  1.89228690E-11 -9.24660130E-02
  1.86567517E-01  2.87824503E-11  2.90805455E-11 -1.45561910E-01  2.93697946E-01
  4.42083798E-11  2.16299054E-11 -1.31661383E-01  2.65650295E-01  3.68185843E-12
  5.13114381E-12 -1.08850085E-02  2.19623955E-02  1.80720341E-11 -1.70041378E-02
  1.86748516E-11  8.38291424E-12  8.42746356E-03  2.51240528E-12  4.05708596E-12
  7.13840460E-12  1.86511742E-01  9.25784818E-02 -1.13519434E-11  1.10474895E-11
  2.93610153E-01  1.45738967E-01 -1.70565719E-11  7.35788093E-12  2.65570889E-01
  1.31821529E-01 -2.00304487E-12  2.39121513E-12  2.19558273E-02  1.08982506E-02
  1.65749909E-11  8.43772185E-03  1.61083229E-11  1.03396925E-11  1.69990695E-02
 -1.13234195E-11 -2.17578450E-11 -8.56530413E-12 -4.94451833E-13 -7.26765740E-03
  1.46637829E-02  4.61563264E-12  8.88453914E-12  4.34014627E-12 -2.15828958E-13
  1.46594109E-02  7.27650305E-03 -6.66475681E-12 -1.07248102E-11  1.93372448E-11
 -9.24602996E-02  1.86556215E-01  2.95119380E-11  2.96850438E-11 -1.45550615E-01
  2.93675519E-01  4.52340061E-11  2.17714821E-11 -1.31652706E-01  2.65633137E-01
  3.63552179E-12  4.99906343E-12 -1.08987852E-02  2.19902386E-02  1.81102046E-11
 -1.71738250E-02  1.86625196E-11  8.29675501E-12  8.51155405E-03 -2.56211797E-12
 -4.13993104E-12 -7.29604680E-12 -1.86500413E-01 -9.25727467E-02  1.16079325E-11
 -1.12797869E-11 -2.93587685E-01 -1.45727634E-01  1.74243634E-11 -7.41129624E-12
 -2.65553692E-01 -1.31812823E-01  2.01743629E-12 -2.33090062E-12 -2.19836612E-02
 -1.09120369E-02 -1.65481918E-11 -8.52191325E-03 -1.60973754E-11 -1.03646145E-11
 -1.71687031E-02 -1.15721146E-11 -2.23287899E-11 -9.07310841E-12 -5.12765176E-13
 -7.30939519E-03  1.47480153E-02 -4.70876681E-12 -9.09272347E-12 -4.54015636E-12
  2.23420298E-13 -1.47436158E-02 -7.31829037E-03  7.55278837E-11  1.13070366E-10
 -2.01217677E-10  2.04121905E-01  1.01166662E-01 -2.61282071E-10 -3.23275129E-10
  3.29814624E-01  1.63462058E-01 -5.81871851E-10 -2.04939623E-10  3.14981761E-01
  1.56110185E-01 -2.16484195E-10 -5.50914691E-11  5.97210455E-02  2.95987354E-02
 -3.70902086E-11 -9.19304497E-03  5.92657694E-11 -3.40898062E-11 -1.85484569E-02
  4.85344983E-11  7.26286607E-11  1.29329125E-10 -6.97049661E-02  1.40429501E-01
 -1.67328951E-10  2.07701925E-10 -1.12627193E-01  2.26902172E-01 -3.76075917E-10
  1.31159083E-10 -1.07561693E-01  2.16697647E-01 -1.38052524E-10  3.53200326E-11
 -2.03938799E-02  4.10862637E-02  3.00293336E-11  1.27607684E-02 -3.89218297E-11
  9.06712761E-12 -6.33411514E-03  1.01674387E-10  2.03257728E-10  2.18833504E-10
  5.63994284E-12  1.80155654E-02  8.92880827E-03  6.52847206E-11  1.31140503E-10
  1.41352088E-10 -3.70360378E-12 -6.15205349E-03  1.23941554E-02 -5.19768841E-11
 -7.78130240E-11  1.38473358E-10 -1.40471482E-01 -6.96204151E-02  1.79810928E-10
  2.22470298E-10 -2.26970008E-01 -1.12490575E-01  4.00430340E-10  1.41035412E-10
 -2.16762380E-01 -1.07431182E-01  1.48975403E-10  3.79133450E-11 -4.10983939E-02
 -2.03690431E-02  2.55205649E-11  6.32642873E-03 -4.07892393E-11  2.34574369E-11
  1.27645744E-02  7.05256628E-11  1.05536656E-10  1.87929694E-10 -1.01289789E-01
  2.04060844E-01 -2.43143137E-10  3.01814795E-10 -1.63661003E-01  3.29715973E-01
 -5.46482136E-10  1.90586967E-10 -1.56300176E-01  3.14887544E-01 -2.00617582E-10
  5.13235816E-11 -2.96346959E-02  5.97030853E-02  4.36435238E-11  1.85429213E-02
 -5.65539883E-11  1.31803480E-11 -9.20424031E-03 -6.99696219E-11 -1.39877922E-10
 -1.50592480E-10 -3.88130753E-12 -1.23978550E-02 -6.14458743E-03  9.48664494E-11
  1.90561413E-10  2.05408902E-10 -5.38169250E-12 -8.93968293E-03  1.80101927E-02
  2.94554617E-02  4.93390778E-02  5.68306769E-02  2.01034846E-11  1.07113623E-11
 -1.44181374E-01  1.19788932E-01  6.42674360E-11  3.19044267E-11 -5.94201676E-01
  1.45144925E-01  3.01046545E-12  5.38087012E-12  1.09975645E+00 -4.37942796E-01
  2.96677781E-11  4.40264683E-12  8.56340362E-03  3.46993597E-12 -1.71739945E-03
 -1.22141251E-02  8.63863281E-12  2.08410014E-02  3.49095219E-02 -4.02101863E-02
 -7.03668781E-12  1.36834595E-11 -1.02014652E-01 -8.47558964E-02 -2.06630042E-11
  4.22878903E-11 -4.20422524E-01 -1.02696500E-01 -2.01994523E-12  2.34627406E-12
  7.78126931E-01  3.09866911E-01 -7.69669099E-12  1.66897320E-11  4.45855793E-03
 -5.61424740E-12  1.21845645E-03 -9.56614636E-03  2.56358144E-12 -7.41218212E-04
  1.52015766E-01 -1.04407515E-01 -5.07550185E-03  2.96537481E-12  1.22335899E-12
 -5.24635002E-04  1.07558068E-01 -7.38757673E-02  3.59110873E-03 -6.97664486E-13
  2.08507289E-12 -2.08411680E-02 -3.49097746E-02 -4.02099893E-02 -1.42292621E-11
 -7.57213826E-12  1.02015050E-01 -8.47559909E-02 -4.54797048E-11 -2.25641749E-11
  4.20427983E-01 -1.02695071E-01 -2.13720098E-12 -3.79817252E-12 -7.78127880E-01
  3.09856355E-01 -2.09893789E-11 -3.11252500E-12 -6.05641172E-03 -2.45593197E-12
  1.21734863E-03  8.64337157E-03 -6.11109332E-12  2.94555534E-02  4.93392224E-02
 -5.68302540E-02 -9.89935210E-12  1.93623048E-11 -1.44181660E-01 -1.19788746E-01
 -2.91326049E-11  5.98031707E-11 -5.94204725E-01 -1.45142892E-01 -2.78926729E-12
  3.34899619E-12  1.09975840E+00  4.37935960E-01 -1.08707416E-11  2.35873345E-11
  6.29779830E-03 -7.93222145E-12  1.71897976E-03 -1.35220934E-02  3.62975346E-12
  5.24188385E-04 -1.07557199E-01  7.38676603E-02  3.59112034E-03 -2.09870600E-12
 -8.65280134E-13 -7.41124279E-04  1.52014925E-01 -1.04403961E-01  5.07541907E-03
 -9.81554069E-13  2.94913827E-12  1.14168957E-11  2.26425942E-11 -7.43803905E-11
 -9.50013605E-02 -4.70868519E-02 -8.58935842E-11 -1.07928158E-11 -1.06875601E-01
 -5.29718233E-02 -3.58586909E-10 -3.33620198E-10 -3.40182636E-01 -1.68609263E-01
  6.10649927E-10  1.28463917E-09  9.30413238E-01  4.61155225E-01  3.37809310E-12
  3.86244517E-03 -2.07618051E-11  2.82445985E-11  7.79271167E-03  4.74206460E-12
  9.86338408E-12  3.34661912E-11  2.67042874E-02 -5.38029634E-02 -3.97136189E-11
  6.00817943E-13  3.00423445E-02 -6.05275782E-02 -1.63219191E-10  1.51192949E-10
  9.56224378E-02 -1.92658883E-01  2.79903574E-10 -6.03050542E-10 -2.61531627E-01
  5.26930215E-01 -1.30630699E-11 -4.41331778E-03  1.11269639E-11  5.24708022E-12
  2.19051399E-03  2.26123181E-11 -3.20416829E-11  1.97746379E-10  2.46169818E-11
  3.14672102E-03  1.55971984E-03  1.05539585E-11 -1.46221798E-11  9.97220834E-11
 -1.21300152E-11 -8.84492894E-04  1.78212892E-03 -6.45779204E-12 -1.28107169E-11
  4.20936360E-11  5.38189912E-02  2.66718329E-02  4.86131898E-11  6.07986047E-12
  6.05455536E-02  3.00058033E-02  2.02941794E-10  1.88806686E-10  1.92716491E-01
  9.55063319E-02 -3.45604917E-10 -7.27185086E-10 -5.27087773E-01 -2.61214068E-01
 -1.91458424E-12 -2.18784819E-03  1.17629626E-11 -1.59930985E-11 -4.41462503E-03
  8.34577333E-12  1.73697283E-11  5.89670594E-11  4.71440791E-02 -9.49729325E-02
 -6.99850916E-11  9.69970086E-13  5.30362015E-02 -1.06843602E-01 -2.87641044E-10
  2.66412436E-10  1.68814236E-01 -3.40080969E-01  4.93268166E-10 -1.06312445E-09
 -4.61715831E-01  9.30135196E-01 -2.30542853E-11 -7.79038978E-03  1.96359402E-11
  9.24500368E-12  3.86714439E-03 -1.27996480E-11  1.81360276E-11 -1.11989153E-10
 -1.39390802E-11 -1.78268052E-03 -8.83428422E-04  1.86043607E-11 -2.57695124E-11
  1.75971086E-10 -2.13957073E-11 -1.56161111E-03  3.14577283E-03 -1.50212808E-11
 -2.46005943E-11  7.36092961E-11  4.11209070E-02 -8.29633884E-02  7.31518810E-11
  6.36559748E-11  3.88734426E-02 -7.84280428E-02  2.74435060E-10  3.18586548E-10
  1.55031729E-01 -3.12783841E-01 -5.49758732E-10 -8.90855279E-10 -4.39708880E-01
  8.87137679E-01  1.48853652E-12  6.50802280E-03 -3.05107610E-12 -1.15785529E-11
 -3.22568111E-03  8.50672936E-13  1.15409194E-12  4.94831156E-12 -5.66878912E-02
 -2.81362624E-02 -3.84666338E-12  4.91478881E-12 -5.35878149E-02 -2.65971851E-02
 -1.34481191E-11  2.02728060E-11 -2.13726446E-01 -1.06081092E-01  3.93554186E-11
 -5.11758900E-11  6.06193739E-01  3.00878130E-01 -2.50277477E-12 -2.20700686E-03
 -2.19729895E-12 -1.02255385E-12 -4.44665982E-03 -1.35931997E-11  2.78576411E-11
  2.24680910E-11 -1.26748093E-11 -2.31211246E-03  4.66494677E-03  1.30876259E-14
 -2.32442412E-12 -1.07928310E-11 -1.39365089E-12  3.18785254E-03  1.58228536E-03
  1.02606289E-11  1.68037496E-11 -5.02849388E-11 -2.81063206E-02  5.67133548E-02
 -4.99672953E-11 -4.34880071E-11 -2.65715258E-02  5.36172136E-02 -1.87453446E-10
 -2.17636430E-10 -1.05958309E-01  2.13802497E-01  3.75559049E-10  6.08539424E-10
  3.00512281E-01 -6.06373947E-01 -1.01488211E-12 -4.44942623E-03  2.08670267E-12