Title Card Required                                                     
FOpt      UM062X                                                      6-311+G(d,p)        
Number of atoms                            I                4
Info1-9                                    I   N=           9
          13          13           0           0           0         110
           2          18        -502
Full Title                                 C   N=           2
Title Card Required     
Route                                      C   N=           4
#p opt UM062X/6-311+G** nosymm int=superfine    
Charge                                     I                0
Multiplicity                               I                1
Number of electrons                        I               14
Number of alpha electrons                  I                7
Number of beta electrons                   I                7
Number of basis functions                  I               56
Number of independent functions            I               56
Number of point charges in /Mol/           I                0
Number of translation vectors              I                0
Atomic numbers                             I   N=           4
           6           6           1           1
Nuclear charges                            R   N=           4
  6.00000000E+00  6.00000000E+00  1.00000000E+00  1.00000000E+00
Current cartesian coordinates              R   N=          12
 -2.56553943E+00  0.00000000E+00  0.00000000E+00  2.56553943E+00  0.00000000E+00
  0.00000000E+00 -2.45587697E+00  2.72491889E-01  2.09142698E+00  2.45617004E+00
  1.83916451E+00 -1.03242917E+00
Number of symbols in /Mol/                 I                0
Force Field                                I                0
Atom Types                                 C   N=           4
                                                
Int Atom Types                             I   N=           4
           0           0           0           0
MM charges                                 R   N=           4
  0.00000000E+00  0.00000000E+00  0.00000000E+00  0.00000000E+00
Integer atomic weights                     I   N=           4
          12          12           1           1
Real atomic weights                        R   N=           4
  1.20000000E+01  1.20000000E+01  1.00782504E+00  1.00782504E+00
Atom fragment info                         I   N=           4
           0           0           0           0
Atom residue num                           I   N=           4
           0           0           0           0
Nuclear spins                              I   N=           4
           0           0           1           1
Nuclear ZEff                               R   N=           4
 -3.60000000E+00 -3.60000000E+00 -1.00000000E+00 -1.00000000E+00
Nuclear ZNuc                               R   N=           4
  6.00000000E+00  6.00000000E+00  1.00000000E+00  1.00000000E+00
Nuclear QMom                               R   N=           4
  0.00000000E+00  0.00000000E+00  0.00000000E+00  0.00000000E+00
Nuclear GFac                               R   N=           4
  0.00000000E+00  0.00000000E+00  2.79284600E+00  2.79284600E+00
MicOpt                                     I   N=           4
          -2          -2          -1          -1
Number of residues                         I                0
Number of secondary structures             I                0
Redundant internal dimensions              I   N=           4
          11           8           2           1
Redundant internal coordinate indices      I   N=          44
           1          -1           0           0           1          -2
           0           0           1          -3           0           0
           2          -1           0           0           2          -2
           0           0           2          -3           0           0
           1           3           0           0           2           4
           0           0           2           1           3           0
           1           2           4           0           3           1
           2           4
Redundant internal coordinates             R   N=          11
 -2.56553943E+00  0.00000000E+00  0.00000000E+00  2.56553943E+00  0.00000000E+00
  0.00000000E+00  2.11195277E+00  2.11196538E+00  1.51884829E+00  1.51898756E+00
 -1.95275752E+00
ZRed-IntVec                                I   N=          11
          -1          -1          -1          -1          -1          -1
           0           0           0           0           0
ZRed-FPVec                                 R   N=          11
  0.00000000E+00  0.00000000E+00  0.00000000E+00  0.00000000E+00  0.00000000E+00
  0.00000000E+00  0.00000000E+00  0.00000000E+00  0.00000000E+00  0.00000000E+00
  0.00000000E+00
ZRed-Constraint1                           R   N=          11
 -2.56553943E+00  0.00000000E+00  0.00000000E+00  2.56553943E+00  0.00000000E+00
  0.00000000E+00  2.11079913E+00  2.11070705E+00  1.67217611E+00  1.67276462E+00
 -1.65242814E+00
ZRed-Constraint2                           R   N=          11
 -2.56553943E+00  0.00000000E+00  0.00000000E+00  2.56553943E+00  0.00000000E+00
  0.00000000E+00  0.00000000E+00  0.00000000E+00  0.00000000E+00  0.00000000E+00
  0.00000000E+00
Number of contracted shells                I               20
Number of primitive shells                 I               38
Pure/Cartesian d shells                    I                0
Pure/Cartesian f shells                    I                0
Highest angular momentum                   I                2
Largest degree of contraction              I                6
Shell types                                I   N=          20
           0          -1          -1          -1          -1          -2
           0          -1          -1          -1          -1          -2
           0           0           0           1           0           0
           0           1
Number of primitives per shell             I   N=          20
           6           3           1           1           1           1
           6           3           1           1           1           1
           3           1           1           1           3           1
           1           1
Shell to atom map                          I   N=          20
           1           1           1           1           1           1
           2           2           2           2           2           2
           3           3           3           3           4           4
           4           4
Primitive exponents                        R   N=          38
  4.56324000E+03  6.82024000E+02  1.54973000E+02  4.44553000E+01  1.30290000E+01
  1.82773000E+00  2.09642000E+01  4.80331000E+00  1.45933000E+00  4.83456000E-01
  1.45585000E-01  4.38000000E-02  6.26000000E-01  4.56324000E+03  6.82024000E+02
  1.54973000E+02  4.44553000E+01  1.30290000E+01  1.82773000E+00  2.09642000E+01
  4.80331000E+00  1.45933000E+00  4.83456000E-01  1.45585000E-01  4.38000000E-02
  6.26000000E-01  3.38650000E+01  5.09479000E+00  1.15879000E+00  3.25840000E-01
  1.02741000E-01  7.50000000E-01  3.38650000E+01  5.09479000E+00  1.15879000E+00
  3.25840000E-01  1.02741000E-01  7.50000000E-01
Contraction coefficients                   R   N=          38
  1.96665025E-03  1.52306019E-02  7.61269097E-02  2.60801033E-01  6.16462078E-01
  2.21006028E-01  1.14660081E-01  9.19999648E-01 -3.03068213E-03  1.00000000E+00
  1.00000000E+00  1.00000000E+00  1.00000000E+00  1.96665025E-03  1.52306019E-02
  7.61269097E-02  2.60801033E-01  6.16462078E-01  2.21006028E-01  1.14660081E-01
  9.19999648E-01 -3.03068213E-03  1.00000000E+00  1.00000000E+00  1.00000000E+00
  1.00000000E+00  2.54938145E-02  1.90373109E-01  8.52161486E-01  1.00000000E+00
  1.00000000E+00  1.00000000E+00  2.54938145E-02  1.90373109E-01  8.52161486E-01
  1.00000000E+00  1.00000000E+00  1.00000000E+00
P(S=P) Contraction coefficients            R   N=          38
  0.00000000E+00  0.00000000E+00  0.00000000E+00  0.00000000E+00  0.00000000E+00
  0.00000000E+00  4.02486927E-02  2.37593957E-01  8.15853851E-01  1.00000000E+00
  1.00000000E+00  1.00000000E+00  0.00000000E+00  0.00000000E+00  0.00000000E+00
  0.00000000E+00  0.00000000E+00  0.00000000E+00  0.00000000E+00  4.02486927E-02
  2.37593957E-01  8.15853851E-01  1.00000000E+00  1.00000000E+00  1.00000000E+00
  0.00000000E+00  0.00000000E+00  0.00000000E+00  0.00000000E+00  0.00000000E+00
  0.00000000E+00  0.00000000E+00  0.00000000E+00  0.00000000E+00  0.00000000E+00
  0.00000000E+00  0.00000000E+00  0.00000000E+00
Coordinates of each shell                  R   N=          60
 -2.56553943E+00  0.00000000E+00  0.00000000E+00 -2.56553943E+00  0.00000000E+00
  0.00000000E+00 -2.56553943E+00  0.00000000E+00  0.00000000E+00 -2.56553943E+00
  0.00000000E+00  0.00000000E+00 -2.56553943E+00  0.00000000E+00  0.00000000E+00
 -2.56553943E+00  0.00000000E+00  0.00000000E+00  2.56553943E+00  0.00000000E+00
  0.00000000E+00  2.56553943E+00  0.00000000E+00  0.00000000E+00  2.56553943E+00
  0.00000000E+00  0.00000000E+00  2.56553943E+00  0.00000000E+00  0.00000000E+00
  2.56553943E+00  0.00000000E+00  0.00000000E+00  2.56553943E+00  0.00000000E+00
  0.00000000E+00 -2.45587697E+00  2.72491889E-01  2.09142698E+00 -2.45587697E+00
  2.72491889E-01  2.09142698E+00 -2.45587697E+00  2.72491889E-01  2.09142698E+00
 -2.45587697E+00  2.72491889E-01  2.09142698E+00  2.45617004E+00  1.83916451E+00
 -1.03242917E+00  2.45617004E+00  1.83916451E+00 -1.03242917E+00  2.45617004E+00
  1.83916451E+00 -1.03242917E+00  2.45617004E+00  1.83916451E+00 -1.03242917E+00
Num ILSW                                   I              100
ILSW                                       I   N=         100
           1           0           0           1           2           0
           0           0           0           0        4336          -1
           7           0           0           0           2           0
           0           0           0           0           1           0
           1           1           0           0           0           0
           0           0      100000           0          -1           0
           0           0           0           0           0           0
           0           0           0           1           0           0
           0 -2000000000           1           0           0           0
           0           0           4          52           0           0
           0           0          55           0           0           0
           0           0           0           4           0           1
           0           0           0           0           0           0
           0           0           0           0           0           0
           0           0           0           0           0           0
           0           0           0           0           0           0
           0           0           0           0
Num RLSW                                   I               52
RLSW                                       R   N=          52
  1.00000000E+00  1.00000000E+00  1.00000000E+00  1.00000000E+00  5.40000000E-01
  0.00000000E+00  0.00000000E+00  1.00000000E+00  0.00000000E+00  0.00000000E+00
  0.00000000E+00  0.00000000E+00  1.00000000E+00  0.00000000E+00  0.00000000E+00
  0.00000000E+00  0.00000000E+00  1.00000000E+00  0.00000000E+00  0.00000000E+00
  0.00000000E+00  0.00000000E+00  1.00000000E+00  0.00000000E+00  0.00000000E+00
  0.00000000E+00  0.00000000E+00  1.00000000E+00  0.00000000E+00  0.00000000E+00
  0.00000000E+00  0.00000000E+00  1.00000000E+00  0.00000000E+00  0.00000000E+00
  0.00000000E+00  0.00000000E+00  0.00000000E+00  1.00000000E+00  1.00000000E+00
  0.00000000E+00  1.00000000E+00  0.00000000E+00  0.00000000E+00  0.00000000E+00
  0.00000000E+00  0.00000000E+00  0.00000000E+00  0.00000000E+00  0.00000000E+00
  0.00000000E+00  0.00000000E+00
MxBond                                     I                2
NBond                                      I   N=           4
           2           2           1           1
IBond                                      I   N=           8
           2           3           1           4           1           0
           2           0
RBond                                      R   N=           8
  1.00000000E-01  1.00000000E+00  1.00000000E-01  1.00000000E+00  1.00000000E+00
  0.00000000E+00  1.00000000E+00  0.00000000E+00
Virial Ratio                               R      2.006472245034160E+00
SCF Energy                                 R     -7.693888356834704E+01
Total Energy                               R     -7.693888356834704E+01
S**2                                       R     -8.881784197001252E-16
S**2 after annihilation                    R      1.607602939657226E-13
RMS Force                                  R      1.329458020830178E-06
RMS Density                                R      1.662023253556001E-09
Job Status                                 I                1
Nuclear derivative order                   I                1
External E-field                           R   N=          35
  0.00000000E+00  0.00000000E+00  0.00000000E+00  0.00000000E+00  0.00000000E+00
  0.00000000E+00  0.00000000E+00  0.00000000E+00  0.00000000E+00  0.00000000E+00
  0.00000000E+00  0.00000000E+00  0.00000000E+00  0.00000000E+00  0.00000000E+00
  0.00000000E+00  0.00000000E+00  0.00000000E+00  0.00000000E+00  0.00000000E+00
  0.00000000E+00  0.00000000E+00  0.00000000E+00  0.00000000E+00  0.00000000E+00
  0.00000000E+00  0.00000000E+00  0.00000000E+00  0.00000000E+00  0.00000000E+00
  0.00000000E+00  0.00000000E+00  0.00000000E+00  0.00000000E+00  0.00000000E+00
IOpCl                                      I                1
IROHF                                      I                0
Alpha Orbital Energies                     R   N=          56
 -1.06699332E+01 -1.06698952E+01 -7.36447004E-01 -7.07994477E-01 -3.86957663E-01
 -3.85467254E-01 -2.71084512E-01 -1.00064690E-01 -8.90541552E-02 -6.89470789E-02
  2.94943428E-02  5.58222207E-02  7.43794738E-02  7.59046107E-02  9.87559143E-02
  9.98884275E-02  1.05438969E-01  1.50651365E-01  1.73403966E-01  2.00881655E-01
  4.45520566E-01  4.65409943E-01  5.65864109E-01  5.81920749E-01  6.01073106E-01
  6.04752603E-01  6.24311075E-01  6.33254811E-01  6.77059696E-01  8.18384662E-01
  1.12919068E+00  1.12920891E+00  1.14404777E+00  1.16124282E+00  1.33533503E+00
  1.33799225E+00  1.34816674E+00  1.50099701E+00  1.58998542E+00  1.61054594E+00
  1.85363495E+00  1.85819178E+00  1.88110508E+00  1.89696409E+00  2.40483652E+00
  2.40556184E+00  2.52054023E+00  2.52642151E+00  2.70886985E+00  2.71243617E+00
  2.71757609E+00  2.81460049E+00  3.19057056E+00  3.19189241E+00  2.35071151E+01
  2.35369164E+01
Beta Orbital Energies                      R   N=          56
 -1.06699332E+01 -1.06698952E+01 -7.36447004E-01 -7.07994477E-01 -3.86957663E-01
 -3.85467254E-01 -2.71084512E-01 -1.00064690E-01 -8.90541552E-02 -6.89470789E-02
  2.94943428E-02  5.58222207E-02  7.43794738E-02  7.59046107E-02  9.87559143E-02
  9.98884275E-02  1.05438969E-01  1.50651365E-01  1.73403966E-01  2.00881655E-01
  4.45520566E-01  4.65409943E-01  5.65864109E-01  5.81920749E-01  6.01073106E-01
  6.04752603E-01  6.24311075E-01  6.33254811E-01  6.77059696E-01  8.18384662E-01
  1.12919068E+00  1.12920891E+00  1.14404777E+00  1.16124282E+00  1.33533503E+00
  1.33799225E+00  1.34816674E+00  1.50099701E+00  1.58998542E+00  1.61054594E+00
  1.85363495E+00  1.85819178E+00  1.88110508E+00  1.89696409E+00  2.40483652E+00
  2.40556184E+00  2.52054023E+00  2.52642151E+00  2.70886985E+00  2.71243617E+00
  2.71757609E+00  2.81460049E+00  3.19057056E+00  3.19189241E+00  2.35071151E+01
  2.35369164E+01
Alpha MO coefficients                      R   N=        3136
  4.13374961E-01  3.40520215E-01  7.14780612E-04  1.52940806E-04  1.17493562E-03
  6.85878554E-03 -2.16968048E-04  1.63256146E-04  1.11145065E-03 -2.73932124E-03
  2.51369005E-04 -3.92071215E-05  5.96937923E-05  1.83732033E-04 -1.19853781E-04
 -5.66439595E-06 -6.12610831E-04  7.92005644E-04  7.85908730E-05  1.82701381E-04
 -1.38854510E-05 -6.48391151E-06  3.83760429E-01  3.16127389E-01 -6.68810446E-04
  9.55601565E-04 -5.36561878E-04  6.34195521E-03  2.17005259E-04  9.36378874E-04
 -5.05047273E-04 -2.45910197E-03 -2.96232185E-04  2.70340461E-05 -6.92144563E-05
 -1.25489466E-05  2.06312731E-04 -4.75573753E-04  3.53837588E-04 -1.14947075E-04
  5.15527762E-05 -5.66373957E-04 -4.98062999E-04 -5.76144438E-05  2.53367035E-04
 -2.23305338E-03  1.88809560E-03  7.88397263E-05  1.95110668E-04  1.44530839E-03
  2.42251914E-04 -2.13794253E-03  1.81791956E-03 -6.80221926E-05  1.19543439E-03
 -6.63068075E-04 -3.83764519E-01 -3.16096363E-01 -5.93020909E-04 -1.48616646E-04
 -1.14519295E-03 -6.71030731E-03 -4.82315970E-06 -1.01991886E-04 -7.52883752E-04
  3.67467819E-03  6.13244737E-04 -2.69761698E-06  4.75972057E-05 -2.63751734E-03
 -1.16980346E-03  6.52641581E-05  2.44883390E-04 -6.30004141E-04 -1.56181344E-05
 -1.24736143E-04  1.50272218E-04 -4.89509242E-06  4.13378809E-01  3.40491355E-01
 -6.44414366E-04  1.08060404E-03 -6.07306645E-04  7.20070873E-03  1.15344970E-05
  7.35881665E-04 -4.07096839E-04 -3.86782244E-03  5.92851562E-04 -3.46276772E-05
  2.55558545E-05  2.64386574E-03 -1.15771111E-03 -2.71349043E-04  1.20778211E-04
 -5.51005766E-06  9.17959355E-06 -4.58769811E-04 -5.50699808E-04 -1.96209941E-05
 -1.40605893E-04  1.19839349E-03 -8.75732554E-04 -1.40392791E-04 -1.48800841E-04
 -1.16816278E-03  1.59017709E-04 -1.36074472E-03  1.01344174E-03 -1.45707569E-04
  1.11697093E-03 -6.30302574E-04 -7.62645831E-02 -1.23165834E-01  1.04164448E-02
  7.65863291E-03  4.94190897E-02  3.48632416E-01  1.53371633E-02  1.16379669E-02
  7.49021007E-02  2.46888773E-01  1.27111159E-02  7.34572246E-03  3.01195038E-02
 -6.47961691E-05 -1.58383048E-03  1.52809000E-04  6.32245403E-04  9.17995077E-03
  1.53323308E-03  2.17382414E-03 -1.76285583E-03  6.33209520E-04 -7.62578202E-02
 -1.23154984E-01 -1.04098964E-02  4.41823746E-02 -2.34147731E-02  3.48601456E-01
 -1.53277049E-02  6.69837049E-02 -3.54650162E-02  2.46868419E-01 -1.27086756E-02
  2.85295224E-02 -1.21243274E-02 -6.21784567E-05  1.58297000E-03  5.98663034E-04
 -2.55665593E-04 -4.88802790E-04  4.07602141E-04 -6.15672482E-03 -7.34409500E-03
 -1.60499797E-03  9.86965056E-02  1.19406350E-01  1.38905590E-02 -6.75791487E-04
 -1.62822148E-03 -1.42217076E-02  9.86852375E-02  1.19393288E-01  1.38881808E-02
  6.73572111E-04 -1.23705612E-02  7.19977394E-03  7.69059035E-02  1.24382804E-01
  4.21152441E-03 -7.42890505E-03 -5.74845525E-02 -3.54454958E-01  7.90095193E-03
 -1.13996220E-02 -8.71730374E-02 -2.49876062E-01  4.05393764E-03 -5.32669146E-03
 -3.33219320E-02  2.01496274E-02  9.87991071E-03  3.43123826E-04  1.10921664E-03
 -1.18966995E-02 -6.77341010E-04 -2.36531181E-03  4.69833104E-03  3.34754860E-04
 -7.69127613E-02 -1.24394009E-01  4.21911969E-03  5.05179859E-02 -2.84273522E-02
  3.54486930E-01  7.91229786E-03  7.66894194E-02 -4.30022961E-02  2.49898683E-01
  4.05678634E-03  2.98934253E-02 -1.56601270E-02 -2.01493941E-02  9.87993407E-03
 -1.09404580E-03  3.88257451E-04  1.08440854E-03  6.71539944E-04 -6.95208479E-03
 -1.09418605E-02 -3.39974095E-04 -1.05908138E-01 -1.32268419E-01 -2.45306187E-02
  2.06932538E-03  1.76018405E-03  1.53006045E-02  1.05917356E-01  1.32280360E-01
  2.45327571E-02  2.06707155E-03 -1.33165203E-02  7.74068659E-03 -3.82263475E-02
 -6.29569400E-02  1.11622063E-02 -2.51540447E-02 -1.55182258E-01  1.82689793E-01
  1.75495032E-02 -3.61776895E-02 -2.21200595E-01  2.79368369E-01  2.60281149E-02
 -2.77846453E-02 -1.49072790E-01  3.46617264E-02 -1.98658229E-03 -2.50111741E-03
 -1.27673354E-02 -2.42618236E-02 -1.98061466E-03 -6.18693365E-03  1.75279994E-04
 -2.29042977E-03 -3.81877303E-02 -6.28931276E-02 -1.11995671E-02 -1.39297844E-01
  7.25761091E-02  1.82500412E-01 -1.76028929E-02 -1.98750198E-01  1.03192229E-01
  2.79108039E-01 -2.60722517E-02 -1.35981757E-01  6.68109329E-02  3.46106391E-02
  1.98774193E-03 -1.17235393E-02  5.62587310E-03  4.14772106E-03  6.57324115E-04
  1.82800707E-02  1.65696577E-02  2.94915486E-03 -9.94255876E-02 -1.82352986E-01
 -1.06675879E-01  2.95037513E-03  2.10910734E-04  8.48379247E-03 -9.93438624E-02
 -1.82207915E-01 -1.06569768E-01 -2.94958060E-03  6.92077601E-03 -4.90210772E-03
  4.45263892E-02  7.34665891E-02  2.31218737E-02  1.30788118E-02  1.49716229E-01
 -2.17523958E-01  3.40093409E-02  1.82648781E-02  2.14428396E-01 -2.97630089E-01
  3.23652824E-02  6.48629552E-03  1.47724547E-01 -6.02695455E-02 -3.58919708E-03
 -1.71363138E-03  7.93579853E-03  2.21040531E-02  6.57875254E-03  5.53698504E-03
  4.44843834E-03 -8.80343283E-04 -4.45583208E-02 -7.35191008E-02  2.30856466E-02
 -1.27937576E-01  7.91242655E-02  2.17674938E-01  3.39555074E-02 -1.82955761E-01
  1.13697898E-01  2.97867784E-01  3.23113989E-02 -1.22400105E-01  8.32150668E-02
  6.02960754E-02 -3.58688847E-03 -5.34801203E-03  6.12626785E-03  6.26721917E-03
 -4.63775549E-03  1.89236064E-02  1.19465718E-02  4.74438399E-03  9.06100817E-02
  1.61504394E-01  1.18416652E-01  1.48809226E-03 -9.06361415E-04 -6.26924831E-03
 -9.06999740E-02 -1.61669524E-01 -1.18504739E-01  1.48562434E-03  5.57297748E-03
 -3.02752199E-03 -1.36731818E-02 -2.31225525E-02 -1.80620605E-01 -1.29893090E-02
 -5.22582662E-03  7.77779658E-02 -2.70686574E-01 -1.79752224E-02 -8.43900539E-03
  6.59715382E-02 -3.00793571E-01 -2.57361021E-02 -1.18499836E-02  1.66267106E-02
 -4.79616266E-02 -1.11685768E-02  9.21304791E-03  2.44165147E-03 -1.52206598E-02
 -1.95501827E-03 -1.01875862E-02 -3.62056808E-03 -1.36747107E-02 -2.31253514E-02
  1.80624439E-01 -1.19802519E-02 -7.26412479E-03  7.77879736E-02  2.70689779E-01
 -1.75487074E-02 -9.32815087E-03  6.59820605E-02  3.00803090E-01 -2.49249631E-02
 -1.35072820E-02  1.66083663E-02  4.79733130E-02  6.96861498E-04 -1.44536528E-02
  7.37907977E-03 -6.20288218E-03  2.30273833E-03 -7.33347819E-03  1.43649245E-02
 -1.36372950E-03  8.38412045E-03 -1.16937500E-02 -1.64206954E-02 -1.20559102E-03
 -1.97238420E-03 -1.36809043E-03  8.37729434E-03 -1.17009406E-02  1.64199449E-02
 -2.30296995E-03  2.14885200E-04 -1.45350005E-03 -2.41828755E-03 -1.34011526E-02
  1.66402191E-01 -3.75524909E-02  5.89352575E-03 -2.14340369E-02  2.60244443E-01
 -5.77825555E-02  2.07484540E-02 -2.24264283E-02  2.94141234E-01 -4.74362506E-02
  4.28324959E-02  7.38323417E-04  1.46951128E-01 -1.38147184E-02 -5.63746622E-03
  1.56657011E-03  1.24452011E-02 -2.91835742E-03  3.72637691E-03 -1.45398053E-03
 -2.41909179E-03  1.33991074E-02  6.94142656E-02  1.55808843E-01  5.89560107E-03
  2.14304594E-02  1.09319427E-01  2.43110160E-01  2.07566884E-02  2.24241737E-02
  1.37887193E-01  2.64085373E-01  4.28466761E-02 -7.44094873E-04  7.68110004E-02
  1.26027189E-01 -8.91387794E-03 -2.04764915E-03  9.62095521E-03 -4.81011127E-03
 -3.48387548E-03 -1.07947184E-02 -1.78658609E-02 -4.58814863E-02  1.47649744E-03
  1.65499177E-02 -1.18056815E-04 -1.07959073E-02 -1.78707018E-02 -4.58928863E-02
 -1.47599264E-03  9.80262590E-03  1.33330811E-02 -5.32362678E-04 -8.24197780E-04
  4.23610422E-02  1.73687429E-01 -1.02817307E-02  2.30393497E-03  6.25542269E-02
  2.71313013E-01 -1.71944918E-02  7.09394426E-04  7.89813870E-02  3.05820004E-01
 -2.43403990E-02  3.02404119E-02  4.90202309E-02  1.59151691E-01 -1.99530320E-02
 -3.06321899E-04  4.27766076E-04  1.39304606E-02 -3.26708192E-03  1.17537636E-03
  5.32087077E-04  8.23735933E-04  4.23649846E-02 -9.56428422E-02 -1.45361418E-01
 -2.30267373E-03  6.25603040E-02 -1.48492210E-01 -2.27743826E-01 -7.04138745E-04
  7.89891615E-02 -1.63405166E-01 -2.59675776E-01 -3.02456545E-02  4.90269357E-02
 -7.92001551E-02 -1.39497997E-01  9.75978633E-03  6.84758408E-04 -5.78630015E-03
  8.72535891E-03  1.04524124E-03  1.04343595E-02  1.32586470E-02  1.45953069E-02
  6.99527369E-04  1.61339315E-02 -3.67463017E-03 -1.04328805E-02 -1.32590779E-02
 -1.45937649E-02  7.01085426E-04 -6.70542268E-03 -1.51290638E-02 -1.76526922E-02
 -2.92502247E-02  1.95568366E-01 -3.76298205E-02 -1.67222386E-02  9.11869252E-02
  2.94914099E-01 -5.80616869E-02 -2.12840507E-02  1.31497408E-01  3.53763406E-01
 -6.61777731E-02 -3.21922252E-02  8.29193980E-02  2.32421127E-01 -6.56138731E-02
 -4.34338048E-02  1.90419596E-03  1.59652406E-02 -3.10660740E-03 -5.03843829E-03
  2.80185641E-03  1.76534181E-02  2.92512540E-02  1.95567552E-01  3.58915736E-02
  2.01730085E-02 -9.11889556E-02  2.94912103E-01  5.17590210E-02  3.38270674E-02
 -1.31506423E-01  3.53759722E-01  6.53469632E-02  3.38163234E-02 -8.29337719E-02
  2.32429615E-01  7.40308817E-02  2.66271736E-02 -5.45227542E-03 -7.30238037E-03
  5.16226339E-05  2.99261929E-03  1.44716006E-02  3.69304866E-03 -3.95335427E-03
  1.25340502E-02  1.76507870E-02 -3.55986024E-03 -1.96839474E-03 -3.68848578E-03
  3.96054018E-03 -1.25148210E-02  1.76515795E-02  3.70454610E-03  1.67763016E-03
  2.40710396E-02  3.90081662E-02  6.56015250E-03 -3.06357529E-02 -2.60494456E-02
 -8.90401736E-02 -1.43435037E-05 -4.48572895E-02 -7.61998923E-02 -5.17637518E-01
  6.38278851E-03 -9.09368629E-02 -3.23133514E-02  1.04668052E+00 -5.46136241E-02
  1.07290323E-01  5.02774046E-01 -1.32964350E-02 -1.59556671E-03 -5.18020930E-03
 -9.66108064E-04  2.80788565E-05  2.40722532E-02  3.90101989E-02 -6.56370863E-03
 -3.92019331E-02 -8.97438808E-03 -8.90453063E-02  5.89058153E-06 -8.79029351E-02
  9.62159703E-03 -5.17664114E-01 -6.39341961E-03 -8.02909768E-02 -5.35570152E-02
  1.04672252E+00  5.46812973E-02  4.67155661E-01 -2.14691193E-01  4.35243880E-03
 -9.74973997E-04  1.00278880E-02  9.22457108E-03  1.25857415E-03 -1.31498472E-02
  1.33126242E-01 -4.58458221E-01 -1.33639402E-03 -5.85390842E-04  1.04124755E-04
 -1.31510205E-02  1.33135411E-01 -4.58479226E-01  1.33554983E-03 -2.66712254E-04
 -5.31642805E-04  6.95553879E-03  1.15080478E-02  6.19151654E-02  2.13989660E-02
 -5.78971772E-02 -2.56995693E-02  6.58547392E-02  2.22425401E-02 -8.79130879E-02
 -1.88264688E-01  2.21759436E-01  7.70339870E-02 -1.83205147E-01  1.08240411E+00
 -7.47515723E-02  6.89066291E-02  7.44816439E-01 -1.67685897E-02  2.55199542E-03
 -2.09423109E-03 -1.39173846E-03 -1.35864568E-04 -6.95342935E-03 -1.15047246E-02
  6.19168916E-02  3.35989555E-02 -5.17774292E-02  2.56923216E-02  6.58602513E-02
  5.71460322E-02 -7.04029946E-02  1.88214792E-01  2.21764743E-01  1.00752259E-01
 -1.71318835E-01 -1.08235467E+00 -7.48293318E-02 -6.38143238E-01  3.90268580E-01
 -1.90024624E-03 -1.63718111E-03 -1.39923527E-02 -9.38664709E-03  1.96716531E-03
 -2.04769250E-02  1.02708069E-01 -4.68421937E-01 -1.21659702E-05  5.83174943E-04
  3.58400003E-03  2.04794052E-02 -1.02702629E-01  4.68405277E-01 -1.21026391E-05
 -3.22215621E-03  1.67641058E-03 -1.16666803E-02 -1.91943466E-02 -7.19261251E-02
  4.15209898E-02 -2.72734373E-02  5.37334586E-02 -6.67224446E-02  4.54944470E-02
 -2.05640753E-02  2.18268608E-01 -2.90455260E-01  1.62153115E-01 -1.14218987E-01
  1.02758425E+00  1.26822948E+00 -2.51646713E-01  4.23072112E-01 -7.73374890E-03
 -6.92568771E-03  1.20909257E-03 -2.88378779E-03 -6.41802896E-04  1.16601370E-02
  1.91840112E-02 -7.19212634E-02 -2.99318528E-03 -4.96076375E-02 -5.37116623E-02
 -6.67209099E-02 -1.07417754E-02 -4.87837920E-02 -2.18111915E-01 -2.90429160E-01
 -5.51884470E-03 -1.98341215E-01 -1.02772311E+00  1.26809969E+00 -1.88320340E-01
  4.54749038E-01 -3.15784730E-04  3.62660287E-03 -8.14621150E-03 -1.76319078E-03
 -5.93261416E-03 -1.60598626E-02  1.79228341E-02 -2.71990137E-01  7.82110423E-04
  1.32860674E-04  1.28992759E-03  1.60516005E-02 -1.79157055E-02  2.71860721E-01
  7.82449850E-04 -1.11092019E-03  6.63723986E-04 -1.26012543E-02 -2.01124809E-02
 -1.41392800E-02 -8.44941653E-02 -1.75727860E-02  4.43559030E-02 -7.85936517E-03
 -8.56310829E-02 -4.87826557E-03  2.96288694E-01 -7.33771386E-02 -3.40144113E-01
 -7.91673870E-02 -2.62156535E-01  2.27153068E-01  5.73130979E-01  3.81868968E-01
 -3.96446987E-03 -2.10241565E-03 -7.33760094E-03  2.13603905E-05 -1.42201416E-03
 -1.26053641E-02 -2.01192515E-02  1.41692236E-02 -6.46161277E-02 -5.71869984E-02
  4.43749152E-02  7.88968414E-03 -5.51172575E-02 -6.56912229E-02  2.96360898E-01
  7.34949493E-02 -2.66885466E-01 -2.25173207E-01 -2.61848352E-01 -2.27574134E-01
  6.48880371E-01  2.30775185E-01  5.93501834E-03 -1.19623994E-04  1.19567964E-03
  5.73808706E-03  2.53663024E-03 -1.46375136E-02  1.14358580E-02 -2.48629141E-01
 -2.50651395E-04  9.49393703E-04  4.82552694E-03 -1.46432749E-02  1.14413238E-02
 -2.48694619E-01  2.50517960E-04  4.43573305E-03 -2.12533514E-03 -9.69941730E-03
 -1.50108821E-02  1.11048200E-02  4.91226344E-02 -3.91990438E-02  2.47298463E-02
  1.30463049E-02  4.59689996E-02 -2.31801588E-02  3.05846752E-01  5.65233940E-02
  2.24167925E-01 -1.91135033E-01 -1.86830023E-02 -1.00050833E-01 -5.92819237E-01
  1.18683964E+00 -1.23537648E-02 -4.83105379E-03  2.02512641E-03  1.57882242E-03
  3.18343123E-03 -9.69863797E-03 -1.50095130E-02 -1.10999545E-02 -2.01707325E-03
  6.28411319E-02  2.47224708E-02 -1.30381720E-02  8.93645371E-03  5.07314946E-02
  3.05854190E-01 -5.65132158E-02 -1.90338072E-02  2.94097907E-01 -1.91952454E-02
  1.00332051E-01  5.96190130E-01 -1.18516303E+00 -3.01384536E-03 -5.44027887E-03
  1.00742149E-02  6.97010987E-03  1.96457232E-03 -2.35480977E-02  1.99396083E-02
 -3.75538534E-01 -4.20299805E-03  1.67475459E-04  3.94916407E-03 -2.35409402E-02
  1.99264670E-02 -3.75380244E-01  4.20351024E-03  3.26648512E-03 -2.22883453E-03
 -2.45957938E-03 -4.22648408E-03 -1.38903116E-02 -8.31833201E-02 -3.76605274E-03
  1.84357731E-02 -7.47221374E-03 -7.88028410E-02 -1.21601865E-02  1.20141847E-03
 -7.32534988E-02 -3.68514229E-01  1.22878421E-02  1.33494255E+00  8.50853642E-01
  1.15960848E+00  5.19845771E-01 -5.56684544E-03 -3.94070566E-03 -8.35029924E-03
 -1.13591645E-03 -5.52773098E-03  2.46391768E-03  4.23319612E-03 -1.38847545E-02
  5.27711626E-02  6.43913759E-02 -1.84461364E-02 -7.46506490E-03  5.68738400E-02