 Entering Gaussian System, Link 0=g16
 Initial command:
 /home/szhao/Apps/g16/l1.exe "/home/szhao/tmp/Gau-85457.inp" -scrdir="/home/szhao/tmp/"
 Default is to use a total of  16 processors:
                               16 via shared-memory
                                1 via Linda
 Entering Link 1 = /home/szhao/Apps/g16/l1.exe PID=     85458.
  
 Copyright (c) 1988,1990,1992,1993,1995,1998,2003,2009,2016,
            Gaussian, Inc.  All Rights Reserved.
  
 This is part of the Gaussian(R) 16 program.  It is based on
 the Gaussian(R) 09 system (copyright 2009, Gaussian, Inc.),
 the Gaussian(R) 03 system (copyright 2003, Gaussian, Inc.),
 the Gaussian(R) 98 system (copyright 1998, Gaussian, Inc.),
 the Gaussian(R) 94 system (copyright 1995, Gaussian, Inc.),
 the Gaussian 92(TM) system (copyright 1992, Gaussian, Inc.),
 the Gaussian 90(TM) system (copyright 1990, Gaussian, Inc.),
 the Gaussian 88(TM) system (copyright 1988, Gaussian, Inc.),
 the Gaussian 86(TM) system (copyright 1986, Carnegie Mellon
 University), and the Gaussian 82(TM) system (copyright 1983,
 Carnegie Mellon University). Gaussian is a federally registered
 trademark of Gaussian, Inc.
  
 This software contains proprietary and confidential information,
 including trade secrets, belonging to Gaussian, Inc.
  
 This software is provided under written license and may be
 used, copied, transmitted, or stored only in accord with that
 written license.
  
 The following legend is applicable only to US Government
 contracts under FAR:
  
                    RESTRICTED RIGHTS LEGEND
  
 Use, reproduction and disclosure by the US Government is
 subject to restrictions as set forth in subparagraphs (a)
 and (c) of the Commercial Computer Software - Restricted
 Rights clause in FAR 52.227-19.
  
 Gaussian, Inc.
 340 Quinnipiac St., Bldg. 40, Wallingford CT 06492
  
  
 ---------------------------------------------------------------
 Warning -- This program may not be used in any manner that
 competes with the business of Gaussian, Inc. or will provide
 assistance to any competitor of Gaussian, Inc.  The licensee
 of this program is prohibited from giving any competitor of
 Gaussian, Inc. access to this program.  By using this program,
 the user acknowledges that Gaussian, Inc. is engaged in the
 business of creating and licensing software in the field of
 computational chemistry and represents and warrants to the
 licensee that it is not a competitor of Gaussian, Inc. and that
 it will not use this program in any manner prohibited above.
 ---------------------------------------------------------------
  

 Cite this work as:
 Gaussian 16, Revision A.03,
 M. J. Frisch, G. W. Trucks, H. B. Schlegel, G. E. Scuseria, 
 M. A. Robb, J. R. Cheeseman, G. Scalmani, V. Barone, 
 G. A. Petersson, H. Nakatsuji, X. Li, M. Caricato, A. V. Marenich, 
 J. Bloino, B. G. Janesko, R. Gomperts, B. Mennucci, H. P. Hratchian, 
 J. V. Ortiz, A. F. Izmaylov, J. L. Sonnenberg, D. Williams-Young, 
 F. Ding, F. Lipparini, F. Egidi, J. Goings, B. Peng, A. Petrone, 
 T. Henderson, D. Ranasinghe, V. G. Zakrzewski, J. Gao, N. Rega, 
 G. Zheng, W. Liang, M. Hada, M. Ehara, K. Toyota, R. Fukuda, 
 J. Hasegawa, M. Ishida, T. Nakajima, Y. Honda, O. Kitao, H. Nakai, 
 T. Vreven, K. Throssell, J. A. Montgomery, Jr., J. E. Peralta, 
 F. Ogliaro, M. J. Bearpark, J. J. Heyd, E. N. Brothers, K. N. Kudin, 
 V. N. Staroverov, T. A. Keith, R. Kobayashi, J. Normand, 
 K. Raghavachari, A. P. Rendell, J. C. Burant, S. S. Iyengar, 
 J. Tomasi, M. Cossi, J. M. Millam, M. Klene, C. Adamo, R. Cammi, 
 J. W. Ochterski, R. L. Martin, K. Morokuma, O. Farkas, 
 J. B. Foresman, and D. J. Fox, Gaussian, Inc., Wallingford CT, 2016.
 
 ******************************************
 Gaussian 16:  ES64L-G16RevA.03 25-Dec-2016
                21-Apr-2025 
 ******************************************
 %chk=force.chk
 %mem=4GB
 %nprocshared=8
 Will use up to    8 processors via shared memory.
 ---------------------------------------------------
 #p UM062X/6-311+G** force int=superfine pop=saveNBO
 ---------------------------------------------------
 1/10=7,30=1,38=1/1,3;
 2/12=2,17=6,18=5,40=1/2;
 3/5=4,6=6,7=111,11=2,25=1,30=1,71=1,74=-55,75=-7,116=2/1,2,3;
 4//1;
 5/5=2,38=5/2;
 6/7=2,8=2,9=2,10=2,28=1,40=1,73=1/1,7;
 7/29=1/1,2,3,16;
 1/10=7,30=1/3;
 99//99;
 Leave Link    1 at Mon Apr 21 19:47:49 2025, MaxMem=   536870912 cpu:               1.4 elap:               0.2
 (Enter /home/szhao/Apps/g16/l101.exe)
 -------------------
 Title Card Required
 -------------------
 Symbolic Z-matrix:
 Charge =  0 Multiplicity = 1
 O                    -0.61856   0.        0. 
 O                     0.61856   0.        0. 
 
 ITRead=  0  0
 MicOpt= -1 -1
 NAtoms=      2 NQM=        2 NQMF=       0 NMMI=      0 NMMIF=      0
                NMic=       0 NMicF=      0.
                    Isotopes and Nuclear Properties:
 (Nuclear quadrupole moments (NQMom) in fm**2, nuclear magnetic moments (NMagM)
  in nuclear magnetons)

  Atom         1           2
 IAtWgt=          16          16
 AtmWgt=  15.9949146  15.9949146
 NucSpn=           0           0
 AtZEff=  -0.0000000  -0.0000000
 NQMom=    0.0000000   0.0000000
 NMagM=    0.0000000   0.0000000
 AtZNuc=   8.0000000   8.0000000
 Leave Link  101 at Mon Apr 21 19:47:49 2025, MaxMem=   536870912 cpu:               2.2 elap:               0.3
 (Enter /home/szhao/Apps/g16/l103.exe)

 GradGradGradGradGradGradGradGradGradGradGradGradGradGradGradGradGradGrad
 Berny optimization.
 Initialization pass.
 Trust Radius=3.00D-01 FncErr=1.00D-07 GrdErr=1.00D-07 EigMax=2.50D+02 EigMin=1.00D-04
 Number of steps in this run=      2 maximum allowed number of steps=      2.
 GradGradGradGradGradGradGradGradGradGradGradGradGradGradGradGradGradGrad

 Leave Link  103 at Mon Apr 21 19:47:50 2025, MaxMem=   536870912 cpu:               0.3 elap:               0.1
 (Enter /home/szhao/Apps/g16/l202.exe)
                          Input orientation:                          
 ---------------------------------------------------------------------
 Center     Atomic      Atomic             Coordinates (Angstroms)
 Number     Number       Type             X           Y           Z
 ---------------------------------------------------------------------
      1          8           0       -0.618562    0.000000    0.000000
      2          8           0        0.618562    0.000000    0.000000
 ---------------------------------------------------------------------
 Stoichiometry    O2
 Framework group  D*H[C*(O.O)]
 Deg. of freedom     1
 Full point group                 D*H     NOp   8
 Largest Abelian subgroup         D2H     NOp   8
 Largest concise Abelian subgroup C2      NOp   2
                         Standard orientation:                         
 ---------------------------------------------------------------------
 Center     Atomic      Atomic             Coordinates (Angstroms)
 Number     Number       Type             X           Y           Z
 ---------------------------------------------------------------------
      1          8           0        0.000000    0.000000    0.618562
      2          8           0        0.000000    0.000000   -0.618562
 ---------------------------------------------------------------------
 Rotational constants (GHZ):           0.0000000          41.2894221          41.2894221
 Leave Link  202 at Mon Apr 21 19:47:50 2025, MaxMem=   536870912 cpu:               0.1 elap:               0.0
 (Enter /home/szhao/Apps/g16/l301.exe)
 Standard basis: 6-311+G(d,p) (5D, 7F)
 Ernie: Thresh=  0.10000D-02 Tol=  0.10000D-05 Strict=F.
 There are    12 symmetry adapted cartesian basis functions of AG  symmetry.
 There are     1 symmetry adapted cartesian basis functions of B1G symmetry.
 There are     5 symmetry adapted cartesian basis functions of B2G symmetry.
 There are     5 symmetry adapted cartesian basis functions of B3G symmetry.
 There are     1 symmetry adapted cartesian basis functions of AU  symmetry.
 There are    12 symmetry adapted cartesian basis functions of B1U symmetry.
 There are     5 symmetry adapted cartesian basis functions of B2U symmetry.
 There are     5 symmetry adapted cartesian basis functions of B3U symmetry.
 There are    11 symmetry adapted basis functions of AG  symmetry.
 There are     1 symmetry adapted basis functions of B1G symmetry.
 There are     5 symmetry adapted basis functions of B2G symmetry.
 There are     5 symmetry adapted basis functions of B3G symmetry.
 There are     1 symmetry adapted basis functions of AU  symmetry.
 There are    11 symmetry adapted basis functions of B1U symmetry.
 There are     5 symmetry adapted basis functions of B2U symmetry.
 There are     5 symmetry adapted basis functions of B3U symmetry.
    44 basis functions,    72 primitive gaussians,    46 cartesian basis functions
     8 alpha electrons        8 beta electrons
       nuclear repulsion energy        27.3758665250 Hartrees.
 IExCor= 4336 DFT=T Ex+Corr=M062X ExCW=0 ScaHFX=  0.540000
 ScaDFX=  1.000000  1.000000  1.000000  1.000000 ScalE2=  1.000000  1.000000
 IRadAn=      7 IRanWt=     -1 IRanGd=            0 ICorTp=0 IEmpDi=  4
 NAtoms=    2 NActive=    2 NUniq=    1 SFac= 4.00D+00 NAtFMM=   60 NAOKFM=F Big=F
 Integral buffers will be    131072 words long.
 Raffenetti 2 integral format.
 Two-electron integral symmetry is turned on.
 Leave Link  301 at Mon Apr 21 19:47:50 2025, MaxMem=   536870912 cpu:               0.5 elap:               0.1
 (Enter /home/szhao/Apps/g16/l302.exe)
 NPDir=0 NMtPBC=     1 NCelOv=     1 NCel=       1 NClECP=     1 NCelD=      1
         NCelK=      1 NCelE2=     1 NClLst=     1 CellRange=     0.0.
 One-electron integrals computed using PRISM.
 One-electron integral symmetry used in STVInt
 NBasis=    44 RedAO= T EigKep=  9.16D-04  NBF=    11     1     5     5     1    11     5     5
 NBsUse=    44 1.00D-06 EigRej= -1.00D+00 NBFU=    11     1     5     5     1    11     5     5
 Precomputing XC quadrature grid using
 IXCGrd= 4 IRadAn=           7 IRanWt=          -1 IRanGd=           0 AccXCQ= 0.00D+00.
 Generated NRdTot=       0 NPtTot=           0 NUsed=           0 NTot=          32
 NSgBfM=    46    46    46    46    46 MxSgAt=     2 MxSgA2=     2.
 Leave Link  302 at Mon Apr 21 19:47:51 2025, MaxMem=   536870912 cpu:               1.7 elap:               0.3
 (Enter /home/szhao/Apps/g16/l303.exe)
 DipDrv:  MaxL=1.
 Leave Link  303 at Mon Apr 21 19:47:51 2025, MaxMem=   536870912 cpu:               0.6 elap:               0.1
 (Enter /home/szhao/Apps/g16/l401.exe)
 ExpMin= 8.45D-02 ExpMax= 8.59D+03 ExpMxC= 1.30D+03 IAcc=3 IRadAn=         7 AccDes= 0.00D+00
 Harris functional with IExCor= 1009 and IRadAn=       7 diagonalized for initial guess.
 HarFok:  IExCor= 1009 AccDes= 0.00D+00 IRadAn=         7 IDoV= 1 UseB2=F ITyADJ=14
 ICtDFT=  3500011 ScaDFX=  1.000000  1.000000  1.000000  1.000000
 FoFCou: FMM=F IPFlag=           0 FMFlag=      100000 FMFlg1=           0
         NFxFlg=           0 DoJE=T BraDBF=F KetDBF=T FulRan=T
         wScrn=  0.000000 ICntrl=       500 IOpCl=  0 I1Cent=   200000004 NGrid=           0
         NMat0=    1 NMatS0=      1 NMatT0=    0 NMatD0=    1 NMtDS0=    0 NMtDT0=    0
 Petite list used in FoFCou.
 Harris En= -150.177631852337    
 JPrj=0 DoOrth=F DoCkMO=F.
 Initial guess orbital symmetries:
 Alpha Orbitals:
       Occupied  (SGG) (SGU) (SGG) (SGU) (SGG) (PIU) (PIU) (PIG)
       Virtual   (PIG) (SGU) (SGG) (PIU) (PIU) (SGG) (SGU) (PIG)
                 (PIG) (SGU) (SGU) (PIU) (PIU) (SGG) (PIG) (PIG)
                 (SGG) (SGU) (PIU) (PIU) (DLTG) (DLTG) (SGG) (DLTU)
                 (DLTU) (PIG) (PIG) (SGU) (PIU) (PIU) (SGG) (PIG)
                 (PIG) (SGU) (SGG) (SGU)
 Beta  Orbitals:
       Occupied  (SGG) (SGU) (SGG) (SGU) (SGG) (PIU) (PIU) (PIG)
       Virtual   (PIG) (SGU) (SGG) (PIU) (PIU) (SGG) (SGU) (PIG)
                 (PIG) (SGU) (SGU) (PIU) (PIU) (SGG) (PIG) (PIG)
                 (SGG) (SGU) (PIU) (PIU) (DLTG) (DLTG) (SGG) (DLTU)
                 (DLTU) (PIG) (PIG) (SGU) (PIU) (PIU) (SGG) (PIG)
                 (PIG) (SGU) (SGG) (SGU)
 Initial guess <Sx>= 0.0000 <Sy>= 0.0000 <Sz>= 0.0000 <S**2>=-0.0000 S=-0.0000
 Leave Link  401 at Mon Apr 21 19:47:52 2025, MaxMem=   536870912 cpu:               2.8 elap:               0.4
 (Enter /home/szhao/Apps/g16/l502.exe)
 Keep R1 and R2 ints in memory in symmetry-blocked form, NReq=7471005.
 FoFCou: FMM=F IPFlag=           0 FMFlag=           0 FMFlg1=           0
         NFxFlg=           0 DoJE=F BraDBF=F KetDBF=F FulRan=T
         wScrn=  0.000000 ICntrl=       600 IOpCl=  0 I1Cent=           0 NGrid=           0
         NMat0=    1 NMatS0=    990 NMatT0=    0 NMatD0=    1 NMtDS0=    0 NMtDT0=    0
 Petite list used in FoFCou.
 UHF open shell SCF:
 Using DIIS extrapolation, IDIIS=  1040.
 NGot=   536870912 LenX=   536724438 LenY=   536721881
 Requested convergence on RMS density matrix=1.00D-08 within 128 cycles.
 Requested convergence on MAX density matrix=1.00D-06.
 Requested convergence on             energy=1.00D-06.
 No special actions if energy rises.
 Integral accuracy reduced to 1.0D-05 until final iterations.

 Cycle   1  Pass 0  IDiag  1:
 E= -150.233274878260    
 DIIS: error= 2.96D-02 at cycle   1 NSaved=   1.
 NSaved= 1 IEnMin= 1 EnMin= -150.233274878260     IErMin= 1 ErrMin= 2.96D-02
 ErrMax= 2.96D-02  0.00D+00 EMaxC= 1.00D-01 BMatC= 1.43D-01 BMatP= 1.43D-01
 IDIUse=3 WtCom= 7.04D-01 WtEn= 2.96D-01
 Coeff-Com:  0.100D+01
 Coeff-En:   0.100D+01
 Coeff:      0.100D+01
 Gap=     0.221 Goal=   None    Shift=    0.000
 Gap=     0.221 Goal=   None    Shift=    0.000
 GapD=    0.221 DampG=1.000 DampE=0.500 DampFc=0.5000 IDamp=-1.
 Damping current iteration by 5.00D-01
 RMSDP=2.12D-03 MaxDP=1.54D-02              OVMax= 2.86D-02

 Cycle   2  Pass 0  IDiag  1:
 E= -150.239600910444     Delta-E=       -0.006326032184 Rises=F Damp=T
 DIIS: error= 1.34D-02 at cycle   2 NSaved=   2.
 NSaved= 2 IEnMin= 2 EnMin= -150.239600910444     IErMin= 2 ErrMin= 1.34D-02
 ErrMax= 1.34D-02  0.00D+00 EMaxC= 1.00D-01 BMatC= 2.84D-02 BMatP= 1.43D-01
 IDIUse=3 WtCom= 8.66D-01 WtEn= 1.34D-01
 Coeff-Com: -0.726D+00 0.173D+01
 Coeff-En:   0.000D+00 0.100D+01
 Coeff:     -0.629D+00 0.163D+01
 Gap=     0.223 Goal=   None    Shift=    0.000
 Gap=     0.223 Goal=   None    Shift=    0.000
 RMSDP=6.73D-04 MaxDP=4.46D-03 DE=-6.33D-03 OVMax= 9.21D-03

 Cycle   3  Pass 0  IDiag  1:
 E= -150.245199555943     Delta-E=       -0.005598645499 Rises=F Damp=F
 DIIS: error= 1.70D-03 at cycle   3 NSaved=   3.
 NSaved= 3 IEnMin= 3 EnMin= -150.245199555943     IErMin= 3 ErrMin= 1.70D-03
 ErrMax= 1.70D-03  0.00D+00 EMaxC= 1.00D-01 BMatC= 3.74D-04 BMatP= 2.84D-02
 IDIUse=3 WtCom= 9.83D-01 WtEn= 1.70D-02
 Coeff-Com: -0.165D+00 0.353D+00 0.812D+00
 Coeff-En:   0.000D+00 0.000D+00 0.100D+01
 Coeff:     -0.162D+00 0.347D+00 0.815D+00
 Gap=     0.223 Goal=   None    Shift=    0.000
 Gap=     0.223 Goal=   None    Shift=    0.000
 RMSDP=1.65D-04 MaxDP=2.21D-03 DE=-5.60D-03 OVMax= 2.74D-03

 Cycle   4  Pass 0  IDiag  1:
 E= -150.245254950348     Delta-E=       -0.000055394405 Rises=F Damp=F
 DIIS: error= 5.18D-04 at cycle   4 NSaved=   4.
 NSaved= 4 IEnMin= 4 EnMin= -150.245254950348     IErMin= 4 ErrMin= 5.18D-04
 ErrMax= 5.18D-04  0.00D+00 EMaxC= 1.00D-01 BMatC= 2.68D-05 BMatP= 3.74D-04
 IDIUse=3 WtCom= 9.95D-01 WtEn= 5.18D-03
 Coeff-Com: -0.286D-01 0.542D-01 0.252D+00 0.723D+00
 Coeff-En:   0.000D+00 0.000D+00 0.000D+00 0.100D+01
 Coeff:     -0.284D-01 0.540D-01 0.250D+00 0.724D+00
 Gap=     0.224 Goal=   None    Shift=    0.000
 Gap=     0.224 Goal=   None    Shift=    0.000
 RMSDP=3.32D-05 MaxDP=4.80D-04 DE=-5.54D-05 OVMax= 6.43D-04

 Cycle   5  Pass 0  IDiag  1:
 E= -150.245259061963     Delta-E=       -0.000004111614 Rises=F Damp=F
 DIIS: error= 3.87D-05 at cycle   5 NSaved=   5.
 NSaved= 5 IEnMin= 5 EnMin= -150.245259061963     IErMin= 5 ErrMin= 3.87D-05
 ErrMax= 3.87D-05  0.00D+00 EMaxC= 1.00D-01 BMatC= 9.22D-08 BMatP= 2.68D-05
 IDIUse=1 WtCom= 1.00D+00 WtEn= 0.00D+00
 Coeff-Com:  0.514D-02-0.101D-01-0.470D-01-0.889D-01 0.114D+01
 Coeff:      0.514D-02-0.101D-01-0.470D-01-0.889D-01 0.114D+01
 Gap=     0.224 Goal=   None    Shift=    0.000
 Gap=     0.224 Goal=   None    Shift=    0.000
 RMSDP=5.27D-06 MaxDP=5.34D-05 DE=-4.11D-06 OVMax= 9.25D-05

 Initial convergence to 1.0D-05 achieved.  Increase integral accuracy.
 Cycle   6  Pass 1  IDiag  1:
 E= -150.245260503440     Delta-E=       -0.000001441478 Rises=F Damp=F
 DIIS: error= 3.44D-06 at cycle   1 NSaved=   1.
 NSaved= 1 IEnMin= 1 EnMin= -150.245260503440     IErMin= 1 ErrMin= 3.44D-06
 ErrMax= 3.44D-06  0.00D+00 EMaxC= 1.00D-01 BMatC= 5.22D-10 BMatP= 5.22D-10
 IDIUse=1 WtCom= 1.00D+00 WtEn= 0.00D+00
 Coeff-Com:  0.100D+01
 Coeff:      0.100D+01
 Gap=     0.224 Goal=   None    Shift=    0.000
 Gap=     0.224 Goal=   None    Shift=    0.000
 RMSDP=5.27D-06 MaxDP=5.34D-05 DE=-1.44D-06 OVMax= 7.43D-06

 Cycle   7  Pass 1  IDiag  1:
 E= -150.245260503638     Delta-E=       -0.000000000198 Rises=F Damp=F
 DIIS: error= 8.27D-07 at cycle   2 NSaved=   2.
 NSaved= 2 IEnMin= 2 EnMin= -150.245260503638     IErMin= 2 ErrMin= 8.27D-07
 ErrMax= 8.27D-07  0.00D+00 EMaxC= 1.00D-01 BMatC= 3.86D-11 BMatP= 5.22D-10
 IDIUse=1 WtCom= 1.00D+00 WtEn= 0.00D+00
 Coeff-Com:  0.355D-01 0.965D+00
 Coeff:      0.355D-01 0.965D+00
 Gap=     0.224 Goal=   None    Shift=    0.000
 Gap=     0.224 Goal=   None    Shift=    0.000
 RMSDP=9.94D-08 MaxDP=9.51D-07 DE=-1.98D-10 OVMax= 1.99D-06

 Cycle   8  Pass 1  IDiag  1:
 E= -150.245260503649     Delta-E=       -0.000000000010 Rises=F Damp=F
 DIIS: error= 3.93D-07 at cycle   3 NSaved=   3.
 NSaved= 3 IEnMin= 3 EnMin= -150.245260503649     IErMin= 3 ErrMin= 3.93D-07
 ErrMax= 3.93D-07  0.00D+00 EMaxC= 1.00D-01 BMatC= 1.13D-11 BMatP= 3.86D-11
 IDIUse=1 WtCom= 1.00D+00 WtEn= 0.00D+00
 Coeff-Com: -0.738D-01 0.317D+00 0.757D+00
 Coeff:     -0.738D-01 0.317D+00 0.757D+00
 Gap=     0.224 Goal=   None    Shift=    0.000
 Gap=     0.224 Goal=   None    Shift=    0.000
 RMSDP=2.52D-08 MaxDP=3.98D-07 DE=-1.04D-11 OVMax= 5.94D-07

 Cycle   9  Pass 1  IDiag  1:
 E= -150.245260503651     Delta-E=       -0.000000000002 Rises=F Damp=F
 DIIS: error= 2.64D-08 at cycle   4 NSaved=   4.
 NSaved= 4 IEnMin= 4 EnMin= -150.245260503651     IErMin= 4 ErrMin= 2.64D-08
 ErrMax= 2.64D-08  0.00D+00 EMaxC= 1.00D-01 BMatC= 3.64D-14 BMatP= 1.13D-11
 IDIUse=1 WtCom= 1.00D+00 WtEn= 0.00D+00
 Coeff-Com:  0.425D-02-0.408D-01-0.404D-01 0.108D+01
 Coeff:      0.425D-02-0.408D-01-0.404D-01 0.108D+01
 Gap=     0.224 Goal=   None    Shift=    0.000
 Gap=     0.224 Goal=   None    Shift=    0.000
 RMSDP=4.16D-09 MaxDP=4.28D-08 DE=-1.93D-12 OVMax= 7.75D-08

 SCF Done:  E(UM062X) =  -150.245260504     A.U. after    9 cycles
            NFock=  9  Conv=0.42D-08     -V/T= 2.0032
 <Sx>= 0.0000 <Sy>= 0.0000 <Sz>= 0.0000 <S**2>= 0.0000 S= 0.0000
 <L.S>=  0.00000000000    
 KE= 1.497671935682D+02 PE=-4.100334177055D+02 EE= 8.264509710856D+01
 Annihilation of the first spin contaminant:
 S**2 before annihilation     0.0000,   after    -0.0000
 Leave Link  502 at Mon Apr 21 19:47:54 2025, MaxMem=   536870912 cpu:               9.2 elap:               1.5
 (Enter /home/szhao/Apps/g16/l601.exe)
 Copying SCF densities to generalized density rwf, IOpCl= 1 IROHF=0.

 **********************************************************************

            Population analysis using the SCF density.

 **********************************************************************

 Orbital symmetries:
 Alpha Orbitals:
       Occupied  (SGG) (SGU) (SGG) (SGU) (SGG) (PIU) (PIU) (?A)
       Virtual   (?A) (SGU) (SGG) (PIU) (PIU) (SGG) (?A) (?A) (SGU)
                 (SGU) (PIU) (PIU) (SGG) (SGU) (PIG) (PIG) (SGG)
                 (SGU) (PIU) (PIU) (?B) (?B) (?B) (DLTU) (DLTU)
                 (PIG) (PIG) (SGU) (PIU) (PIU) (SGG) (PIG) (PIG)
                 (SGU) (SGG) (SGU)
 Beta  Orbitals:
       Occupied  (SGG) (SGU) (SGG) (SGU) (SGG) (PIU) (PIU) (?A)
       Virtual   (?A) (SGU) (SGG) (PIU) (PIU) (SGG) (?A) (?A) (SGU)
                 (SGU) (PIU) (PIU) (SGG) (SGU) (PIG) (PIG) (SGG)
                 (SGU) (PIU) (PIU) (?B) (?B) (?B) (DLTU) (DLTU)
                 (PIG) (PIG) (SGU) (PIU) (PIU) (SGG) (PIG) (PIG)
                 (SGU) (SGG) (SGU)
 Unable to determine electronic state:  an orbital has unidentified symmetry.
 Alpha  occ. eigenvalues --  -19.79734 -19.79684  -1.40644  -0.93255  -0.62209
 Alpha  occ. eigenvalues --   -0.61572  -0.58888  -0.36073
 Alpha virt. eigenvalues --   -0.13707   0.10374   0.10798   0.14251   0.15083
 Alpha virt. eigenvalues --    0.20649   0.21838   0.22173   0.29315   0.35228
 Alpha virt. eigenvalues --    0.98700   0.99870   1.00060   1.00839   1.06508
 Alpha virt. eigenvalues --    1.07662   1.25832   1.54175   2.32426   2.34792
 Alpha virt. eigenvalues --    2.64721   2.65962   2.87215   2.89194   2.90335
 Alpha virt. eigenvalues --    3.44397   3.48003   3.88706   4.81815   4.84631
 Alpha virt. eigenvalues --    4.86223   5.04692   5.07823   6.16089  49.71532
 Alpha virt. eigenvalues --   49.80167
  Beta  occ. eigenvalues --  -19.79734 -19.79684  -1.40644  -0.93255  -0.62209
  Beta  occ. eigenvalues --   -0.61572  -0.58888  -0.36073
  Beta virt. eigenvalues --   -0.13707   0.10374   0.10798   0.14251   0.15083
  Beta virt. eigenvalues --    0.20649   0.21838   0.22173   0.29315   0.35228
  Beta virt. eigenvalues --    0.98700   0.99870   1.00060   1.00839   1.06508
  Beta virt. eigenvalues --    1.07662   1.25832   1.54175   2.32426   2.34792
  Beta virt. eigenvalues --    2.64721   2.65962   2.87215   2.89194   2.90335
  Beta virt. eigenvalues --    3.44397   3.48003   3.88706   4.81815   4.84631
  Beta virt. eigenvalues --    4.86223   5.04692   5.07823   6.16089  49.71532
  Beta virt. eigenvalues --   49.80167
          Condensed to atoms (all electrons):
               1          2
     1  O    7.774714   0.225286
     2  O    0.225286   7.774714
          Atomic-Atomic Spin Densities.
               1          2
     1  O   -0.000000   0.000000
     2  O    0.000000  -0.000000
 Mulliken charges and spin densities:
               1          2
     1  O    0.000000  -0.000000
     2  O    0.000000  -0.000000
 Sum of Mulliken charges =   0.00000  -0.00000
 Mulliken charges and spin densities with hydrogens summed into heavy atoms:
               1          2
     1  O    0.000000  -0.000000
     2  O    0.000000  -0.000000
 Electronic spatial extent (au):  <R**2>=             45.0857
 Charge=              0.0000 electrons
 Dipole moment (field-independent basis, Debye):
    X=              0.0000    Y=              0.0000    Z=             -0.0000  Tot=              0.0000
 Quadrupole moment (field-independent basis, Debye-Ang):
   XX=            -11.1301   YY=             -9.2894   ZZ=            -10.8175
   XY=              0.0000   XZ=              0.0000   YZ=             -0.0000
 Traceless Quadrupole moment (field-independent basis, Debye-Ang):
   XX=             -0.7178   YY=              1.1230   ZZ=             -0.4052
   XY=              0.0000   XZ=              0.0000   YZ=             -0.0000
 Octapole moment (field-independent basis, Debye-Ang**2):
  XXX=             -0.0000  YYY=             -0.0000  ZZZ=              0.0000  XYY=             -0.0000
  XXY=              0.0000  XXZ=              0.0000  XZZ=             -0.0000  YZZ=             -0.0000
  YYZ=              0.0000  XYZ=             -0.0000
 Hexadecapole moment (field-independent basis, Debye-Ang**3):
 XXXX=             -8.5379 YYYY=             -6.4447 ZZZZ=            -30.5973 XXXY=              0.0000
 XXXZ=              0.0000 YYYX=              0.0000 YYYZ=             -0.0000 ZZZX=              0.0000
 ZZZY=             -0.0000 XXYY=             -2.4971 XXZZ=             -7.5167 YYZZ=             -5.9273
 XXYZ=             -0.0000 YYXZ=              0.0000 ZZXY=              0.0000
 N-N= 2.737586652500D+01 E-N=-4.100334182212D+02  KE= 1.497671935682D+02
 Symmetry AG   KE= 6.957133648698D+01
 Symmetry B1G  KE= 9.794858194028D-35
 Symmetry B2G  KE= 5.947004481641D+00
 Symmetry B3G  KE= 1.058718801017D-31
 Symmetry AU   KE= 2.120575495635D-34
 Symmetry B1U  KE= 6.519424528459D+01
 Symmetry B2U  KE= 4.407405835062D+00
 Symmetry B3U  KE= 4.647201479973D+00
 Symmetry AG   SP=-2.119810821670D-15
 Symmetry B1G  SP=-6.332491996856D-50
 Symmetry B2G  SP=-2.110048963205D-15
 Symmetry B3G  SP= 1.845101176835D-47
 Symmetry AU   SP=-3.395371415369D-50
 Symmetry B1U  SP= 1.995448853651D-15
 Symmetry B2U  SP=-1.336060430960D-16
 Symmetry B3U  SP=-4.887707385541D-16
                          Isotropic Fermi Contact Couplings
        Atom                 a.u.       MegaHertz       Gauss      10(-4) cm-1
     1  O(17)             -0.00000       0.00000       0.00000       0.00000
     2  O(17)             -0.00000       0.00000       0.00000       0.00000
 --------------------------------------------------------
       Center         ----  Spin Dipole Couplings  ----
                      3XX-RR        3YY-RR        3ZZ-RR
 --------------------------------------------------------
     1   Atom        0.000000      0.000000      0.000000
     2   Atom        0.000000      0.000000      0.000000
 --------------------------------------------------------
                        XY            XZ            YZ
 --------------------------------------------------------
     1   Atom        0.000000      0.000000      0.000000
     2   Atom        0.000000      0.000000      0.000000
 --------------------------------------------------------


 ---------------------------------------------------------------------------------
              Anisotropic Spin Dipole Couplings in Principal Axis System
 ---------------------------------------------------------------------------------

       Atom             a.u.   MegaHertz   Gauss  10(-4) cm-1        Axes

              Baa     0.0000    -0.000    -0.000    -0.000  1.0000  0.0000  0.0000
     1 O(17)  Bbb     0.0000    -0.000    -0.000    -0.000 -0.0000  1.0000  0.0000
              Bcc     0.0000    -0.000    -0.000    -0.000  0.0000  0.0000  1.0000
 
              Baa     0.0000    -0.000    -0.000    -0.000  1.0000  0.0000  0.0000
     2 O(17)  Bbb     0.0000    -0.000    -0.000    -0.000 -0.0000  1.0000  0.0000
              Bcc     0.0000    -0.000    -0.000    -0.000  0.0000  0.0000  1.0000
 

 ---------------------------------------------------------------------------------

 No NMR shielding tensors so no spin-rotation constants.
 Leave Link  601 at Mon Apr 21 19:47:55 2025, MaxMem=   536870912 cpu:               2.0 elap:               0.5
 (Enter /home/szhao/Apps/g16/l607.exe)
 ******************************Gaussian NBO Version 3.1******************************
             N A T U R A L   A T O M I C   O R B I T A L   A N D
          N A T U R A L   B O N D   O R B I T A L   A N A L Y S I S
 ******************************Gaussian NBO Version 3.1******************************
       /RESON  / : Allow strongly delocalized NBO set

 Analyzing the SCF density

 Job title: Title Card Required                                             

 Storage needed:      6104 in NPA,      7902 in NBO ( 536870884 available)
 GSVD:  LWork=         376 too small for GESVD, short by        2510 words or        2510 for optimal perf.


 NATURAL POPULATIONS:  Natural atomic orbital occupancies 
                                                          
   NAO  Atom  No  lang   Type(AO)    Occupancy
 --------------------------------------------
     1    O    1  S      Cor( 1S)     1.99992
     2    O    1  S      Val( 2S)     1.81566
     3    O    1  S      Ryd( 3S)     0.01342
     4    O    1  S      Ryd( 4S)     0.00037
     5    O    1  S      Ryd( 5S)     0.00000
     6    O    1  px     Val( 2p)     1.99324
     7    O    1  px     Ryd( 3p)     0.00507
     8    O    1  px     Ryd( 4p)     0.00001
     9    O    1  px     Ryd( 5p)     0.00000
    10    O    1  py     Val( 2p)     0.99741
    11    O    1  py     Ryd( 3p)     0.00007
    12    O    1  py     Ryd( 4p)     0.00004
    13    O    1  py     Ryd( 5p)     0.00000
    14    O    1  pz     Val( 2p)     1.16284
    15    O    1  pz     Ryd( 3p)     0.00521
    16    O    1  pz     Ryd( 4p)     0.00005
    17    O    1  pz     Ryd( 5p)     0.00002
    18    O    1  dxy    Ryd( 3d)     0.00000
    19    O    1  dxz    Ryd( 3d)     0.00168
    20    O    1  dyz    Ryd( 3d)     0.00249
    21    O    1  dx2y2  Ryd( 3d)     0.00010
    22    O    1  dz2    Ryd( 3d)     0.00241
 
    23    O    2  S      Cor( 1S)     1.99992
    24    O    2  S      Val( 2S)     1.81566
    25    O    2  S      Ryd( 3S)     0.01342
    26    O    2  S      Ryd( 4S)     0.00037
    27    O    2  S      Ryd( 5S)     0.00000
    28    O    2  px     Val( 2p)     1.99324
    29    O    2  px     Ryd( 3p)     0.00507
    30    O    2  px     Ryd( 4p)     0.00001
    31    O    2  px     Ryd( 5p)     0.00000
    32    O    2  py     Val( 2p)     0.99741
    33    O    2  py     Ryd( 3p)     0.00007
    34    O    2  py     Ryd( 4p)     0.00004
    35    O    2  py     Ryd( 5p)     0.00000
    36    O    2  pz     Val( 2p)     1.16284
    37    O    2  pz     Ryd( 3p)     0.00521
    38    O    2  pz     Ryd( 4p)     0.00005
    39    O    2  pz     Ryd( 5p)     0.00002
    40    O    2  dxy    Ryd( 3d)     0.00000
    41    O    2  dxz    Ryd( 3d)     0.00168
    42    O    2  dyz    Ryd( 3d)     0.00249
    43    O    2  dx2y2  Ryd( 3d)     0.00010
    44    O    2  dz2    Ryd( 3d)     0.00241


 Summary of Natural Population Analysis:                  
                                                          
                                       Natural Population 
                Natural  -----------------------------------------------
    Atom  No    Charge         Core      Valence    Rydberg      Total
 -----------------------------------------------------------------------
      O    1   -0.00000      1.99992     5.96914    0.03094     8.00000
      O    2   -0.00000      1.99992     5.96914    0.03094     8.00000
 =======================================================================
   * Total *   -0.00000      3.99985    11.93828    0.06187    16.00000

                                 Natural Population      
 --------------------------------------------------------
   Core                       3.99985 ( 99.9962% of   4)
   Valence                   11.93828 ( 99.4857% of  12)
   Natural Minimal Basis     15.93813 ( 99.6133% of  16)
   Natural Rydberg Basis      0.06187 (  0.3867% of  16)
 --------------------------------------------------------

    Atom  No          Natural Electron Configuration
 ----------------------------------------------------------------------------
      O    1      [core]2S( 1.82)2p( 4.15)3S( 0.01)3p( 0.01)3d( 0.01)
      O    2      [core]2S( 1.82)2p( 4.15)3S( 0.01)3p( 0.01)3d( 0.01)


 ***************************************************
 *******         Alpha spin orbitals         *******
 ***************************************************


 NATURAL POPULATIONS:  Natural atomic orbital occupancies 
                                                          
   NAO  Atom  No  lang   Type(AO)    Occupancy      Energy
 ----------------------------------------------------------
     1    O    1  S      Cor( 1S)     0.99996     -19.65777
     2    O    1  S      Val( 2S)     0.90783      -1.10207
     3    O    1  S      Ryd( 3S)     0.00671       0.67056
     4    O    1  S      Ryd( 4S)     0.00018       1.13244
     5    O    1  S      Ryd( 5S)     0.00000      49.53914
     6    O    1  px     Val( 2p)     0.99662      -0.48322
     7    O    1  px     Ryd( 3p)     0.00254       0.61427
     8    O    1  px     Ryd( 5p)     0.00000       4.67422
     9    O    1  px     Ryd( 4p)     0.00000       0.88514
    10    O    1  py     Val( 2p)     0.49870      -0.35329
    11    O    1  py     Ryd( 3p)     0.00003       0.60362
    12    O    1  py     Ryd( 5p)     0.00002       4.65107
    13    O    1  py     Ryd( 4p)     0.00000       0.86932
    14    O    1  pz     Val( 2p)     0.58142      -0.34290
    15    O    1  pz     Ryd( 3p)     0.00260       0.72963
    16    O    1  pz     Ryd( 5p)     0.00002       4.99593
    17    O    1  pz     Ryd( 4p)     0.00001       0.77403
    18    O    1  dxy    Ryd( 3d)     0.00000       2.78149
    19    O    1  dxz    Ryd( 3d)     0.00084       2.92156
    20    O    1  dyz    Ryd( 3d)     0.00124       2.88945
    21    O    1  dx2y2  Ryd( 3d)     0.00005       2.77046
    22    O    1  dz2    Ryd( 3d)     0.00121       3.56849
 
    23    O    2  S      Cor( 1S)     0.99996     -19.65777
    24    O    2  S      Val( 2S)     0.90783      -1.10207
    25    O    2  S      Ryd( 3S)     0.00671       0.67056
    26    O    2  S      Ryd( 4S)     0.00018       1.13244
    27    O    2  S      Ryd( 5S)     0.00000      49.53914
    28    O    2  px     Val( 2p)     0.99662      -0.48322
    29    O    2  px     Ryd( 3p)     0.00254       0.61427
    30    O    2  px     Ryd( 5p)     0.00000       4.67422
    31    O    2  px     Ryd( 4p)     0.00000       0.88514
    32    O    2  py     Val( 2p)     0.49870      -0.35329
    33    O    2  py     Ryd( 3p)     0.00003       0.60362
    34    O    2  py     Ryd( 5p)     0.00002       4.65107
    35    O    2  py     Ryd( 4p)     0.00000       0.86932
    36    O    2  pz     Val( 2p)     0.58142      -0.34290
    37    O    2  pz     Ryd( 3p)     0.00260       0.72963
    38    O    2  pz     Ryd( 5p)     0.00002       4.99593
    39    O    2  pz     Ryd( 4p)     0.00001       0.77403
    40    O    2  dxy    Ryd( 3d)     0.00000       2.78149
    41    O    2  dxz    Ryd( 3d)     0.00084       2.92156
    42    O    2  dyz    Ryd( 3d)     0.00124       2.88945
    43    O    2  dx2y2  Ryd( 3d)     0.00005       2.77046
    44    O    2  dz2    Ryd( 3d)     0.00121       3.56849

 WARNING:  Population inversion found on atom  O    1
           Population inversion found on atom  O    2


 Summary of Natural Population Analysis:                  
                                                          
                                       Natural Population 
                Natural  -----------------------------------------------
    Atom  No    Charge         Core      Valence    Rydberg      Total
 -----------------------------------------------------------------------
      O    1   -0.00000      0.99996     2.98457    0.01547     4.00000
      O    2    0.00000      0.99996     2.98457    0.01547     4.00000
 =======================================================================
   * Total *    0.00000      1.99992     5.96914    0.03094     8.00000

                                 Natural Population      
 --------------------------------------------------------
   Core                       1.99992 ( 99.9962% of   2)
   Valence                    5.96914 ( 99.4857% of   6)
   Natural Minimal Basis      7.96906 ( 99.6133% of   8)
   Natural Rydberg Basis      0.03094 (  0.3867% of   8)
 --------------------------------------------------------

    Atom  No          Natural Electron Configuration
 ----------------------------------------------------------------------------
      O    1      [core]2S( 0.91)2p( 2.08)3S( 0.01)3p( 0.01)
      O    2      [core]2S( 0.91)2p( 2.08)3S( 0.01)3p( 0.01)


 NATURAL BOND ORBITAL ANALYSIS, alpha spin orbitals:

                       Occupancies       Lewis Structure    Low   High
           Occ.    -------------------  -----------------   occ   occ
  Cycle   Thresh.   Lewis   Non-Lewis     CR  BD  3C  LP    (L)   (NL)   Dev
 =============================================================================
   1(1)    0.90     7.99426   0.00574      2   2   0   4     0      0    0.00
 -----------------------------------------------------------------------------

 Structure accepted: No low occupancy Lewis orbitals

 --------------------------------------------------------
   Core                      1.99992 ( 99.996% of   2)
   Valence Lewis             5.99434 ( 99.906% of   6)
  ==================       ============================
   Total Lewis               7.99426 ( 99.928% of   8)
  -----------------------------------------------------
   Valence non-Lewis         0.00000 (  0.000% of   8)
   Rydberg non-Lewis         0.00574 (  0.072% of   8)
  ==================       ============================
   Total non-Lewis           0.00574 (  0.072% of   8)
 --------------------------------------------------------


       (Occupancy)   Bond orbital/ Coefficients/ Hybrids
 ---------------------------------------------------------------------------------
     1. (1.00000) BD ( 1) O   1 - O   2  
                ( 50.00%)   0.7071* O   1 s(  0.00%)p 1.00( 99.75%)d 0.00(  0.25%)
                                            0.0000  0.0000  0.0000  0.0000  0.0000
                                            0.0000  0.0000  0.0000  0.0000  0.9987
                                            0.0081 -0.0065  0.0010  0.0000  0.0000
                                            0.0000  0.0000  0.0000  0.0000 -0.0499
                                            0.0000  0.0000
                ( 50.00%)   0.7071* O   2 s(  0.00%)p 1.00( 99.75%)d 0.00(  0.25%)
                                            0.0000  0.0000  0.0000  0.0000  0.0000
                                            0.0000  0.0000  0.0000  0.0000  0.9987
                                            0.0081 -0.0065  0.0010  0.0000  0.0000
                                            0.0000  0.0000  0.0000  0.0000  0.0499
                                            0.0000  0.0000
     2. (1.00000) BD ( 2) O   1 - O   2  
                ( 50.00%)   0.7071* O   1 s( 19.17%)p 4.20( 80.60%)d 0.01(  0.23%)
                                            0.0000 -0.4246  0.1071  0.0040  0.0000
                                            0.0000  0.0000  0.0000  0.0000  0.0000
                                            0.0000  0.0000  0.0000  0.8950 -0.0703
                                           -0.0011  0.0001  0.0000  0.0000  0.0000
                                            0.0039 -0.0477
                ( 50.00%)   0.7071* O   2 s( 19.17%)p 4.20( 80.60%)d 0.01(  0.23%)
                                           -0.0000 -0.4246  0.1071  0.0040  0.0000
                                            0.0000  0.0000  0.0000  0.0000  0.0000
                                            0.0000  0.0000  0.0000 -0.8950  0.0703
                                            0.0011 -0.0001  0.0000  0.0000  0.0000
                                            0.0039 -0.0477
     3. (0.99996) CR ( 1) O   1           s(100.00%)
                                            1.0000  0.0000  0.0000  0.0000  0.0000
                                            0.0000  0.0000  0.0000  0.0000  0.0000
                                            0.0000  0.0000  0.0000  0.0000 -0.0000
                                            0.0000  0.0000  0.0000  0.0000  0.0000
                                           -0.0000 -0.0000
     4. (0.99996) CR ( 1) O   2           s(100.00%)
                                            1.0000  0.0000  0.0000  0.0000  0.0000
                                            0.0000  0.0000  0.0000  0.0000  0.0000
                                            0.0000  0.0000  0.0000 -0.0000  0.0000
                                           -0.0000 -0.0000  0.0000  0.0000  0.0000
                                           -0.0000 -0.0000
     5. (0.99936) LP ( 1) O   1           s( 81.88%)p 0.22( 18.10%)d 0.00(  0.01%)
                                           -0.0000  0.9046  0.0251  0.0010  0.0000
                                            0.0000  0.0000  0.0000  0.0000  0.0000
                                            0.0000  0.0000  0.0000  0.4255 -0.0031
                                            0.0045  0.0015  0.0000  0.0000  0.0000
                                           -0.0065 -0.0081
     6. (0.99780) LP ( 2) O   1           s(  0.00%)p 1.00( 99.96%)d 0.00(  0.04%)
                                            0.0000  0.0000  0.0000  0.0000  0.0000
                                            0.9994  0.0288  0.0018 -0.0012  0.0000
                                            0.0000  0.0000  0.0000  0.0000  0.0000
                                            0.0000  0.0000  0.0000 -0.0188  0.0000
                                            0.0000  0.0000
     7. (0.99936) LP ( 1) O   2           s( 81.88%)p 0.22( 18.10%)d 0.00(  0.01%)
                                           -0.0000  0.9046  0.0251  0.0010  0.0000
                                            0.0000  0.0000  0.0000  0.0000  0.0000
                                            0.0000  0.0000  0.0000 -0.4255  0.0031
                                           -0.0045 -0.0015  0.0000  0.0000  0.0000
                                           -0.0065 -0.0081
     8. (0.99780) LP ( 2) O   2           s(  0.00%)p 1.00( 99.96%)d 0.00(  0.04%)
                                            0.0000  0.0000  0.0000  0.0000  0.0000
                                            0.9994  0.0288  0.0018 -0.0012  0.0000
                                            0.0000  0.0000  0.0000  0.0000  0.0000
                                            0.0000  0.0000  0.0000  0.0188  0.0000
                                            0.0000  0.0000
     9. (0.00220) RY*( 1) O   1           s(  0.00%)p 1.00( 77.80%)d 0.29( 22.20%)
                                            0.0000  0.0000  0.0000  0.0000  0.0000
                                           -0.0165  0.8816 -0.0247  0.0038  0.0000
                                            0.0000  0.0000  0.0000  0.0000  0.0000
                                            0.0000  0.0000  0.0000  0.4711  0.0000
                                            0.0000  0.0000
    10. (0.00064) RY*( 2) O   1           s( 80.04%)p 0.25( 19.95%)d 0.00(  0.01%)
                                            0.0000  0.0282  0.7364 -0.5073 -0.0001
                                            0.0000  0.0000  0.0000  0.0000  0.0000
                                            0.0000  0.0000  0.0000 -0.1052 -0.4217
                                            0.0012 -0.1026  0.0000  0.0000  0.0000
                                           -0.0086  0.0057
    11. (0.00003) RY*( 3) O   1           s( 34.46%)p 1.47( 50.83%)d 0.43( 14.71%)
    12. (0.00000) RY*( 4) O   1           s( 79.38%)p 0.20( 15.70%)d 0.06(  4.92%)
    13. (0.00000) RY*( 5) O   1           s(  0.00%)p 1.00( 99.99%)d 0.00(  0.01%)
    14. (0.00000) RY*( 6) O   1           s(  0.00%)p 1.00(100.00%)d 0.00(  0.00%)
    15. (0.00000) RY*( 7) O   1           s(  0.00%)p 1.00(100.00%)d 0.00(  0.00%)
    16. (0.00000) RY*( 8) O   1           s(  0.00%)p 1.00(100.00%)d 0.00(  0.00%)
    17. (0.00000) RY*( 9) O   1           s(  0.00%)p 1.00(100.00%)
    18. (0.00000) RY*(10) O   1           s(100.00%)p 0.00(  0.00%)d 0.00(  0.00%)
    19. (0.00000) RY*(11) O   1           s(  0.24%)p99.99( 99.65%)d 0.46(  0.11%)
    20. (0.00000) RY*(12) O   1           s(  0.94%)p99.99( 98.44%)d 0.65(  0.61%)
    21. (0.00000) RY*(13) O   1           s(  0.00%)p 0.00(  0.00%)d 1.00(100.00%)
    22. (0.00000) RY*(14) O   1           s(  0.00%)p 1.00( 22.25%)d 3.50( 77.75%)
    23. (0.00000) RY*(15) O   1           s(  0.00%)p 1.00(  0.25%)d99.99( 99.75%)
    24. (0.00000) RY*(16) O   1           s(  0.14%)p 0.86(  0.12%)d99.99( 99.75%)
    25. (0.00000) RY*(17) O   1           s(  3.73%)p 4.45( 16.62%)d21.33( 79.65%)
    26. (0.00220) RY*( 1) O   2           s(  0.00%)p 1.00( 77.80%)d 0.29( 22.20%)
                                            0.0000  0.0000  0.0000  0.0000  0.0000
                                           -0.0165  0.8816 -0.0247  0.0038  0.0000
                                            0.0000  0.0000  0.0000  0.0000  0.0000
                                            0.0000  0.0000  0.0000 -0.4711  0.0000
                                            0.0000  0.0000
    27. (0.00064) RY*( 2) O   2           s( 80.04%)p 0.25( 19.95%)d 0.00(  0.01%)
                                           -0.0000  0.0282  0.7364 -0.5073 -0.0001
                                            0.0000  0.0000  0.0000  0.0000  0.0000
                                            0.0000  0.0000  0.0000  0.1052  0.4217
                                           -0.0012  0.1026  0.0000  0.0000  0.0000
                                           -0.0086  0.0057
    28. (0.00003) RY*( 3) O   2           s( 34.46%)p 1.47( 50.83%)d 0.43( 14.71%)
    29. (0.00000) RY*( 4) O   2           s( 79.38%)p 0.20( 15.70%)d 0.06(  4.92%)
    30. (0.00000) RY*( 5) O   2           s(  0.00%)p 1.00( 99.99%)d 0.00(  0.01%)
    31. (0.00000) RY*( 6) O   2           s(  0.00%)p 1.00(100.00%)d 0.00(  0.00%)
    32. (0.00000) RY*( 7) O   2           s(  0.00%)p 1.00(100.00%)d 0.00(  0.00%)
    33. (0.00000) RY*( 8) O   2           s(  0.00%)p 1.00(100.00%)d 0.00(  0.00%)
    34. (0.00000) RY*( 9) O   2           s(  0.00%)p 1.00(100.00%)
    35. (0.00000) RY*(10) O   2           s(100.00%)p 0.00(  0.00%)d 0.00(  0.00%)
    36. (0.00000) RY*(11) O   2           s(  0.24%)p99.99( 99.65%)d 0.46(  0.11%)
    37. (0.00000) RY*(12) O   2           s(  0.94%)p99.99( 98.44%)d 0.65(  0.61%)
    38. (0.00000) RY*(13) O   2           s(  0.00%)p 0.00(  0.00%)d 1.00(100.00%)
    39. (0.00000) RY*(14) O   2           s(  0.00%)p 1.00( 22.25%)d 3.50( 77.75%)
    40. (0.00000) RY*(15) O   2           s(  0.00%)p 1.00(  0.25%)d99.99( 99.75%)
    41. (0.00000) RY*(16) O   2           s(  0.14%)p 0.86(  0.12%)d99.99( 99.75%)
    42. (0.00000) RY*(17) O   2           s(  3.73%)p 4.45( 16.62%)d21.33( 79.65%)
    43. (0.00000) BD*( 1) O   1 - O   2  
                ( 50.00%)   0.7071* O   1 s(  0.00%)p 1.00( 99.75%)d 0.00(  0.25%)
                ( 50.00%)  -0.7071* O   2 s(  0.00%)p 1.00( 99.75%)d 0.00(  0.25%)
    44. (0.00000) BD*( 2) O   1 - O   2  
                ( 50.00%)   0.7071* O   1 s( 19.17%)p 4.20( 80.60%)d 0.01(  0.23%)
                ( 50.00%)  -0.7071* O   2 s( 19.17%)p 4.20( 80.60%)d 0.01(  0.23%)


 NHO Directionality and "Bond Bending" (deviations from line of nuclear centers)

         [Thresholds for printing:  angular deviation  >  1.0 degree]
                                    hybrid p-character > 25.0%
                                    orbital occupancy  >  0.10e

                                Line of Centers        Hybrid 1              Hybrid 2
                                ---------------  -------------------   ------------------
                NBO               Theta   Phi    Theta   Phi    Dev    Theta   Phi    Dev
 ========================================================================================
     1. BD (   1) O   1 - O   2   180.0    0.0    90.0   90.0  90.0     90.0   90.0  90.0
     6. LP (   2) O   1             --     --     90.0    0.0   --       --     --    --
     8. LP (   2) O   2             --     --     90.0    0.0   --       --     --    --


 Second Order Perturbation Theory Analysis of Fock Matrix in NBO Basis

     Threshold for printing:   0.25 kcal/mol
                                                                              E(2)  E(j)-E(i) F(i,j)
         Donor NBO (i)                     Acceptor NBO (j)                 kcal/mol   a.u.    a.u. 
 ===================================================================================================

 within unit  1
   3. CR (   1) O   1                / 27. RY*(   2) O   2                    0.27   20.11    0.093
   3. CR (   1) O   1                / 28. RY*(   3) O   2                    0.32   20.80    0.103
   4. CR (   1) O   2                / 10. RY*(   2) O   1                    0.27   20.11    0.093
   4. CR (   1) O   2                / 11. RY*(   3) O   1                    0.32   20.80    0.103
   5. LP (   1) O   1                / 27. RY*(   2) O   2                    0.72    1.48    0.041
   6. LP (   2) O   1                / 26. RY*(   1) O   2                    2.18    1.57    0.074
   6. LP (   2) O   1                / 39. RY*(  14) O   2                    0.41    2.94    0.044
   7. LP (   1) O   2                / 10. RY*(   2) O   1                    0.72    1.48    0.041
   8. LP (   2) O   2                /  9. RY*(   1) O   1                    2.18    1.57    0.074
   8. LP (   2) O   2                / 22. RY*(  14) O   1                    0.41    2.94    0.044


 Natural Bond Orbitals (Summary):

                                                            Principal Delocalizations
           NBO                        Occupancy    Energy   (geminal,vicinal,remote)
 ====================================================================================
 Molecular unit  1  (O2)
     1. BD (   1) O   1 - O   2          1.00000    -0.58888   
     2. BD (   2) O   1 - O   2          1.00000    -1.16747   
     3. CR (   1) O   1                  0.99996   -19.65786  28(v),27(v)
     4. CR (   1) O   2                  0.99996   -19.65786  11(v),10(v)
     5. LP (   1) O   1                  0.99936    -1.03412  27(v)
     6. LP (   2) O   1                  0.99780    -0.48475  26(v),39(v)
     7. LP (   1) O   2                  0.99936    -1.03412  10(v)
     8. LP (   2) O   2                  0.99780    -0.48475  9(v),22(v)
     9. RY*(   1) O   1                  0.00220     1.08840   
    10. RY*(   2) O   1                  0.00064     0.44853   
    11. RY*(   3) O   1                  0.00003     1.14587   
    12. RY*(   4) O   1                  0.00000     1.52108   
    13. RY*(   5) O   1                  0.00000     4.67477   
    14. RY*(   6) O   1                  0.00000     0.88241   
    15. RY*(   7) O   1                  0.00000     0.60437   
    16. RY*(   8) O   1                  0.00000     4.65129   
    17. RY*(   9) O   1                  0.00000     0.86934   
    18. RY*(  10) O   1                  0.00000    49.54470   
    19. RY*(  11) O   1                  0.00000     5.04330   
    20. RY*(  12) O   1                  0.00000     0.66624   
    21. RY*(  13) O   1                  0.00000     2.78149   
    22. RY*(  14) O   1                  0.00000     2.45114   
    23. RY*(  15) O   1                  0.00000     2.88798   
    24. RY*(  16) O   1                  0.00000     2.76444   
    25. RY*(  17) O   1                  0.00000     3.02319   
    26. RY*(   1) O   2                  0.00220     1.08840   
    27. RY*(   2) O   2                  0.00064     0.44853   
    28. RY*(   3) O   2                  0.00003     1.14587   
    29. RY*(   4) O   2                  0.00000     1.52108   
    30. RY*(   5) O   2                  0.00000     4.67477   
    31. RY*(   6) O   2                  0.00000     0.88241   
    32. RY*(   7) O   2                  0.00000     0.60437   
    33. RY*(   8) O   2                  0.00000     4.65129   
    34. RY*(   9) O   2                  0.00000     0.86934   
    35. RY*(  10) O   2                  0.00000    49.54470   
    36. RY*(  11) O   2                  0.00000     5.04330   
    37. RY*(  12) O   2                  0.00000     0.66624   
    38. RY*(  13) O   2                  0.00000     2.78149   
    39. RY*(  14) O   2                  0.00000     2.45114   
    40. RY*(  15) O   2                  0.00000     2.88798   
    41. RY*(  16) O   2                  0.00000     2.76444   
    42. RY*(  17) O   2                  0.00000     3.02319   
    43. BD*(   1) O   1 - O   2          0.00000    -0.11674   
    44. BD*(   2) O   1 - O   2          0.00000     0.39264   
       -------------------------------
              Total Lewis    7.99426  ( 99.9282%)
        Valence non-Lewis    0.00000  (  0.0000%)
        Rydberg non-Lewis    0.00574  (  0.0718%)
       -------------------------------
            Total unit  1    8.00000  (100.0000%)
           Charge unit  1    0.00000
 Sorting of NBOs:                    4    3    2    7    5    1    6    8   43   44
 Sorting of NBOs:                   10   27   32   15   37   20   17   34   14   31
 Sorting of NBOs:                   26    9   28   11   12   29   39   22   41   24
 Sorting of NBOs:                   21   38   23   40   42   25   33   16   30   13
 Sorting of NBOs:                   19   36   35   18
 Reordering of NBOs for storage:     4    3    2    7    5    1    6    8   43   44
 Reordering of NBOs for storage:    10   27   32   15   37   20   17   34   14   31
 Reordering of NBOs for storage:    26    9   28   11   12   29   39   22   41   24
 Reordering of NBOs for storage:    21   38   23   40   42   25   33   16   30   13
 Reordering of NBOs for storage:    19   36   35   18
 Labels of output orbitals:  CR  CR  BD  LP  LP  BD  LP  LP  BD* BD* RY* RY* RY* RY* RY* RY* RY* RY* RY* RY* 
 Labels of output orbitals:  RY* RY* RY* RY* RY* RY* RY* RY* RY* RY* RY* RY* RY* RY* RY* RY* RY* RY* RY* RY* 
 Labels of output orbitals:  RY* RY* RY* RY* 
 GSVD:  LWork=       -1584 too small for GESVD, short by        7020 words or        7020 for optimal perf.


 ***************************************************
 *******         Beta  spin orbitals         *******
 ***************************************************


 NATURAL POPULATIONS:  Natural atomic orbital occupancies 
                                                          
   NAO  Atom  No  lang   Type(AO)    Occupancy      Energy
 ----------------------------------------------------------
     1    O    1  S      Cor( 1S)     0.99996     -19.65777
     2    O    1  S      Val( 2S)     0.90783      -1.10207
     3    O    1  S      Ryd( 3S)     0.00671       0.67056
     4    O    1  S      Ryd( 4S)     0.00018       1.13244
     5    O    1  S      Ryd( 5S)     0.00000      49.53914
     6    O    1  px     Val( 2p)     0.99662      -0.48322
     7    O    1  px     Ryd( 3p)     0.00254       0.61427
     8    O    1  px     Ryd( 5p)     0.00000       4.67422
     9    O    1  px     Ryd( 4p)     0.00000       0.88514
    10    O    1  py     Val( 2p)     0.49870      -0.35329
    11    O    1  py     Ryd( 3p)     0.00003       0.60362
    12    O    1  py     Ryd( 5p)     0.00002       4.65107
    13    O    1  py     Ryd( 4p)     0.00000       0.86932
    14    O    1  pz     Val( 2p)     0.58142      -0.34290
    15    O    1  pz     Ryd( 3p)     0.00260       0.72963
    16    O    1  pz     Ryd( 5p)     0.00002       4.99593
    17    O    1  pz     Ryd( 4p)     0.00001       0.77403
    18    O    1  dxy    Ryd( 3d)     0.00000       2.78149
    19    O    1  dxz    Ryd( 3d)     0.00084       2.92156
    20    O    1  dyz    Ryd( 3d)     0.00124       2.88945
    21    O    1  dx2y2  Ryd( 3d)     0.00005       2.77046
    22    O    1  dz2    Ryd( 3d)     0.00121       3.56849
 
    23    O    2  S      Cor( 1S)     0.99996     -19.65777
    24    O    2  S      Val( 2S)     0.90783      -1.10207
    25    O    2  S      Ryd( 3S)     0.00671       0.67056
    26    O    2  S      Ryd( 4S)     0.00018       1.13244
    27    O    2  S      Ryd( 5S)     0.00000      49.53914
    28    O    2  px     Val( 2p)     0.99662      -0.48322
    29    O    2  px     Ryd( 3p)     0.00254       0.61427
    30    O    2  px     Ryd( 5p)     0.00000       4.67422
    31    O    2  px     Ryd( 4p)     0.00000       0.88514
    32    O    2  py     Val( 2p)     0.49870      -0.35329
    33    O    2  py     Ryd( 3p)     0.00003       0.60362
    34    O    2  py     Ryd( 5p)     0.00002       4.65107
    35    O    2  py     Ryd( 4p)     0.00000       0.86932
    36    O    2  pz     Val( 2p)     0.58142      -0.34290
    37    O    2  pz     Ryd( 3p)     0.00260       0.72963
    38    O    2  pz     Ryd( 5p)     0.00002       4.99593
    39    O    2  pz     Ryd( 4p)     0.00001       0.77403
    40    O    2  dxy    Ryd( 3d)     0.00000       2.78149
    41    O    2  dxz    Ryd( 3d)     0.00084       2.92156
    42    O    2  dyz    Ryd( 3d)     0.00124       2.88945
    43    O    2  dx2y2  Ryd( 3d)     0.00005       2.77046
    44    O    2  dz2    Ryd( 3d)     0.00121       3.56849

 WARNING:  Population inversion found on atom  O    1
           Population inversion found on atom  O    2


 Summary of Natural Population Analysis:                  
                                                          
                                       Natural Population 
                Natural  -----------------------------------------------
    Atom  No    Charge         Core      Valence    Rydberg      Total
 -----------------------------------------------------------------------
      O    1    0.00000      0.99996     2.98457    0.01547     4.00000
      O    2    0.00000      0.99996     2.98457    0.01547     4.00000
 =======================================================================
   * Total *    0.00000      1.99992     5.96914    0.03094     8.00000

                                 Natural Population      
 --------------------------------------------------------
   Core                       1.99992 ( 99.9962% of   2)
   Valence                    5.96914 ( 99.4857% of   6)
   Natural Minimal Basis      7.96906 ( 99.6133% of   8)
   Natural Rydberg Basis      0.03094 (  0.3867% of   8)
 --------------------------------------------------------

    Atom  No          Natural Electron Configuration
 ----------------------------------------------------------------------------
      O    1      [core]2S( 0.91)2p( 2.08)3S( 0.01)3p( 0.01)
      O    2      [core]2S( 0.91)2p( 2.08)3S( 0.01)3p( 0.01)


 NATURAL BOND ORBITAL ANALYSIS, beta spin orbitals:

                       Occupancies       Lewis Structure    Low   High
           Occ.    -------------------  -----------------   occ   occ
  Cycle   Thresh.   Lewis   Non-Lewis     CR  BD  3C  LP    (L)   (NL)   Dev
 =============================================================================
   1(1)    0.90     7.99426   0.00574      2   2   0   4     0      0    0.00
 -----------------------------------------------------------------------------

 Structure accepted: No low occupancy Lewis orbitals

 --------------------------------------------------------
   Core                      1.99992 ( 99.996% of   2)
   Valence Lewis             5.99434 ( 99.906% of   6)
  ==================       ============================
   Total Lewis               7.99426 ( 99.928% of   8)
  -----------------------------------------------------
   Valence non-Lewis         0.00000 (  0.000% of   8)
   Rydberg non-Lewis         0.00574 (  0.072% of   8)
  ==================       ============================
   Total non-Lewis           0.00574 (  0.072% of   8)
 --------------------------------------------------------


       (Occupancy)   Bond orbital/ Coefficients/ Hybrids
 ---------------------------------------------------------------------------------
     1. (1.00000) BD ( 1) O   1 - O   2  
                ( 50.00%)   0.7071* O   1 s(  0.00%)p 1.00( 99.75%)d 0.00(  0.25%)
                                            0.0000  0.0000  0.0000  0.0000  0.0000
                                            0.0000  0.0000  0.0000  0.0000  0.9987
                                            0.0081 -0.0065  0.0010  0.0000  0.0000
                                            0.0000  0.0000  0.0000  0.0000 -0.0499
                                            0.0000  0.0000
                ( 50.00%)   0.7071* O   2 s(  0.00%)p 1.00( 99.75%)d 0.00(  0.25%)
                                            0.0000  0.0000  0.0000  0.0000  0.0000
                                            0.0000  0.0000  0.0000  0.0000  0.9987
                                            0.0081 -0.0065  0.0010  0.0000  0.0000
                                            0.0000  0.0000  0.0000  0.0000  0.0499
                                            0.0000  0.0000
     2. (1.00000) BD ( 2) O   1 - O   2  
                ( 50.00%)   0.7071* O   1 s( 19.17%)p 4.20( 80.60%)d 0.01(  0.23%)
                                            0.0000 -0.4246  0.1071  0.0040  0.0000
                                            0.0000  0.0000  0.0000  0.0000  0.0000
                                            0.0000  0.0000  0.0000  0.8950 -0.0703
                                           -0.0011  0.0001  0.0000  0.0000  0.0000
                                            0.0039 -0.0477
                ( 50.00%)   0.7071* O   2 s( 19.17%)p 4.20( 80.60%)d 0.01(  0.23%)
                                           -0.0000 -0.4246  0.1071  0.0040  0.0000
                                            0.0000  0.0000  0.0000  0.0000  0.0000
                                            0.0000  0.0000  0.0000 -0.8950  0.0703
                                            0.0011 -0.0001  0.0000  0.0000  0.0000
                                            0.0039 -0.0477
     3. (0.99996) CR ( 1) O   1           s(100.00%)
                                            1.0000  0.0000  0.0000  0.0000  0.0000
                                            0.0000  0.0000  0.0000  0.0000  0.0000
                                            0.0000  0.0000  0.0000  0.0000 -0.0000
                                            0.0000  0.0000  0.0000  0.0000  0.0000
                                           -0.0000 -0.0000
     4. (0.99996) CR ( 1) O   2           s(100.00%)
                                            1.0000  0.0000  0.0000  0.0000  0.0000
                                            0.0000  0.0000  0.0000  0.0000  0.0000
                                            0.0000  0.0000  0.0000 -0.0000  0.0000
                                           -0.0000 -0.0000  0.0000  0.0000  0.0000
                                           -0.0000 -0.0000
     5. (0.99936) LP ( 1) O   1           s( 81.88%)p 0.22( 18.10%)d 0.00(  0.01%)
                                           -0.0000  0.9046  0.0251  0.0010  0.0000
                                            0.0000  0.0000  0.0000  0.0000  0.0000
                                            0.0000  0.0000  0.0000  0.4255 -0.0031
                                            0.0045  0.0015  0.0000  0.0000  0.0000
                                           -0.0065 -0.0081
     6. (0.99780) LP ( 2) O   1           s(  0.00%)p 1.00( 99.96%)d 0.00(  0.04%)
                                            0.0000  0.0000  0.0000  0.0000  0.0000
                                            0.9994  0.0288  0.0018 -0.0012  0.0000
                                            0.0000  0.0000  0.0000  0.0000  0.0000
                                            0.0000  0.0000  0.0000 -0.0188  0.0000
                                            0.0000  0.0000
     7. (0.99936) LP ( 1) O   2           s( 81.88%)p 0.22( 18.10%)d 0.00(  0.01%)
                                           -0.0000  0.9046  0.0251  0.0010  0.0000
                                            0.0000  0.0000  0.0000  0.0000  0.0000
                                            0.0000  0.0000  0.0000 -0.4255  0.0031
                                           -0.0045 -0.0015  0.0000  0.0000  0.0000
                                           -0.0065 -0.0081
     8. (0.99780) LP ( 2) O   2           s(  0.00%)p 1.00( 99.96%)d 0.00(  0.04%)
                                            0.0000  0.0000  0.0000  0.0000  0.0000
                                            0.9994  0.0288  0.0018 -0.0012  0.0000
                                            0.0000  0.0000  0.0000  0.0000  0.0000
                                            0.0000  0.0000  0.0000  0.0188  0.0000
                                            0.0000  0.0000
     9. (0.00220) RY*( 1) O   1           s(  0.00%)p 1.00( 77.80%)d 0.29( 22.20%)
                                            0.0000  0.0000  0.0000  0.0000  0.0000
                                           -0.0165  0.8816 -0.0247  0.0038  0.0000
                                            0.0000  0.0000  0.0000  0.0000  0.0000
                                            0.0000  0.0000  0.0000  0.4711  0.0000
                                            0.0000  0.0000
    10. (0.00064) RY*( 2) O   1           s( 80.04%)p 0.25( 19.95%)d 0.00(  0.01%)
                                           -0.0000  0.0282  0.7364 -0.5073 -0.0001
                                            0.0000  0.0000  0.0000  0.0000  0.0000
                                            0.0000  0.0000  0.0000 -0.1052 -0.4217
                                            0.0012 -0.1026  0.0000  0.0000  0.0000
                                           -0.0086  0.0057
    11. (0.00003) RY*( 3) O   1           s( 34.46%)p 1.47( 50.83%)d 0.43( 14.71%)
    12. (0.00000) RY*( 4) O   1           s( 79.38%)p 0.20( 15.70%)d 0.06(  4.92%)
    13. (0.00000) RY*( 5) O   1           s(  0.00%)p 1.00( 99.99%)d 0.00(  0.01%)
    14. (0.00000) RY*( 6) O   1           s(  0.00%)p 1.00(100.00%)d 0.00(  0.00%)
    15. (0.00000) RY*( 7) O   1           s(  0.00%)p 1.00(100.00%)d 0.00(  0.00%)
    16. (0.00000) RY*( 8) O   1           s(  0.00%)p 1.00(100.00%)d 0.00(  0.00%)
    17. (0.00000) RY*( 9) O   1           s(  0.00%)p 1.00(100.00%)
    18. (0.00000) RY*(10) O   1           s(100.00%)p 0.00(  0.00%)d 0.00(  0.00%)
    19. (0.00000) RY*(11) O   1           s(  0.24%)p99.99( 99.65%)d 0.46(  0.11%)
    20. (0.00000) RY*(12) O   1           s(  0.94%)p99.99( 98.44%)d 0.65(  0.61%)
    21. (0.00000) RY*(13) O   1           s(  0.00%)p 0.00(  0.00%)d 1.00(100.00%)
    22. (0.00000) RY*(14) O   1           s(  0.00%)p 1.00( 22.25%)d 3.50( 77.75%)
    23. (0.00000) RY*(15) O   1           s(  0.00%)p 1.00(  0.25%)d99.99( 99.75%)
    24. (0.00000) RY*(16) O   1           s(  0.14%)p 0.86(  0.12%)d99.99( 99.75%)
    25. (0.00000) RY*(17) O   1           s(  3.73%)p 4.45( 16.62%)d21.33( 79.65%)
    26. (0.00220) RY*( 1) O   2           s(  0.00%)p 1.00( 77.80%)d 0.29( 22.20%)
                                            0.0000  0.0000  0.0000  0.0000  0.0000
                                           -0.0165  0.8816 -0.0247  0.0038  0.0000
                                            0.0000  0.0000  0.0000  0.0000  0.0000
                                            0.0000  0.0000  0.0000 -0.4711  0.0000
                                            0.0000  0.0000
    27. (0.00064) RY*( 2) O   2           s( 80.04%)p 0.25( 19.95%)d 0.00(  0.01%)
                                           -0.0000  0.0282  0.7364 -0.5073 -0.0001
                                            0.0000  0.0000  0.0000  0.0000  0.0000
                                            0.0000  0.0000  0.0000  0.1052  0.4217
                                           -0.0012  0.1026  0.0000  0.0000  0.0000
                                           -0.0086  0.0057
    28. (0.00003) RY*( 3) O   2           s( 34.46%)p 1.47( 50.83%)d 0.43( 14.71%)
    29. (0.00000) RY*( 4) O   2           s( 79.38%)p 0.20( 15.70%)d 0.06(  4.92%)
    30. (0.00000) RY*( 5) O   2           s(  0.00%)p 1.00( 99.99%)d 0.00(  0.01%)
    31. (0.00000) RY*( 6) O   2           s(  0.00%)p 1.00(100.00%)d 0.00(  0.00%)
    32. (0.00000) RY*( 7) O   2           s(  0.00%)p 1.00(100.00%)d 0.00(  0.00%)
    33. (0.00000) RY*( 8) O   2           s(  0.00%)p 1.00(100.00%)d 0.00(  0.00%)
    34. (0.00000) RY*( 9) O   2           s(  0.00%)p 1.00(100.00%)
    35. (0.00000) RY*(10) O   2           s(100.00%)p 0.00(  0.00%)d 0.00(  0.00%)
    36. (0.00000) RY*(11) O   2           s(  0.24%)p99.99( 99.65%)d 0.46(  0.11%)
    37. (0.00000) RY*(12) O   2           s(  0.94%)p99.99( 98.44%)d 0.65(  0.61%)
    38. (0.00000) RY*(13) O   2           s(  0.00%)p 0.00(  0.00%)d 1.00(100.00%)
    39. (0.00000) RY*(14) O   2           s(  0.00%)p 1.00( 22.25%)d 3.50( 77.75%)
    40. (0.00000) RY*(15) O   2           s(  0.00%)p 1.00(  0.25%)d99.99( 99.75%)
    41. (0.00000) RY*(16) O   2           s(  0.14%)p 0.86(  0.12%)d99.99( 99.75%)
    42. (0.00000) RY*(17) O   2           s(  3.73%)p 4.45( 16.62%)d21.33( 79.65%)
    43. (0.00000) BD*( 1) O   1 - O   2  
                ( 50.00%)   0.7071* O   1 s(  0.00%)p 1.00( 99.75%)d 0.00(  0.25%)
                ( 50.00%)  -0.7071* O   2 s(  0.00%)p 1.00( 99.75%)d 0.00(  0.25%)
    44. (0.00000) BD*( 2) O   1 - O   2  
                ( 50.00%)   0.7071* O   1 s( 19.17%)p 4.20( 80.60%)d 0.01(  0.23%)
                ( 50.00%)  -0.7071* O   2 s( 19.17%)p 4.20( 80.60%)d 0.01(  0.23%)


 NHO Directionality and "Bond Bending" (deviations from line of nuclear centers)

         [Thresholds for printing:  angular deviation  >  1.0 degree]
                                    hybrid p-character > 25.0%
                                    orbital occupancy  >  0.10e

                                Line of Centers        Hybrid 1              Hybrid 2
                                ---------------  -------------------   ------------------
                NBO               Theta   Phi    Theta   Phi    Dev    Theta   Phi    Dev
 ========================================================================================
     1. BD (   1) O   1 - O   2   180.0    0.0    90.0   90.0  90.0     90.0   90.0  90.0
     6. LP (   2) O   1             --     --     90.0    0.0   --       --     --    --
     8. LP (   2) O   2             --     --     90.0    0.0   --       --     --    --


 Second Order Perturbation Theory Analysis of Fock Matrix in NBO Basis

     Threshold for printing:   0.25 kcal/mol
                                                                              E(2)  E(j)-E(i) F(i,j)
         Donor NBO (i)                     Acceptor NBO (j)                 kcal/mol   a.u.    a.u. 
 ===================================================================================================

 within unit  1
   3. CR (   1) O   1                / 27. RY*(   2) O   2                    0.27   20.11    0.093
   3. CR (   1) O   1                / 28. RY*(   3) O   2                    0.32   20.80    0.103
   4. CR (   1) O   2                / 10. RY*(   2) O   1                    0.27   20.11    0.093
   4. CR (   1) O   2                / 11. RY*(   3) O   1                    0.32   20.80    0.103
   5. LP (   1) O   1                / 27. RY*(   2) O   2                    0.72    1.48    0.041
   6. LP (   2) O   1                / 26. RY*(   1) O   2                    2.18    1.57    0.074
   6. LP (   2) O   1                / 39. RY*(  14) O   2                    0.41    2.94    0.044
   7. LP (   1) O   2                / 10. RY*(   2) O   1                    0.72    1.48    0.041
   8. LP (   2) O   2                /  9. RY*(   1) O   1                    2.18    1.57    0.074
   8. LP (   2) O   2                / 22. RY*(  14) O   1                    0.41    2.94    0.044


 Natural Bond Orbitals (Summary):

                                                            Principal Delocalizations
           NBO                        Occupancy    Energy   (geminal,vicinal,remote)
 ====================================================================================
 Molecular unit  1  (O2)
     1. BD (   1) O   1 - O   2          1.00000    -0.58888   
     2. BD (   2) O   1 - O   2          1.00000    -1.16747   
     3. CR (   1) O   1                  0.99996   -19.65786  28(v),27(v)
     4. CR (   1) O   2                  0.99996   -19.65786  11(v),10(v)
     5. LP (   1) O   1                  0.99936    -1.03412  27(v)
     6. LP (   2) O   1                  0.99780    -0.48475  26(v),39(v)
     7. LP (   1) O   2                  0.99936    -1.03412  10(v)
     8. LP (   2) O   2                  0.99780    -0.48475  9(v),22(v)
     9. RY*(   1) O   1                  0.00220     1.08840   
    10. RY*(   2) O   1                  0.00064     0.44853   
    11. RY*(   3) O   1                  0.00003     1.14587   
    12. RY*(   4) O   1                  0.00000     1.52108   
    13. RY*(   5) O   1                  0.00000     4.67477   
    14. RY*(   6) O   1                  0.00000     0.88241   
    15. RY*(   7) O   1                  0.00000     0.60437   
    16. RY*(   8) O   1                  0.00000     4.65129   
    17. RY*(   9) O   1                  0.00000     0.86934   
    18. RY*(  10) O   1                  0.00000    49.54470   
    19. RY*(  11) O   1                  0.00000     5.04330   
    20. RY*(  12) O   1                  0.00000     0.66624   
    21. RY*(  13) O   1                  0.00000     2.78149   
    22. RY*(  14) O   1                  0.00000     2.45114   
    23. RY*(  15) O   1                  0.00000     2.88798   
    24. RY*(  16) O   1                  0.00000     2.76444   
    25. RY*(  17) O   1                  0.00000     3.02319   
    26. RY*(   1) O   2                  0.00220     1.08840   
    27. RY*(   2) O   2                  0.00064     0.44853   
    28. RY*(   3) O   2                  0.00003     1.14587   
    29. RY*(   4) O   2                  0.00000     1.52108   
    30. RY*(   5) O   2                  0.00000     4.67477   
    31. RY*(   6) O   2                  0.00000     0.88241   
    32. RY*(   7) O   2                  0.00000     0.60437   
    33. RY*(   8) O   2                  0.00000     4.65129   
    34. RY*(   9) O   2                  0.00000     0.86934   
    35. RY*(  10) O   2                  0.00000    49.54470   
    36. RY*(  11) O   2                  0.00000     5.04330   
    37. RY*(  12) O   2                  0.00000     0.66624   
    38. RY*(  13) O   2                  0.00000     2.78149   
    39. RY*(  14) O   2                  0.00000     2.45114   
    40. RY*(  15) O   2                  0.00000     2.88798   
    41. RY*(  16) O   2                  0.00000     2.76444   
    42. RY*(  17) O   2                  0.00000     3.02319   
    43. BD*(   1) O   1 - O   2          0.00000    -0.11674   
    44. BD*(   2) O   1 - O   2          0.00000     0.39264   
       -------------------------------
              Total Lewis    7.99426  ( 99.9282%)
        Valence non-Lewis    0.00000  (  0.0000%)
        Rydberg non-Lewis    0.00574  (  0.0718%)
       -------------------------------
            Total unit  1    8.00000  (100.0000%)
           Charge unit  1    0.00000
 Sorting of NBOs:                    3    4    2    5    7    1    6    8   43   44
 Sorting of NBOs:                   10   27   32   15   20   37   17   34   14   31
 Sorting of NBOs:                    9   26   11   28   12   29   22   39   24   41
 Sorting of NBOs:                   21   38   23   40   42   25   33   16   30   13
 Sorting of NBOs:                   36   19   18   35
 Reordering of NBOs for storage:     3    4    2    5    7    1    6    8   43   44
 Reordering of NBOs for storage:    10   27   32   15   20   37   17   34   14   31
 Reordering of NBOs for storage:     9   26   11   28   12   29   22   39   24   41
 Reordering of NBOs for storage:    21   38   23   40   42   25   33   16   30   13
 Reordering of NBOs for storage:    36   19   18   35
 Labels of output orbitals:  CR  CR  BD  LP  LP  BD  LP  LP  BD* BD* RY* RY* RY* RY* RY* RY* RY* RY* RY* RY* 
 Labels of output orbitals:  RY* RY* RY* RY* RY* RY* RY* RY* RY* RY* RY* RY* RY* RY* RY* RY* RY* RY* RY* RY* 
 Labels of output orbitals:  RY* RY* RY* RY* 
 GSVD:  LWork=       -1584 too small for GESVD, short by        7020 words or        7020 for optimal perf.
 Leave Link  607 at Mon Apr 21 19:47:56 2025, MaxMem=   536870912 cpu:               8.1 elap:               1.2
 (Enter /home/szhao/Apps/g16/l701.exe)
 ... and contract with generalized density number  0.
 Compute integral first derivatives.
 Leave Link  701 at Mon Apr 21 19:47:59 2025, MaxMem=   536870912 cpu:               2.6 elap:               1.6
 (Enter /home/szhao/Apps/g16/l702.exe)
 L702 exits ... SP integral derivatives will be done elsewhere.
 Leave Link  702 at Mon Apr 21 19:48:00 2025, MaxMem=   536870912 cpu:               0.6 elap:               0.2
 (Enter /home/szhao/Apps/g16/l703.exe)
 Integral derivatives from FoFJK, PRISM(SPDF).
 Compute integral first derivatives, UseDBF=F ICtDFT=           0.
 Calling FoFJK, ICntrl=      2127 FMM=F ISym2X=1 I1Cent= 0 IOpClX= 1 NMat=1 NMatS=1 NMatT=0.
 FoFJK:  IHMeth= 1 ICntrl=    2127 DoSepK=F KAlg= 0 I1Cent=           0 FoldK=F
 IRaf=         0 NMat=       1 IRICut=       1 DoRegI=T DoRafI=F ISym2E= 1 IDoP0=0 IntGTp=1.
 FoFCou: FMM=F IPFlag=           0 FMFlag=      100000 FMFlg1=         800
         NFxFlg=           0 DoJE=F BraDBF=F KetDBF=F FulRan=T
         wScrn=  0.000000 ICntrl=      2127 IOpCl=  1 I1Cent=           0 NGrid=           0
         NMat0=    1 NMatS0=      1 NMatT0=    0 NMatD0=    1 NMtDS0=    0 NMtDT0=    0
 Petite list used in FoFCou.
 Leave Link  703 at Mon Apr 21 19:48:00 2025, MaxMem=   536870912 cpu:               2.3 elap:               0.4
 (Enter /home/szhao/Apps/g16/l716.exe)
 Dipole        = 1.97215226D-30 1.05878230D-33 0.00000000D+00
 ***** Axes restored to original set *****
 -------------------------------------------------------------------
 Center     Atomic                   Forces (Hartrees/Bohr)
 Number     Number              X              Y              Z
 -------------------------------------------------------------------
      1        8           0.074758728    0.000000000    0.000000000
      2        8          -0.074758728   -0.000000000   -0.000000000
 -------------------------------------------------------------------
 Cartesian Forces:  Max     0.074758728 RMS     0.043161972
 Z-matrix is all fixed cartesians, so copy forces.
 Force constants in Cartesian coordinates: 
                1             2             3             4             5 
      1  0.881815D+00
      2  0.000000D+00  0.100000D+01
      3  0.000000D+00  0.000000D+00  0.100000D+01
      4 -0.881815D+00  0.000000D+00  0.000000D+00  0.881815D+00
      5  0.000000D+00  0.000000D+00  0.000000D+00  0.000000D+00  0.100000D+01
      6  0.000000D+00  0.000000D+00  0.000000D+00  0.000000D+00  0.000000D+00
                6 
      6  0.100000D+01
 Leave Link  716 at Mon Apr 21 19:48:01 2025, MaxMem=   536870912 cpu:               0.6 elap:               0.1
 (Enter /home/szhao/Apps/g16/l103.exe)

 GradGradGradGradGradGradGradGradGradGradGradGradGradGradGradGradGradGrad
 Berny optimization.
 Search for a local minimum.
 Step number   1 out of a maximum of    2
 All quantities printed in internal units (Hartrees-Bohrs-Radians)
 Second derivative matrix not updated -- first step.
 The second derivative matrix:
                          X1        Y1        Z1        X2        Y2
           X1           0.88181
           Y1           0.00000   1.00000
           Z1           0.00000   0.00000   1.00000
           X2          -0.88181   0.00000  -0.00000   0.88181
           Y2           0.00000   0.00000   0.00000   0.00000   1.00000
           Z2          -0.00000   0.00000  -0.00000   0.00000   0.00000
                          Z2
           Z2           1.00000
 ITU=  0
     Eigenvalues ---    1.76363
 Angle between quadratic step and forces=   0.00 degrees.
 ClnCor:  largest displacement from symmetrization is 2.60D-18 for atom     1.
 Linear search not attempted -- first point.
 ClnCor:  largest displacement from symmetrization is 0.00D+00 for atom     0.
 B after Tr=     0.000000    0.000000    0.000000
         Rot=    1.000000    0.000000    0.000000    0.000000 Ang=   0.00 deg.
 Variable       Old X    -DE/DX   Delta X   Delta X   Delta X     New X
                                 (Linear)    (Quad)   (Total)
    X1       -1.16891   0.07476   0.00000   0.04239   0.04239  -1.12652
    Y1        0.00000   0.00000   0.00000   0.00000   0.00000   0.00000
    Z1        0.00000   0.00000   0.00000   0.00000   0.00000   0.00000
    X2        1.16891  -0.07476   0.00000  -0.04239  -0.04239   1.12652
    Y2        0.00000  -0.00000   0.00000   0.00000   0.00000   0.00000
    Z2        0.00000  -0.00000   0.00000  -0.00000  -0.00000   0.00000
         Item               Value     Threshold  Converged?
 Maximum Force            0.074759     0.000450     NO 
 RMS     Force            0.043162     0.000300     NO 
 Maximum Displacement     0.042389     0.001800     NO 
 RMS     Displacement     0.024473     0.001200     NO 
 Predicted change in Energy=-3.168958D-03
 GradGradGradGradGradGradGradGradGradGradGradGradGradGradGradGradGradGrad

 Leave Link  103 at Mon Apr 21 19:48:01 2025, MaxMem=   536870912 cpu:               1.7 elap:               0.3
 (Enter /home/szhao/Apps/g16/l9999.exe)
 1\1\GINC-NODE03\Force\UM062X\6-311+G(d,p)\O2\SZHAO\21-Apr-2025\0\\#p U
 M062X/6-311+G** force int=superfine pop=saveNBO\\Title Card Required\\
 0,1\O,-0.618562,0.,0.\O,0.618562,0.,0.\\Version=ES64L-G16RevA.03\HF=-1
 50.2452605\S2=0.\S2-1=0.\S2A=0.\RMSD=4.156e-09\RMSF=4.316e-02\Dipole=0
 .,0.,0.\Quadrupole=-0.3012633,0.8349084,-0.5336451,0.,0.,0.\PG=D*H [C*
 (O1.O1)]\\@


 A MAN BEGINS CUTTING HIS WISDOM TEETH THE 1ST
 TIME HE BITES OFF MORE THAN HE CAN CHEW.
 Job cpu time:       0 days  0 hours  0 minutes 38.8 seconds.
 Elapsed time:       0 days  0 hours  0 minutes  7.4 seconds.
 File lengths (MBytes):  RWF=     17 Int=      0 D2E=      0 Chk=      2 Scr=      2
 Normal termination of Gaussian 16 at Mon Apr 21 19:48:02 2025.
