Title Card Required                                                     
Force     UM062X                                                      6-311+G(d,p)        
Number of atoms                            I                6
Info1-9                                    I   N=           9
          15          15           0           0           0         100
           5          18        -502
Full Title                                 C   N=           2
Title Card Required     
Route                                      C   N=           4
#p UM062X/6-311+G** force int=superfine         
Charge                                     I                0
Multiplicity                               I                1
Number of electrons                        I               16
Number of alpha electrons                  I                8
Number of beta electrons                   I                8
Number of basis functions                  I               68
Number of independent functions            I               68
Number of point charges in /Mol/           I                0
Number of translation vectors              I                0
Atomic numbers                             I   N=           6
           6           6           1           1           1           1
Nuclear charges                            R   N=           6
  6.00000000E+00  6.00000000E+00  1.00000000E+00  1.00000000E+00  1.00000000E+00
  1.00000000E+00
Current cartesian coordinates              R   N=          18
 -2.51017960E-21  1.45307089E+00  0.00000000E+00 -1.77945678E-16 -1.45307089E+00
  0.00000000E+00 -1.77783733E+00  2.45874723E+00  0.00000000E+00  1.77774284E+00
  2.45894943E+00  0.00000000E+00  1.77783733E+00 -2.45874723E+00  0.00000000E+00
 -1.77774284E+00 -2.45894943E+00  0.00000000E+00
Number of symbols in /Mol/                 I                0
Force Field                                I                0
Atom Types                                 C   N=           6
                                                            
            
Int Atom Types                             I   N=           6
           0           0           0           0           0           0
MM charges                                 R   N=           6
  0.00000000E+00  0.00000000E+00  0.00000000E+00  0.00000000E+00  0.00000000E+00
  0.00000000E+00
Integer atomic weights                     I   N=           6
          12          12           1           1           1           1
Real atomic weights                        R   N=           6
  1.20000000E+01  1.20000000E+01  1.00782504E+00  1.00782504E+00  1.00782504E+00
  1.00782504E+00
Atom fragment info                         I   N=           6
           0           0           0           0           0           0
Atom residue num                           I   N=           6
           0           0           0           0           0           0
Nuclear spins                              I   N=           6
           0           0           1           1           1           1
Nuclear ZEff                               R   N=           6
 -3.60000000E+00 -3.60000000E+00 -1.00000000E+00 -1.00000000E+00 -1.00000000E+00
 -1.00000000E+00
Nuclear ZNuc                               R   N=           6
  6.00000000E+00  6.00000000E+00  1.00000000E+00  1.00000000E+00  1.00000000E+00
  1.00000000E+00
Nuclear QMom                               R   N=           6
  0.00000000E+00  0.00000000E+00  0.00000000E+00  0.00000000E+00  0.00000000E+00
  0.00000000E+00
Nuclear GFac                               R   N=           6
  0.00000000E+00  0.00000000E+00  2.79284600E+00  2.79284600E+00  2.79284600E+00
  2.79284600E+00
MicOpt                                     I   N=           6
          -1          -1          -1          -1          -1          -1
Number of residues                         I                0
Number of secondary structures             I                0
SymInf integers                            I   N=          26
           2           4           1           1           1          -1
          -1           1           1           1          -1          -1
          -1          -1           0           0           0           0
           0           0           0           0           0           0
           0           0
RotTr to input orientation                 R   N=          12
  1.04977316E-16  1.00000000E+00  0.00000000E+00 -1.00000000E+00  1.04976740E-16
  0.00000000E+00  0.00000000E+00  0.00000000E+00  1.00000000E+00  2.77555756E-17
  0.00000000E+00  0.00000000E+00
Number of contracted shells                I               28
Number of primitive shells                 I               50
Pure/Cartesian d shells                    I                0
Pure/Cartesian f shells                    I                0
Highest angular momentum                   I                2
Largest degree of contraction              I                6
Shell types                                I   N=          28
           0          -1          -1          -1          -1          -2
           0          -1          -1          -1          -1          -2
           0           0           0           1           0           0
           0           1           0           0           0           1
           0           0           0           1
Number of primitives per shell             I   N=          28
           6           3           1           1           1           1
           6           3           1           1           1           1
           3           1           1           1           3           1
           1           1           3           1           1           1
           3           1           1           1
Shell to atom map                          I   N=          28
           1           1           1           1           1           1
           2           2           2           2           2           2
           3           3           3           3           4           4
           4           4           5           5           5           5
           6           6           6           6
Primitive exponents                        R   N=          50
  4.56324000E+03  6.82024000E+02  1.54973000E+02  4.44553000E+01  1.30290000E+01
  1.82773000E+00  2.09642000E+01  4.80331000E+00  1.45933000E+00  4.83456000E-01
  1.45585000E-01  4.38000000E-02  6.26000000E-01  4.56324000E+03  6.82024000E+02
  1.54973000E+02  4.44553000E+01  1.30290000E+01  1.82773000E+00  2.09642000E+01
  4.80331000E+00  1.45933000E+00  4.83456000E-01  1.45585000E-01  4.38000000E-02
  6.26000000E-01  3.38650000E+01  5.09479000E+00  1.15879000E+00  3.25840000E-01
  1.02741000E-01  7.50000000E-01  3.38650000E+01  5.09479000E+00  1.15879000E+00
  3.25840000E-01  1.02741000E-01  7.50000000E-01  3.38650000E+01  5.09479000E+00
  1.15879000E+00  3.25840000E-01  1.02741000E-01  7.50000000E-01  3.38650000E+01
  5.09479000E+00  1.15879000E+00  3.25840000E-01  1.02741000E-01  7.50000000E-01
Contraction coefficients                   R   N=          50
  1.96665025E-03  1.52306019E-02  7.61269097E-02  2.60801033E-01  6.16462078E-01
  2.21006028E-01  1.14660081E-01  9.19999648E-01 -3.03068213E-03  1.00000000E+00
  1.00000000E+00  1.00000000E+00  1.00000000E+00  1.96665025E-03  1.52306019E-02
  7.61269097E-02  2.60801033E-01  6.16462078E-01  2.21006028E-01  1.14660081E-01
  9.19999648E-01 -3.03068213E-03  1.00000000E+00  1.00000000E+00  1.00000000E+00
  1.00000000E+00  2.54938145E-02  1.90373109E-01  8.52161486E-01  1.00000000E+00
  1.00000000E+00  1.00000000E+00  2.54938145E-02  1.90373109E-01  8.52161486E-01
  1.00000000E+00  1.00000000E+00  1.00000000E+00  2.54938145E-02  1.90373109E-01
  8.52161486E-01  1.00000000E+00  1.00000000E+00  1.00000000E+00  2.54938145E-02
  1.90373109E-01  8.52161486E-01  1.00000000E+00  1.00000000E+00  1.00000000E+00
P(S=P) Contraction coefficients            R   N=          50
  0.00000000E+00  0.00000000E+00  0.00000000E+00  0.00000000E+00  0.00000000E+00
  0.00000000E+00  4.02486927E-02  2.37593957E-01  8.15853851E-01  1.00000000E+00
  1.00000000E+00  1.00000000E+00  0.00000000E+00  0.00000000E+00  0.00000000E+00
  0.00000000E+00  0.00000000E+00  0.00000000E+00  0.00000000E+00  4.02486927E-02
  2.37593957E-01  8.15853851E-01  1.00000000E+00  1.00000000E+00  1.00000000E+00
  0.00000000E+00  0.00000000E+00  0.00000000E+00  0.00000000E+00  0.00000000E+00
  0.00000000E+00  0.00000000E+00  0.00000000E+00  0.00000000E+00  0.00000000E+00
  0.00000000E+00  0.00000000E+00  0.00000000E+00  0.00000000E+00  0.00000000E+00
  0.00000000E+00  0.00000000E+00  0.00000000E+00  0.00000000E+00  0.00000000E+00
  0.00000000E+00  0.00000000E+00  0.00000000E+00  0.00000000E+00  0.00000000E+00
Coordinates of each shell                  R   N=          84
 -1.67345307E-21  1.45307089E+00  0.00000000E+00 -1.67345307E-21  1.45307089E+00
  0.00000000E+00 -1.67345307E-21  1.45307089E+00  0.00000000E+00 -1.67345307E-21
  1.45307089E+00  0.00000000E+00 -1.67345307E-21  1.45307089E+00  0.00000000E+00
 -1.67345307E-21  1.45307089E+00  0.00000000E+00 -1.77946514E-16 -1.45307089E+00
  0.00000000E+00 -1.77946514E-16 -1.45307089E+00  0.00000000E+00 -1.77946514E-16
 -1.45307089E+00  0.00000000E+00 -1.77946514E-16 -1.45307089E+00  0.00000000E+00
 -1.77946514E-16 -1.45307089E+00  0.00000000E+00 -1.77946514E-16 -1.45307089E+00
  0.00000000E+00 -1.77783733E+00  2.45874723E+00  0.00000000E+00 -1.77783733E+00
  2.45874723E+00  0.00000000E+00 -1.77783733E+00  2.45874723E+00  0.00000000E+00
 -1.77783733E+00  2.45874723E+00  0.00000000E+00  1.77774284E+00  2.45894943E+00
  0.00000000E+00  1.77774284E+00  2.45894943E+00  0.00000000E+00  1.77774284E+00
  2.45894943E+00  0.00000000E+00  1.77774284E+00  2.45894943E+00  0.00000000E+00
  1.77783733E+00 -2.45874723E+00  0.00000000E+00  1.77783733E+00 -2.45874723E+00
  0.00000000E+00  1.77783733E+00 -2.45874723E+00  0.00000000E+00  1.77783733E+00
 -2.45874723E+00  0.00000000E+00 -1.77774284E+00 -2.45894943E+00  0.00000000E+00
 -1.77774284E+00 -2.45894943E+00  0.00000000E+00 -1.77774284E+00 -2.45894943E+00
  0.00000000E+00 -1.77774284E+00 -2.45894943E+00  0.00000000E+00
Num ILSW                                   I              100
ILSW                                       I   N=         100
           1           0           0           0           2           0
           0           0           0           0        4336          -1
           7           0           0           0           2           0
           0           0           0           0           1           0
           1           0           0           0           0           0
           0           0      100000           0          -1           0
           0           0           0           0           0           0
           0           0           0           1           0           0
           0 -2000000000           1           0           0           0
           0           0           4          52           0           0
           0           0          55           0           0           0
           0           0           0           6           0           1
           0           0           0           0           0           0
           0           0           0           0           0           0
           0           0           0           0           0           0
           0           0           0           0           0           0
           0           0           0           0
Num RLSW                                   I               52
RLSW                                       R   N=          52
  1.00000000E+00  1.00000000E+00  1.00000000E+00  1.00000000E+00  5.40000000E-01
  0.00000000E+00  0.00000000E+00  1.00000000E+00  0.00000000E+00  0.00000000E+00
  0.00000000E+00  0.00000000E+00  1.00000000E+00  0.00000000E+00  0.00000000E+00
  0.00000000E+00  0.00000000E+00  1.00000000E+00  0.00000000E+00  0.00000000E+00
  0.00000000E+00  0.00000000E+00  1.00000000E+00  0.00000000E+00  0.00000000E+00
  0.00000000E+00  0.00000000E+00  1.00000000E+00  0.00000000E+00  0.00000000E+00
  0.00000000E+00  0.00000000E+00  1.00000000E+00  0.00000000E+00  0.00000000E+00
  0.00000000E+00  0.00000000E+00  0.00000000E+00  1.00000000E+00  1.00000000E+00
  0.00000000E+00  1.00000000E+00  0.00000000E+00  0.00000000E+00  0.00000000E+00
  0.00000000E+00  0.00000000E+00  0.00000000E+00  0.00000000E+00  0.00000000E+00
  0.00000000E+00  0.00000000E+00
MxBond                                     I                3
NBond                                      I   N=           6
           3           3           1           1           1           1
IBond                                      I   N=          18
           2           3           4           1           5           6
           1           0           0           1           0           0
           2           0           0           2           0           0
RBond                                      R   N=          18
  1.00000000E+00  1.00000000E+00  1.00000000E+00  1.00000000E+00  1.00000000E+00
  1.00000000E+00  1.00000000E+00  0.00000000E+00  0.00000000E+00  1.00000000E+00
  0.00000000E+00  0.00000000E+00  1.00000000E+00  0.00000000E+00  0.00000000E+00
  1.00000000E+00  0.00000000E+00  0.00000000E+00
Virial Ratio                               R      2.009872907189699E+00
SCF Energy                                 R     -7.852775789071860E+01
Total Energy                               R     -7.852775789071860E+01
S**2                                       R     -1.421085471520200E-14
S**2 after annihilation                    R      1.421085471520190E-14
RMS Force                                  R      4.930026701657821E-02
RMS Density                                R      5.300107135968077E-09
Job Status                                 I                1
Nuclear derivative order                   I                1
External E-field                           R   N=          35
  0.00000000E+00  0.00000000E+00  0.00000000E+00  0.00000000E+00  0.00000000E+00
  0.00000000E+00  0.00000000E+00  0.00000000E+00  0.00000000E+00  0.00000000E+00
  0.00000000E+00  0.00000000E+00  0.00000000E+00  0.00000000E+00  0.00000000E+00
  0.00000000E+00  0.00000000E+00  0.00000000E+00  0.00000000E+00  0.00000000E+00
  0.00000000E+00  0.00000000E+00  0.00000000E+00  0.00000000E+00  0.00000000E+00
  0.00000000E+00  0.00000000E+00  0.00000000E+00  0.00000000E+00  0.00000000E+00
  0.00000000E+00  0.00000000E+00  0.00000000E+00  0.00000000E+00  0.00000000E+00
IOpCl                                      I                1
IROHF                                      I                0
Alpha Orbital Energies                     R   N=          68
 -1.05691030E+01 -1.05686676E+01 -8.20498953E-01 -6.81963742E-01 -5.33669340E-01
 -4.53097867E-01 -4.50734685E-01 -3.03713396E-01 -6.68706612E-03  3.38480661E-02
  3.82849349E-02  5.30450358E-02  7.86907215E-02  8.24460346E-02  9.71899622E-02
  1.22569976E-01  1.58984855E-01  1.69770056E-01  2.06097842E-01  2.15993891E-01
  2.88508253E-01  3.00192986E-01  4.22098235E-01  4.45552726E-01  5.08547835E-01
  5.77140537E-01  5.95044147E-01  6.27636823E-01  6.79806455E-01  6.93065911E-01
  7.33135720E-01  7.36870949E-01  7.86064560E-01  8.55390215E-01  1.06677721E+00
  1.10482586E+00  1.14134418E+00  1.44219066E+00  1.44772721E+00  1.45278326E+00
  1.53543032E+00  1.57539779E+00  1.60156432E+00  1.61365702E+00  1.76258613E+00
  1.88403664E+00  1.95395997E+00  2.00068269E+00  2.00605222E+00  2.10618825E+00
  2.12730703E+00  2.16932771E+00  2.41684265E+00  2.47196576E+00  2.54016866E+00
  2.58053802E+00  2.64798177E+00  2.66257273E+00  2.76412893E+00  2.79581172E+00
  2.89278524E+00  2.96890263E+00  3.11125002E+00  3.73004983E+00  3.82582584E+00
  4.13567364E+00  2.38765569E+01  2.38915818E+01
Beta Orbital Energies                      R   N=          68
 -1.05691030E+01 -1.05686676E+01 -8.20498953E-01 -6.81963742E-01 -5.33669340E-01
 -4.53097867E-01 -4.50734685E-01 -3.03713396E-01 -6.68706612E-03  3.38480661E-02
  3.82849349E-02  5.30450358E-02  7.86907215E-02  8.24460346E-02  9.71899622E-02
  1.22569976E-01  1.58984855E-01  1.69770056E-01  2.06097842E-01  2.15993891E-01
  2.88508253E-01  3.00192986E-01  4.22098235E-01  4.45552726E-01  5.08547835E-01
  5.77140537E-01  5.95044147E-01  6.27636823E-01  6.79806455E-01  6.93065911E-01
  7.33135720E-01  7.36870949E-01  7.86064560E-01  8.55390215E-01  1.06677721E+00
  1.10482586E+00  1.14134418E+00  1.44219066E+00  1.44772721E+00  1.45278326E+00
  1.53543032E+00  1.57539779E+00  1.60156432E+00  1.61365702E+00  1.76258613E+00
  1.88403664E+00  1.95395997E+00  2.00068269E+00  2.00605222E+00  2.10618825E+00
  2.12730703E+00  2.16932771E+00  2.41684265E+00  2.47196576E+00  2.54016866E+00
  2.58053802E+00  2.64798177E+00  2.66257273E+00  2.76412893E+00  2.79581172E+00
  2.89278524E+00  2.96890263E+00  3.11125002E+00  3.73004983E+00  3.82582584E+00
  4.13567364E+00  2.38765569E+01  2.38915818E+01
Alpha MO coefficients                      R   N=        4624
  3.98926898E-01  3.28001209E-01  4.55282868E-08 -3.25428898E-04  0.00000000E+00
  8.61431432E-03 -2.00603590E-07  1.58395704E-03  0.00000000E+00 -2.12577680E-03
  8.28332978E-08  1.55567466E-04  0.00000000E+00 -6.15101752E-04 -1.16001539E-08
 -6.23584850E-04  0.00000000E+00 -7.60874922E-04  0.00000000E+00  0.00000000E+00
  9.38095623E-04  1.14248396E-07  3.98926898E-01  3.28001209E-01 -4.55282868E-08
  3.25428898E-04  0.00000000E+00  8.61431432E-03  2.00603590E-07 -1.58395704E-03
  0.00000000E+00 -2.12577680E-03 -8.28332978E-08 -1.55567466E-04  0.00000000E+00
 -6.15101752E-04  1.16001539E-08  6.23584850E-04  0.00000000E+00 -7.60874922E-04
  0.00000000E+00  0.00000000E+00  9.38095623E-04  1.14248396E-07  1.43507734E-04
 -2.45473696E-03  1.58338266E-03 -1.30504379E-03  7.53006024E-04  0.00000000E+00
  1.43539341E-04 -2.45472912E-03  1.58333920E-03  1.30492752E-03  7.53124454E-04
  0.00000000E+00  1.43507734E-04 -2.45473696E-03  1.58338266E-03  1.30504379E-03
 -7.53006024E-04  0.00000000E+00  1.43539341E-04 -2.45472912E-03  1.58333920E-03
 -1.30492752E-03 -7.53124454E-04  0.00000000E+00  3.98961468E-01  3.28083282E-01
  2.59982433E-08  2.67453884E-04  0.00000000E+00  8.07491878E-03 -1.45363796E-07
  4.10242912E-04  0.00000000E+00 -3.79613756E-03  1.05273701E-08  9.91693967E-04
  0.00000000E+00  2.75867714E-03  3.55484920E-08 -1.34735805E-03  0.00000000E+00
 -9.82401880E-04  0.00000000E+00  0.00000000E+00  1.07285859E-04  2.89938951E-08
 -3.98961468E-01 -3.28083282E-01  2.59982433E-08  2.67453884E-04  0.00000000E+00
 -8.07491878E-03 -1.45363796E-07  4.10242912E-04  0.00000000E+00  3.79613756E-03
  1.05273701E-08  9.91693967E-04  0.00000000E+00 -2.75867714E-03  3.55484920E-08
 -1.34735805E-03  0.00000000E+00  9.82401880E-04  0.00000000E+00  0.00000000E+00
 -1.07285859E-04 -2.89938951E-08  2.16815260E-04 -1.80105847E-03  1.34880506E-03
 -1.06045707E-03  5.07528855E-04  0.00000000E+00  2.16817088E-04 -1.80093544E-03
  1.34870493E-03  1.06036188E-03  5.07575888E-04  0.00000000E+00 -2.16815260E-04
  1.80105847E-03 -1.34880506E-03 -1.06045707E-03  5.07528855E-04  0.00000000E+00
 -2.16817088E-04  1.80093544E-03 -1.34870493E-03  1.06036188E-03  5.07575888E-04
  0.00000000E+00 -8.15984198E-02 -1.31181277E-01 -1.69626483E-06 -2.32159403E-02
  0.00000000E+00  3.46039612E-01 -1.39736692E-06 -3.81558479E-02  0.00000000E+00
  2.12410240E-01  6.19958570E-07 -9.99283271E-03  0.00000000E+00  1.45761858E-03
  6.24444951E-07  6.40239406E-03  0.00000000E+00 -1.00353834E-02  0.00000000E+00
  0.00000000E+00 -4.77101008E-03  6.23516039E-07 -8.15984198E-02 -1.31181277E-01
  1.69626483E-06  2.32159403E-02  0.00000000E+00  3.46039612E-01  1.39736692E-06
  3.81558479E-02  0.00000000E+00  2.12410240E-01 -6.19958570E-07  9.99283271E-03
  0.00000000E+00  1.45761858E-03 -6.24444951E-07 -6.40239406E-03  0.00000000E+00
 -1.00353834E-02  0.00000000E+00  0.00000000E+00 -4.77101008E-03  6.23516039E-07
  6.11424938E-02  6.85162673E-02  1.25241877E-03  9.03812452E-03 -5.62053354E-03
  0.00000000E+00  6.11398192E-02  6.85133218E-02  1.25091768E-03 -9.03686592E-03
 -5.62099288E-03  0.00000000E+00  6.11424938E-02  6.85162673E-02  1.25241877E-03
 -9.03812452E-03  5.62053354E-03  0.00000000E+00  6.11398192E-02  6.85133218E-02
  1.25091768E-03  9.03686592E-03  5.62099288E-03  0.00000000E+00 -6.93880590E-02
 -1.12298260E-01 -2.61764646E-06  6.62423606E-02  0.00000000E+00  3.00798819E-01
 -3.22839908E-06  9.67597973E-02  0.00000000E+00  2.23539697E-01 -1.26297433E-06
  4.57161320E-02  0.00000000E+00 -4.87316081E-02  6.40582016E-08  1.76861059E-02
  0.00000000E+00 -5.61560863E-03  0.00000000E+00  0.00000000E+00  9.48343733E-03
  9.66784441E-07  6.93880590E-02  1.12298260E-01 -2.61764646E-06  6.62423606E-02
  0.00000000E+00 -3.00798819E-01 -3.22839908E-06  9.67597973E-02  0.00000000E+00
 -2.23539697E-01 -1.26297433E-06  4.57161320E-02  0.00000000E+00  4.87316081E-02
  6.40582016E-08  1.76861059E-02  0.00000000E+00  5.61560863E-03  0.00000000E+00
  0.00000000E+00 -9.48343733E-03 -9.66784441E-07  8.91626004E-02  1.09470871E-01
  1.53248829E-02  1.26273102E-02 -3.80394030E-03  0.00000000E+00  8.91636552E-02
  1.09473098E-01  1.53248146E-02 -1.26270170E-02 -3.80542842E-03  0.00000000E+00
 -8.91626004E-02 -1.09470871E-01 -1.53248829E-02  1.26273102E-02 -3.80394030E-03
  0.00000000E+00 -8.91636552E-02 -1.09473098E-01 -1.53248146E-02 -1.26270170E-02
 -3.80542842E-03  0.00000000E+00 -3.22858080E-07 -5.25441574E-07  1.46946489E-01
  3.72042617E-06  0.00000000E+00  1.49167018E-06  2.09491584E-01  4.15944025E-06
  0.00000000E+00  1.18973852E-06  1.25195651E-01  2.59208991E-06  0.00000000E+00
 -9.71322441E-06  5.31911388E-03  3.17692015E-06  0.00000000E+00  1.57426163E-07
  0.00000000E+00  0.00000000E+00 -1.94072294E-06  2.07648251E-03  3.22858080E-07
  5.25441574E-07  1.46946489E-01  3.72042617E-06  0.00000000E+00 -1.49167018E-06
  2.09491584E-01  4.15944025E-06  0.00000000E+00 -1.18973852E-06  1.25195651E-01
  2.59208991E-06  0.00000000E+00  9.71322441E-06  5.31911388E-03  3.17692015E-06
  0.00000000E+00 -1.57426163E-07  0.00000000E+00  0.00000000E+00  1.94072294E-06
 -2.07648251E-03 -1.01004189E-01 -1.37304010E-01 -3.59319430E-02 -9.08303224E-03
  8.30978765E-03  0.00000000E+00  1.01001715E-01  1.37303147E-01  3.59324096E-02
 -9.08248487E-03 -8.31136270E-03  0.00000000E+00  1.01004189E-01  1.37304010E-01
  3.59319430E-02 -9.08303224E-03  8.30978765E-03  0.00000000E+00 -1.01001715E-01
 -1.37303147E-01 -3.59324096E-02 -9.08248487E-03 -8.31136270E-03  0.00000000E+00
  9.35527765E-03  1.55207635E-02  4.85085328E-04  1.85059413E-01  0.00000000E+00
 -4.92283572E-02  6.83632902E-04  2.73686895E-01  0.00000000E+00 -2.31531660E-02
  4.86761376E-04  1.68883319E-01  0.00000000E+00  4.20223159E-03  5.70031647E-05
  4.76379793E-03  0.00000000E+00  8.14686325E-04  0.00000000E+00  0.00000000E+00
  1.54396223E-02  9.09367193E-05  9.35527765E-03  1.55207635E-02 -4.85085328E-04
 -1.85059413E-01  0.00000000E+00 -4.92283572E-02 -6.83632902E-04 -2.73686895E-01
  0.00000000E+00 -2.31531660E-02 -4.86761376E-04 -1.68883319E-01  0.00000000E+00
  4.20223159E-03 -5.70031647E-05 -4.76379793E-03  0.00000000E+00  8.14686325E-04
  0.00000000E+00  0.00000000E+00  1.54396223E-02  9.09367193E-05  7.00640013E-02
  1.02579642E-01  4.21040649E-02  1.01109080E-02  4.41831872E-03  0.00000000E+00
  7.08406684E-02  1.03701023E-01  4.25463783E-02 -1.01582431E-02  4.36369577E-03
  0.00000000E+00  7.00640013E-02  1.02579642E-01  4.21040649E-02 -1.01109080E-02
 -4.41831872E-03  0.00000000E+00  7.08406684E-02  1.03701023E-01  4.25463783E-02
  1.01582431E-02 -4.36369577E-03  0.00000000E+00 -3.26315246E-05 -5.41573256E-05
  1.46167366E-01 -6.18328406E-04  0.00000000E+00  1.71233040E-04  2.06366196E-01
 -9.14873893E-04  0.00000000E+00  8.67126672E-05  1.47269351E-01 -5.67036007E-04
  0.00000000E+00 -1.34520015E-05  1.67651681E-02 -1.58628857E-05  0.00000000E+00
 -2.60334242E-06  0.00000000E+00  0.00000000E+00 -5.38795189E-05  2.72347217E-02
 -3.26315246E-05 -5.41573256E-05 -1.46167366E-01  6.18328406E-04  0.00000000E+00
  1.71233040E-04 -2.06366196E-01  9.14873893E-04  0.00000000E+00  8.67126672E-05
 -1.47269351E-01  5.67036007E-04  0.00000000E+00 -1.34520015E-05 -1.67651681E-02
  1.58628857E-05  0.00000000E+00 -2.60334242E-06  0.00000000E+00  0.00000000E+00
 -5.38795189E-05  2.72347217E-02 -1.15650098E-01 -1.67042579E-01 -6.71488799E-02
 -6.85057440E-03  7.80542969E-03  0.00000000E+00  1.15176055E-01  1.66349054E-01
  6.68607864E-02 -6.78125447E-03 -7.83624782E-03  0.00000000E+00 -1.15650098E-01
 -1.67042579E-01 -6.71488799E-02  6.85057440E-03 -7.80542969E-03  0.00000000E+00
  1.15176055E-01  1.66349054E-01  6.68607864E-02  6.78125447E-03  7.83624782E-03
  0.00000000E+00  0.00000000E+00  0.00000000E+00  0.00000000E+00  0.00000000E+00
  1.72432244E-01  0.00000000E+00  0.00000000E+00  0.00000000E+00  2.76045135E-01
  0.00000000E+00  0.00000000E+00  0.00000000E+00  2.67586697E-01  0.00000000E+00
  0.00000000E+00  0.00000000E+00  3.84277843E-02  0.00000000E+00 -1.71707489E-07
 -1.76795683E-02  0.00000000E+00  0.00000000E+00  0.00000000E+00  0.00000000E+00
  0.00000000E+00  0.00000000E+00  1.72432244E-01  0.00000000E+00  0.00000000E+00
  0.00000000E+00  2.76045135E-01  0.00000000E+00  0.00000000E+00  0.00000000E+00
  2.67586697E-01  0.00000000E+00  0.00000000E+00  0.00000000E+00  3.84277843E-02
  0.00000000E+00  1.71707489E-07  1.76795683E-02  0.00000000E+00  0.00000000E+00
  0.00000000E+00  0.00000000E+00  0.00000000E+00  0.00000000E+00  0.00000000E+00
  1.31915303E-02  0.00000000E+00  0.00000000E+00  0.00000000E+00  0.00000000E+00
  0.00000000E+00  1.31915578E-02  0.00000000E+00  0.00000000E+00  0.00000000E+00
  0.00000000E+00  0.00000000E+00  1.31915303E-02  0.00000000E+00  0.00000000E+00
  0.00000000E+00  0.00000000E+00  0.00000000E+00  1.31915578E-02  0.00000000E+00
  0.00000000E+00  0.00000000E+00  0.00000000E+00  1.69632825E-01  0.00000000E+00
  0.00000000E+00  0.00000000E+00  2.65096164E-01  0.00000000E+00  0.00000000E+00
  0.00000000E+00  4.00441884E-01  0.00000000E+00  0.00000000E+00  0.00000000E+00
  5.69404068E-01  0.00000000E+00 -2.00428762E-07  2.45693730E-02  0.00000000E+00
  0.00000000E+00  0.00000000E+00  0.00000000E+00  0.00000000E+00  0.00000000E+00
 -1.69632825E-01  0.00000000E+00  0.00000000E+00  0.00000000E+00 -2.65096164E-01
  0.00000000E+00  0.00000000E+00  0.00000000E+00 -4.00441884E-01  0.00000000E+00
  0.00000000E+00  0.00000000E+00 -5.69404068E-01  0.00000000E+00 -2.00428762E-07
  2.45693730E-02  0.00000000E+00  0.00000000E+00  0.00000000E+00  0.00000000E+00
  0.00000000E+00  0.00000000E+00  0.00000000E+00  1.99118011E-02  0.00000000E+00
  0.00000000E+00  0.00000000E+00  0.00000000E+00  0.00000000E+00  1.99128203E-02
  0.00000000E+00  0.00000000E+00  0.00000000E+00  0.00000000E+00  0.00000000E+00
 -1.99118011E-02  0.00000000E+00  0.00000000E+00  0.00000000E+00  0.00000000E+00
  0.00000000E+00 -1.99128203E-02  1.90635755E-02  3.24225894E-02  6.80241696E-08
 -3.81164644E-02  0.00000000E+00 -8.90870011E-02 -2.43151862E-06 -5.76849486E-02
  0.00000000E+00 -3.29219465E-01  3.63786287E-05 -1.34293183E-01  0.00000000E+00
  1.19263727E+00  1.29804097E-04  6.04581129E-01  0.00000000E+00  1.34514799E-02
  0.00000000E+00  0.00000000E+00 -7.60009947E-03 -1.58451353E-06  1.90635755E-02
  3.24225894E-02 -6.80241696E-08  3.81164644E-02  0.00000000E+00 -8.90870011E-02
  2.43151862E-06  5.76849486E-02  0.00000000E+00 -3.29219465E-01 -3.63786287E-05
  1.34293183E-01  0.00000000E+00  1.19263727E+00 -1.29804097E-04 -6.04581129E-01
  0.00000000E+00  1.34514799E-02  0.00000000E+00  0.00000000E+00 -7.60009947E-03
 -1.58451353E-06 -2.04593733E-02  8.39103687E-02 -3.67865966E-01 -1.68113180E-03
  1.28030533E-03  0.00000000E+00 -2.04614343E-02  8.39100908E-02 -3.68001333E-01
  1.68174353E-03  1.28188062E-03  0.00000000E+00 -2.04593733E-02  8.39103687E-02
 -3.67865966E-01  1.68113180E-03 -1.28030533E-03  0.00000000E+00 -2.04614343E-02
  8.39100908E-02 -3.68001333E-01 -1.68174353E-03 -1.28188062E-03  0.00000000E+00
 -2.28513032E-02 -3.92569074E-02  3.15183376E-06  5.93946940E-03  0.00000000E+00
  1.29798726E-01  6.24609523E-06  2.82621646E-03  0.00000000E+00  8.42931541E-02
  1.14273745E-05  1.40965561E-01  0.00000000E+00  6.42946102E+00 -1.73896909E-05
 -2.85016914E+00  0.00000000E+00  2.00262819E-03  0.00000000E+00  0.00000000E+00
  1.42964899E-02  5.81370387E-07  2.28513032E-02  3.92569074E-02  3.15183376E-06
  5.93946940E-03  0.00000000E+00 -1.29798726E-01  6.24609523E-06  2.82621646E-03
  0.00000000E+00 -8.42931541E-02  1.14273745E-05  1.40965561E-01  0.00000000E+00
 -6.42946102E+00 -1.73896909E-05 -2.85016914E+00  0.00000000E+00 -2.00262819E-03
  0.00000000E+00  0.00000000E+00 -1.42964899E-02 -5.81370387E-07  8.65157436E-03
 -5.34747688E-02  1.58881602E-01  2.02228344E-03 -1.04011660E-02  0.00000000E+00
  8.65073434E-03 -5.34952629E-02  1.58912516E-01 -2.02172801E-03 -1.04022489E-02
  0.00000000E+00 -8.65157436E-03  5.34747688E-02 -1.58881602E-01  2.02228344E-03
 -1.04011660E-02  0.00000000E+00 -8.65073434E-03  5.34952629E-02 -1.58912516E-01
 -2.02172801E-03 -1.04022489E-02  0.00000000E+00 -5.70518865E-07 -1.10877599E-06
 -5.39580811E-02 -1.28948818E-06  0.00000000E+00  4.69442303E-06 -9.34759870E-02
 -1.42086419E-06  0.00000000E+00 -9.88424854E-07 -1.63956474E-01 -1.30715992E-05
  0.00000000E+00 -5.52046925E-04  8.50305242E-01  1.41660540E-04  0.00000000E+00
 -8.32540309E-07  0.00000000E+00  0.00000000E+00  3.25089147E-06 -1.02653713E-02
  5.70518865E-07  1.10877599E-06 -5.39580811E-02 -1.28948818E-06  0.00000000E+00
 -4.69442303E-06 -9.34759870E-02 -1.42086419E-06  0.00000000E+00  9.88424854E-07
 -1.63956474E-01 -1.30715992E-05  0.00000000E+00  5.52046925E-04  8.50305242E-01
  1.41660540E-04  0.00000000E+00  8.32540309E-07  0.00000000E+00  0.00000000E+00