 Entering Gaussian System, Link 0=g16
 Initial command:
 /home/szhao/Apps/g16/l1.exe "/home/szhao/tmp/Gau-130742.inp" -scrdir="/home/szhao/tmp/"
 Default is to use a total of  16 processors:
                               16 via shared-memory
                                1 via Linda
 Entering Link 1 = /home/szhao/Apps/g16/l1.exe PID=    130745.
  
 Copyright (c) 1988,1990,1992,1993,1995,1998,2003,2009,2016,
            Gaussian, Inc.  All Rights Reserved.
  
 This is part of the Gaussian(R) 16 program.  It is based on
 the Gaussian(R) 09 system (copyright 2009, Gaussian, Inc.),
 the Gaussian(R) 03 system (copyright 2003, Gaussian, Inc.),
 the Gaussian(R) 98 system (copyright 1998, Gaussian, Inc.),
 the Gaussian(R) 94 system (copyright 1995, Gaussian, Inc.),
 the Gaussian 92(TM) system (copyright 1992, Gaussian, Inc.),
 the Gaussian 90(TM) system (copyright 1990, Gaussian, Inc.),
 the Gaussian 88(TM) system (copyright 1988, Gaussian, Inc.),
 the Gaussian 86(TM) system (copyright 1986, Carnegie Mellon
 University), and the Gaussian 82(TM) system (copyright 1983,
 Carnegie Mellon University). Gaussian is a federally registered
 trademark of Gaussian, Inc.
  
 This software contains proprietary and confidential information,
 including trade secrets, belonging to Gaussian, Inc.
  
 This software is provided under written license and may be
 used, copied, transmitted, or stored only in accord with that
 written license.
  
 The following legend is applicable only to US Government
 contracts under FAR:
  
                    RESTRICTED RIGHTS LEGEND
  
 Use, reproduction and disclosure by the US Government is
 subject to restrictions as set forth in subparagraphs (a)
 and (c) of the Commercial Computer Software - Restricted
 Rights clause in FAR 52.227-19.
  
 Gaussian, Inc.
 340 Quinnipiac St., Bldg. 40, Wallingford CT 06492
  
  
 ---------------------------------------------------------------
 Warning -- This program may not be used in any manner that
 competes with the business of Gaussian, Inc. or will provide
 assistance to any competitor of Gaussian, Inc.  The licensee
 of this program is prohibited from giving any competitor of
 Gaussian, Inc. access to this program.  By using this program,
 the user acknowledges that Gaussian, Inc. is engaged in the
 business of creating and licensing software in the field of
 computational chemistry and represents and warrants to the
 licensee that it is not a competitor of Gaussian, Inc. and that
 it will not use this program in any manner prohibited above.
 ---------------------------------------------------------------
  

 Cite this work as:
 Gaussian 16, Revision A.03,
 M. J. Frisch, G. W. Trucks, H. B. Schlegel, G. E. Scuseria, 
 M. A. Robb, J. R. Cheeseman, G. Scalmani, V. Barone, 
 G. A. Petersson, H. Nakatsuji, X. Li, M. Caricato, A. V. Marenich, 
 J. Bloino, B. G. Janesko, R. Gomperts, B. Mennucci, H. P. Hratchian, 
 J. V. Ortiz, A. F. Izmaylov, J. L. Sonnenberg, D. Williams-Young, 
 F. Ding, F. Lipparini, F. Egidi, J. Goings, B. Peng, A. Petrone, 
 T. Henderson, D. Ranasinghe, V. G. Zakrzewski, J. Gao, N. Rega, 
 G. Zheng, W. Liang, M. Hada, M. Ehara, K. Toyota, R. Fukuda, 
 J. Hasegawa, M. Ishida, T. Nakajima, Y. Honda, O. Kitao, H. Nakai, 
 T. Vreven, K. Throssell, J. A. Montgomery, Jr., J. E. Peralta, 
 F. Ogliaro, M. J. Bearpark, J. J. Heyd, E. N. Brothers, K. N. Kudin, 
 V. N. Staroverov, T. A. Keith, R. Kobayashi, J. Normand, 
 K. Raghavachari, A. P. Rendell, J. C. Burant, S. S. Iyengar, 
 J. Tomasi, M. Cossi, J. M. Millam, M. Klene, C. Adamo, R. Cammi, 
 J. W. Ochterski, R. L. Martin, K. Morokuma, O. Farkas, 
 J. B. Foresman, and D. J. Fox, Gaussian, Inc., Wallingford CT, 2016.
 
 ******************************************
 Gaussian 16:  ES64L-G16RevA.03 25-Dec-2016
                21-Apr-2025 
 ******************************************
 %chk=force.chk
 %mem=4GB
 %nprocshared=8
 Will use up to    8 processors via shared memory.
 ---------------------------------------------------
 #p UM062X/6-311+G** force int=superfine pop=saveNBO
 ---------------------------------------------------
 1/10=7,30=1,38=1/1,3;
 2/12=2,17=6,18=5,40=1/2;
 3/5=4,6=6,7=111,11=2,25=1,30=1,71=1,74=-55,75=-7,116=2/1,2,3;
 4//1;
 5/5=2,38=5/2;
 6/7=2,8=2,9=2,10=2,28=1,40=1,73=1/1,7;
 7/29=1/1,2,3,16;
 1/10=7,30=1/3;
 99//99;
 Leave Link    1 at Mon Apr 21 20:01:09 2025, MaxMem=   536870912 cpu:               4.2 elap:               0.6
 (Enter /home/szhao/Apps/g16/l101.exe)
 -------------------
 Title Card Required
 -------------------
 Symbolic Z-matrix:
 Charge =  0 Multiplicity = 1
 O                    -2.09507   0.        0. 
 S                     2.09507   0.        0. 
 
 ITRead=  0  0
 MicOpt= -1 -1
 NAtoms=      2 NQM=        2 NQMF=       0 NMMI=      0 NMMIF=      0
                NMic=       0 NMicF=      0.
                    Isotopes and Nuclear Properties:
 (Nuclear quadrupole moments (NQMom) in fm**2, nuclear magnetic moments (NMagM)
  in nuclear magnetons)

  Atom         1           2
 IAtWgt=          16          32
 AtmWgt=  15.9949146  31.9720718
 NucSpn=           0           0
 AtZEff=  -0.0000000  -0.0000000
 NQMom=    0.0000000   0.0000000
 NMagM=    0.0000000   0.0000000
 AtZNuc=   8.0000000  16.0000000
 Leave Link  101 at Mon Apr 21 20:01:10 2025, MaxMem=   536870912 cpu:               1.8 elap:               0.4
 (Enter /home/szhao/Apps/g16/l103.exe)

 GradGradGradGradGradGradGradGradGradGradGradGradGradGradGradGradGradGrad
 Berny optimization.
 Initialization pass.
 Trust Radius=3.00D-01 FncErr=1.00D-07 GrdErr=1.00D-07 EigMax=2.50D+02 EigMin=1.00D-04
 Number of steps in this run=      2 maximum allowed number of steps=      2.
 GradGradGradGradGradGradGradGradGradGradGradGradGradGradGradGradGradGrad

 Leave Link  103 at Mon Apr 21 20:01:11 2025, MaxMem=   536870912 cpu:               0.4 elap:               0.1
 (Enter /home/szhao/Apps/g16/l202.exe)
                          Input orientation:                          
 ---------------------------------------------------------------------
 Center     Atomic      Atomic             Coordinates (Angstroms)
 Number     Number       Type             X           Y           Z
 ---------------------------------------------------------------------
      1          8           0       -2.095068    0.000000    0.000000
      2         16           0        2.095068    0.000000    0.000000
 ---------------------------------------------------------------------
 Stoichiometry    OS
 Framework group  C*V[C*(OS)]
 Deg. of freedom     1
 Full point group                 C*V     NOp   4
 Largest Abelian subgroup         C2V     NOp   4
 Largest concise Abelian subgroup C1      NOp   1
                         Standard orientation:                         
 ---------------------------------------------------------------------
 Center     Atomic      Atomic             Coordinates (Angstroms)
 Number     Number       Type             X           Y           Z
 ---------------------------------------------------------------------
      1          8           0        0.000000    0.000000   -2.793424
      2         16           0        0.000000    0.000000    1.396712
 ---------------------------------------------------------------------
 Rotational constants (GHZ):           0.0000000           2.6999187           2.6999187
 Leave Link  202 at Mon Apr 21 20:01:12 2025, MaxMem=   536870912 cpu:               0.4 elap:               0.3
 (Enter /home/szhao/Apps/g16/l301.exe)
 Standard basis: 6-311+G(d,p) (5D, 7F)
 Ernie: Thresh=  0.10000D-02 Tol=  0.10000D-05 Strict=F.
 There are    28 symmetry adapted cartesian basis functions of A1  symmetry.
 There are     2 symmetry adapted cartesian basis functions of A2  symmetry.
 There are    12 symmetry adapted cartesian basis functions of B1  symmetry.
 There are    12 symmetry adapted cartesian basis functions of B2  symmetry.
 There are    26 symmetry adapted basis functions of A1  symmetry.
 There are     2 symmetry adapted basis functions of A2  symmetry.
 There are    12 symmetry adapted basis functions of B1  symmetry.
 There are    12 symmetry adapted basis functions of B2  symmetry.
    52 basis functions,    86 primitive gaussians,    54 cartesian basis functions
    12 alpha electrons       12 beta electrons
       nuclear repulsion energy        16.1652707687 Hartrees.
 IExCor= 4336 DFT=T Ex+Corr=M062X ExCW=0 ScaHFX=  0.540000
 ScaDFX=  1.000000  1.000000  1.000000  1.000000 ScalE2=  1.000000  1.000000
 IRadAn=      7 IRanWt=     -1 IRanGd=            0 ICorTp=0 IEmpDi=  4
 NAtoms=    2 NActive=    2 NUniq=    2 SFac= 1.00D+00 NAtFMM=   60 NAOKFM=F Big=F
 Integral buffers will be    131072 words long.
 Raffenetti 2 integral format.
 Two-electron integral symmetry is turned on.
 Leave Link  301 at Mon Apr 21 20:01:12 2025, MaxMem=   536870912 cpu:               2.1 elap:               0.3
 (Enter /home/szhao/Apps/g16/l302.exe)
 NPDir=0 NMtPBC=     1 NCelOv=     1 NCel=       1 NClECP=     1 NCelD=      1
         NCelK=      1 NCelE2=     1 NClLst=     1 CellRange=     0.0.
 One-electron integrals computed using PRISM.
 One-electron integral symmetry used in STVInt
 NBasis=    52 RedAO= T EigKep=  3.53D-02  NBF=    26     2    12    12
 NBsUse=    52 1.00D-06 EigRej= -1.00D+00 NBFU=    26     2    12    12
 Precomputing XC quadrature grid using
 IXCGrd= 4 IRadAn=           7 IRanWt=          -1 IRanGd=           0 AccXCQ= 0.00D+00.
 Generated NRdTot=       0 NPtTot=           0 NUsed=           0 NTot=          32
 NSgBfM=    48    48    48    48    48 MxSgAt=     2 MxSgA2=     2.
 Leave Link  302 at Mon Apr 21 20:01:13 2025, MaxMem=   536870912 cpu:               1.7 elap:               0.6
 (Enter /home/szhao/Apps/g16/l303.exe)
 DipDrv:  MaxL=1.
 Leave Link  303 at Mon Apr 21 20:01:14 2025, MaxMem=   536870912 cpu:               0.9 elap:               0.3
 (Enter /home/szhao/Apps/g16/l401.exe)
 ExpMin= 4.05D-02 ExpMax= 9.34D+04 ExpMxC= 3.17D+03 IAcc=3 IRadAn=         7 AccDes= 0.00D+00
 Harris functional with IExCor= 1009 and IRadAn=       7 diagonalized for initial guess.
 HarFok:  IExCor= 1009 AccDes= 0.00D+00 IRadAn=         7 IDoV= 1 UseB2=F ITyADJ=14
 ICtDFT=  3500011 ScaDFX=  1.000000  1.000000  1.000000  1.000000
 FoFCou: FMM=F IPFlag=           0 FMFlag=      100000 FMFlg1=           0
         NFxFlg=           0 DoJE=T BraDBF=F KetDBF=T FulRan=T
         wScrn=  0.000000 ICntrl=       500 IOpCl=  0 I1Cent=   200000004 NGrid=           0
         NMat0=    1 NMatS0=      1 NMatT0=    0 NMatD0=    1 NMtDS0=    0 NMtDT0=    0
 Petite list used in FoFCou.
 Harris En= -472.925399435322    
 JPrj=0 DoOrth=F DoCkMO=F.
 Initial guess orbital symmetries:
 Alpha Orbitals:
       Occupied  (SG) (SG) (SG) (SG) (PI) (PI) (SG) (SG) (SG) (PI)
                 (PI) (PI)
       Virtual   (PI) (SG) (SG) (SG) (PI) (PI) (SG) (PI) (PI) (SG)
                 (PI) (PI) (SG) (SG) (PI) (PI) (DLTA) (DLTA) (SG)
                 (PI) (PI) (SG) (SG) (PI) (PI) (SG) (DLTA) (DLTA)
                 (PI) (PI) (SG) (PI) (PI) (SG) (SG) (PI) (PI) (SG)
                 (SG) (SG)
 Beta  Orbitals:
       Occupied  (SG) (SG) (SG) (SG) (PI) (PI) (SG) (SG) (SG) (PI)
                 (PI) (PI)
       Virtual   (PI) (SG) (SG) (SG) (PI) (PI) (SG) (PI) (PI) (SG)
                 (PI) (PI) (SG) (SG) (PI) (PI) (DLTA) (DLTA) (SG)
                 (PI) (PI) (SG) (SG) (PI) (PI) (SG) (DLTA) (DLTA)
                 (PI) (PI) (SG) (PI) (PI) (SG) (SG) (PI) (PI) (SG)
                 (SG) (SG)
 Initial guess <Sx>= 0.0000 <Sy>= 0.0000 <Sz>= 0.0000 <S**2>=-0.0000 S=-0.0000
 Leave Link  401 at Mon Apr 21 20:01:15 2025, MaxMem=   536870912 cpu:               2.0 elap:               0.5
 (Enter /home/szhao/Apps/g16/l502.exe)
 Keep R1 and R2 ints in memory in symmetry-blocked form, NReq=7997257.
 FoFCou: FMM=F IPFlag=           0 FMFlag=           0 FMFlg1=           0
         NFxFlg=           0 DoJE=F BraDBF=F KetDBF=F FulRan=T
         wScrn=  0.000000 ICntrl=       600 IOpCl=  0 I1Cent=           0 NGrid=           0
         NMat0=    1 NMatS0=   1378 NMatT0=    0 NMatD0=    1 NMtDS0=    0 NMtDT0=    0
 Petite list used in FoFCou.
 UHF open shell SCF:
 Using DIIS extrapolation, IDIIS=  1040.
 NGot=   536870912 LenX=   536333382 LenY=   536330025
 Requested convergence on RMS density matrix=1.00D-08 within 128 cycles.
 Requested convergence on MAX density matrix=1.00D-06.
 Requested convergence on             energy=1.00D-06.
 No special actions if energy rises.

 Cycle   1  Pass 1  IDiag  1:
 E= -471.507116201002    
 DIIS: error= 1.63D-01 at cycle   1 NSaved=   1.
 NSaved= 1 IEnMin= 1 EnMin= -471.507116201002     IErMin= 1 ErrMin= 1.63D-01
 ErrMax= 1.63D-01  0.00D+00 EMaxC= 1.00D-01 BMatC= 2.64D+00 BMatP= 2.64D+00
 IDIUse=3 WtCom= 0.00D+00 WtEn= 1.00D+00
 Coeff-Com:  0.100D+01
 Coeff-En:   0.100D+01
 Coeff:      0.100D+01
 Gap=    -0.064 Goal=   None    Shift=    0.000
 Gap=    -0.064 Goal=   None    Shift=    0.000
 GapD=   -0.064 DampG=0.250 DampE=0.250 DampFc=0.2500 IDamp=-1.
 Damping current iteration by 2.50D-01
 RMSDP=4.95D-02 MaxDP=9.65D-01              OVMax= 8.73D-01

 Cycle   2  Pass 1  IDiag  1:
 E= -472.020768430665     Delta-E=       -0.513652229663 Rises=F Damp=T
 DIIS: error= 2.41D-02 at cycle   2 NSaved=   2.
 NSaved= 2 IEnMin= 2 EnMin= -472.020768430665     IErMin= 2 ErrMin= 2.41D-02
 ErrMax= 2.41D-02  0.00D+00 EMaxC= 1.00D-01 BMatC= 1.07D-01 BMatP= 2.64D+00
 IDIUse=3 WtCom= 7.59D-01 WtEn= 2.41D-01
 Coeff-Com: -0.139D-01 0.101D+01
 Coeff-En:   0.320D+00 0.680D+00
 Coeff:      0.664D-01 0.934D+00
 Gap=    -0.775 Goal=   None    Shift=    0.000
 Gap=    -0.775 Goal=   None    Shift=    0.000
 RMSDP=1.26D-02 MaxDP=2.41D-01 DE=-5.14D-01 OVMax= 9.86D-01

 Cycle   3  Pass 1  IDiag  1:
 E= -472.433318900207     Delta-E=       -0.412550469542 Rises=F Damp=F
 DIIS: error= 1.00D-01 at cycle   3 NSaved=   3.
 NSaved= 3 IEnMin= 3 EnMin= -472.433318900207     IErMin= 2 ErrMin= 2.41D-02
 ErrMax= 1.00D-01  0.00D+00 EMaxC= 1.00D-01 BMatC= 1.32D+00 BMatP= 1.07D-01
 IDIUse=2 WtCom= 0.00D+00 WtEn= 1.00D+00
 Coeff-En:   0.000D+00 0.516D-01 0.948D+00
 Coeff:      0.000D+00 0.516D-01 0.948D+00
 Gap=     0.100 Goal=   None    Shift=    0.000
 Gap=     0.100 Goal=   None    Shift=    0.000
 RMSDP=4.59D-02 MaxDP=1.39D+00 DE=-4.13D-01 OVMax= 9.28D-01

 Cycle   4  Pass 1  IDiag  1:
 E= -465.577144653770     Delta-E=        6.856174246437 Rises=F Damp=F
 DIIS: error= 1.60D-01 at cycle   4 NSaved=   4.
 NSaved= 4 IEnMin= 3 EnMin= -472.433318900207     IErMin= 2 ErrMin= 2.41D-02
 ErrMax= 1.60D-01  0.00D+00 EMaxC= 1.00D-01 BMatC= 5.57D+00 BMatP= 1.07D-01
 IDIUse=2 WtCom= 0.00D+00 WtEn= 1.00D+00
 Coeff-En:   0.000D+00 0.000D+00 0.841D+00 0.159D+00
 Coeff:      0.000D+00 0.000D+00 0.841D+00 0.159D+00
 Gap=     0.044 Goal=   None    Shift=    0.000
 Gap=     0.044 Goal=   None    Shift=    0.000
 RMSDP=4.13D-02 MaxDP=1.39D+00 DE= 6.86D+00 OVMax= 9.91D-01

 Cycle   5  Pass 1  IDiag  1:
 E= -470.951877494011     Delta-E=       -5.374732840241 Rises=F Damp=F
 DIIS: error= 2.30D-01 at cycle   5 NSaved=   5.
 NSaved= 5 IEnMin= 3 EnMin= -472.433318900207     IErMin= 2 ErrMin= 2.41D-02
 ErrMax= 2.30D-01  0.00D+00 EMaxC= 1.00D-01 BMatC= 2.80D+00 BMatP= 1.07D-01
 IDIUse=2 WtCom= 0.00D+00 WtEn= 1.00D+00
 Coeff-En:   0.000D+00 0.000D+00 0.685D+00 0.000D+00 0.315D+00
 Coeff:      0.000D+00 0.000D+00 0.685D+00 0.000D+00 0.315D+00
 Gap=    -0.013 Goal=   None    Shift=    0.000
 Gap=    -0.013 Goal=   None    Shift=    0.000
 RMSDP=1.38D-02 MaxDP=3.36D-01 DE=-5.37D+00 OVMax= 8.59D-01

 Cycle   6  Pass 1  IDiag  1:
 E= -472.908895845336     Delta-E=       -1.957018351325 Rises=F Damp=F
 DIIS: error= 4.60D-02 at cycle   6 NSaved=   6.
 NSaved= 6 IEnMin= 6 EnMin= -472.908895845336     IErMin= 2 ErrMin= 2.41D-02
 ErrMax= 4.60D-02  0.00D+00 EMaxC= 1.00D-01 BMatC= 1.31D-01 BMatP= 1.07D-01
 IDIUse=2 WtCom= 0.00D+00 WtEn= 1.00D+00
 Coeff-En:   0.000D+00 0.000D+00 0.135D+00 0.000D+00 0.000D+00 0.865D+00
 Coeff:      0.000D+00 0.000D+00 0.135D+00 0.000D+00 0.000D+00 0.865D+00
 Gap=     0.075 Goal=   None    Shift=    0.000
 Gap=     0.075 Goal=   None    Shift=    0.000
 RMSDP=5.16D-03 MaxDP=7.29D-02 DE=-1.96D+00 OVMax= 3.26D-01

 Cycle   7  Pass 1  IDiag  1:
 E= -472.928552161490     Delta-E=       -0.019656316153 Rises=F Damp=F
 DIIS: error= 3.67D-02 at cycle   7 NSaved=   7.
 NSaved= 7 IEnMin= 7 EnMin= -472.928552161490     IErMin= 2 ErrMin= 2.41D-02
 ErrMax= 3.67D-02  0.00D+00 EMaxC= 1.00D-01 BMatC= 1.55D-01 BMatP= 1.07D-01
 IDIUse=2 WtCom= 0.00D+00 WtEn= 1.00D+00
 Coeff-En:   0.000D+00 0.000D+00 0.000D+00 0.000D+00 0.000D+00 0.410D+00
 Coeff-En:   0.590D+00
 Coeff:      0.000D+00 0.000D+00 0.000D+00 0.000D+00 0.000D+00 0.410D+00
 Coeff:      0.590D+00
 Gap=     0.098 Goal=   None    Shift=    0.000
 Gap=     0.098 Goal=   None    Shift=    0.000
 RMSDP=4.61D-03 MaxDP=7.59D-02 DE=-1.97D-02 OVMax= 2.95D-01

 Cycle   8  Pass 1  IDiag  1:
 E= -472.986979751693     Delta-E=       -0.058427590204 Rises=F Damp=F
 DIIS: error= 1.89D-02 at cycle   8 NSaved=   8.
 NSaved= 8 IEnMin= 8 EnMin= -472.986979751693     IErMin= 8 ErrMin= 1.89D-02
 ErrMax= 1.89D-02  0.00D+00 EMaxC= 1.00D-01 BMatC= 3.32D-02 BMatP= 1.07D-01
 IDIUse=3 WtCom= 8.11D-01 WtEn= 1.89D-01
 Coeff-Com:  0.451D-01 0.912D-02-0.181D+00-0.254D-02 0.222D-01-0.339D+00
 Coeff-Com:  0.526D+00 0.920D+00
 Coeff-En:   0.000D+00 0.000D+00 0.000D+00 0.000D+00 0.000D+00 0.000D+00
 Coeff-En:   0.610D-02 0.994D+00
 Coeff:      0.366D-01 0.740D-02-0.147D+00-0.206D-02 0.180D-01-0.275D+00
 Coeff:      0.428D+00 0.934D+00
 Gap=     0.146 Goal=   None    Shift=    0.000
 Gap=     0.146 Goal=   None    Shift=    0.000
 RMSDP=2.47D-03 MaxDP=3.59D-02 DE=-5.84D-02 OVMax= 1.35D-01

 Cycle   9  Pass 1  IDiag  1:
 E= -473.003090261065     Delta-E=       -0.016110509372 Rises=F Damp=F
 DIIS: error= 1.23D-03 at cycle   9 NSaved=   9.
 NSaved= 9 IEnMin= 9 EnMin= -473.003090261065     IErMin= 9 ErrMin= 1.23D-03
 ErrMax= 1.23D-03  0.00D+00 EMaxC= 1.00D-01 BMatC= 2.95D-04 BMatP= 3.32D-02
 IDIUse=3 WtCom= 9.88D-01 WtEn= 1.23D-02
 Coeff-Com:  0.234D-02-0.122D-01-0.301D-02 0.143D-02 0.546D-03-0.333D-01
 Coeff-Com: -0.264D-01 0.169D-01 0.105D+01
 Coeff-En:   0.000D+00 0.000D+00 0.000D+00 0.000D+00 0.000D+00 0.000D+00
 Coeff-En:   0.000D+00 0.000D+00 0.100D+01
 Coeff:      0.231D-02-0.121D-01-0.297D-02 0.141D-02 0.539D-03-0.329D-01
 Coeff:     -0.261D-01 0.167D-01 0.105D+01
 Gap=     0.147 Goal=   None    Shift=    0.000
 Gap=     0.147 Goal=   None    Shift=    0.000
 RMSDP=5.83D-04 MaxDP=8.86D-03 DE=-1.61D-02 OVMax= 3.32D-02

 Cycle  10  Pass 1  IDiag  1:
 E= -473.003570431402     Delta-E=       -0.000480170336 Rises=F Damp=F
 DIIS: error= 5.04D-04 at cycle  10 NSaved=  10.
 NSaved=10 IEnMin=10 EnMin= -473.003570431402     IErMin=10 ErrMin= 5.04D-04
 ErrMax= 5.04D-04  0.00D+00 EMaxC= 1.00D-01 BMatC= 5.14D-05 BMatP= 2.95D-04
 IDIUse=3 WtCom= 9.95D-01 WtEn= 5.04D-03
 Coeff-Com: -0.129D-03-0.202D-02 0.428D-02 0.321D-03 0.506D-04-0.123D-02
 Coeff-Com: -0.215D-01 0.112D-01 0.978D-02 0.999D+00
 Coeff-En:   0.000D+00 0.000D+00 0.000D+00 0.000D+00 0.000D+00 0.000D+00
 Coeff-En:   0.000D+00 0.000D+00 0.000D+00 0.100D+01
 Coeff:     -0.128D-03-0.201D-02 0.426D-02 0.319D-03 0.503D-04-0.122D-02
 Coeff:     -0.214D-01 0.111D-01 0.973D-02 0.999D+00
 Gap=     0.145 Goal=   None    Shift=    0.000
 Gap=     0.145 Goal=   None    Shift=    0.000
 RMSDP=1.51D-04 MaxDP=2.42D-03 DE=-4.80D-04 OVMax= 9.33D-03

 Cycle  11  Pass 1  IDiag  1:
 E= -473.003607090726     Delta-E=       -0.000036659324 Rises=F Damp=F
 DIIS: error= 2.38D-04 at cycle  11 NSaved=  11.
 NSaved=11 IEnMin=11 EnMin= -473.003607090726     IErMin=11 ErrMin= 2.38D-04
 ErrMax= 2.38D-04  0.00D+00 EMaxC= 1.00D-01 BMatC= 4.72D-06 BMatP= 5.14D-05
 IDIUse=3 WtCom= 9.98D-01 WtEn= 2.38D-03
 Coeff-Com: -0.591D-03 0.604D-03 0.285D-02 0.177D-04-0.515D-03 0.430D-02
 Coeff-Com: -0.115D-01-0.430D-02-0.543D-02 0.528D-01 0.962D+00
 Coeff-En:   0.000D+00 0.000D+00 0.000D+00 0.000D+00 0.000D+00 0.000D+00
 Coeff-En:   0.000D+00 0.000D+00 0.000D+00 0.000D+00 0.100D+01
 Coeff:     -0.590D-03 0.602D-03 0.285D-02 0.176D-04-0.514D-03 0.429D-02
 Coeff:     -0.114D-01-0.429D-02-0.542D-02 0.526D-01 0.962D+00
 Gap=     0.145 Goal=   None    Shift=    0.000
 Gap=     0.145 Goal=   None    Shift=    0.000
 RMSDP=4.56D-05 MaxDP=7.94D-04 DE=-3.67D-05 OVMax= 3.04D-03

 Cycle  12  Pass 1  IDiag  1:
 E= -473.003610679510     Delta-E=       -0.000003588785 Rises=F Damp=F
 DIIS: error= 3.12D-05 at cycle  12 NSaved=  12.
 NSaved=12 IEnMin=12 EnMin= -473.003610679510     IErMin=12 ErrMin= 3.12D-05
 ErrMax= 3.12D-05  0.00D+00 EMaxC= 1.00D-01 BMatC= 1.34D-07 BMatP= 4.72D-06
 IDIUse=1 WtCom= 1.00D+00 WtEn= 0.00D+00
 Coeff-Com:  0.120D-03-0.171D-03-0.309D-03 0.128D-04 0.673D-05-0.121D-02
 Coeff-Com: -0.583D-03 0.216D-02 0.371D-02 0.914D-02 0.862D-01 0.901D+00
 Coeff:      0.120D-03-0.171D-03-0.309D-03 0.128D-04 0.673D-05-0.121D-02
 Coeff:     -0.583D-03 0.216D-02 0.371D-02 0.914D-02 0.862D-01 0.901D+00
 Gap=     0.145 Goal=   None    Shift=    0.000
 Gap=     0.145 Goal=   None    Shift=    0.000
 RMSDP=1.06D-05 MaxDP=1.85D-04 DE=-3.59D-06 OVMax= 7.12D-04

 Cycle  13  Pass 1  IDiag  1:
 E= -473.003610916300     Delta-E=       -0.000000236790 Rises=F Damp=F
 DIIS: error= 1.13D-05 at cycle  13 NSaved=  13.
 NSaved=13 IEnMin=13 EnMin= -473.003610916300     IErMin=13 ErrMin= 1.13D-05
 ErrMax= 1.13D-05  0.00D+00 EMaxC= 1.00D-01 BMatC= 1.55D-08 BMatP= 1.34D-07
 IDIUse=1 WtCom= 1.00D+00 WtEn= 0.00D+00
 Coeff-Com:  0.680D-04-0.116D-03-0.252D-03 0.672D-06-0.824D-05-0.813D-04
 Coeff-Com:  0.688D-03 0.124D-03-0.110D-02-0.154D-01-0.352D-01-0.551D-01
 Coeff-Com:  0.111D+01
 Coeff:      0.680D-04-0.116D-03-0.252D-03 0.672D-06-0.824D-05-0.813D-04
 Coeff:      0.688D-03 0.124D-03-0.110D-02-0.154D-01-0.352D-01-0.551D-01
 Coeff:      0.111D+01
 Gap=     0.145 Goal=   None    Shift=    0.000
 Gap=     0.145 Goal=   None    Shift=    0.000
 RMSDP=7.11D-06 MaxDP=1.25D-04 DE=-2.37D-07 OVMax= 4.82D-04

 Cycle  14  Pass 1  IDiag  1:
 E= -473.003610973265     Delta-E=       -0.000000056965 Rises=F Damp=F
 DIIS: error= 6.99D-06 at cycle  14 NSaved=  14.
 NSaved=14 IEnMin=14 EnMin= -473.003610973265     IErMin=14 ErrMin= 6.99D-06
 ErrMax= 6.99D-06  0.00D+00 EMaxC= 1.00D-01 BMatC= 3.36D-09 BMatP= 1.55D-08
 IDIUse=1 WtCom= 1.00D+00 WtEn= 0.00D+00
 Coeff-Com:  0.555D-05-0.220D-04-0.150D-04 0.180D-06-0.120D-04 0.147D-03
 Coeff-Com:  0.609D-04-0.350D-03-0.598D-03-0.448D-02 0.146D-01 0.574D-02
 Coeff-Com: -0.968D-01 0.108D+01
 Coeff:      0.555D-05-0.220D-04-0.150D-04 0.180D-06-0.120D-04 0.147D-03
 Coeff:      0.609D-04-0.350D-03-0.598D-03-0.448D-02 0.146D-01 0.574D-02
 Coeff:     -0.968D-01 0.108D+01
 Gap=     0.145 Goal=   None    Shift=    0.000
 Gap=     0.145 Goal=   None    Shift=    0.000
 RMSDP=1.29D-06 MaxDP=2.14D-05 DE=-5.70D-08 OVMax= 8.21D-05

 Cycle  15  Pass 1  IDiag  1:
 E= -473.003610975807     Delta-E=       -0.000000002542 Rises=F Damp=F
 DIIS: error= 1.82D-06 at cycle  15 NSaved=  15.
 NSaved=15 IEnMin=15 EnMin= -473.003610975807     IErMin=15 ErrMin= 1.82D-06
 ErrMax= 1.82D-06  0.00D+00 EMaxC= 1.00D-01 BMatC= 2.08D-10 BMatP= 3.36D-09
 IDIUse=1 WtCom= 1.00D+00 WtEn= 0.00D+00
 Coeff-Com: -0.185D-05 0.754D-06 0.103D-04 0.444D-06-0.155D-05 0.326D-04
 Coeff-Com: -0.365D-04-0.851D-04-0.125D-03 0.509D-03 0.829D-02 0.936D-02
 Coeff-Com: -0.110D+00 0.114D+00 0.977D+00
 Coeff:     -0.185D-05 0.754D-06 0.103D-04 0.444D-06-0.155D-05 0.326D-04
 Coeff:     -0.365D-04-0.851D-04-0.125D-03 0.509D-03 0.829D-02 0.936D-02
 Coeff:     -0.110D+00 0.114D+00 0.977D+00
 Gap=     0.145 Goal=   None    Shift=    0.000
 Gap=     0.145 Goal=   None    Shift=    0.000
 RMSDP=2.84D-07 MaxDP=4.45D-06 DE=-2.54D-09 OVMax= 1.71D-05

 Cycle  16  Pass 1  IDiag  1:
 E= -473.003610975937     Delta-E=       -0.000000000130 Rises=F Damp=F
 DIIS: error= 3.38D-07 at cycle  16 NSaved=  16.
 NSaved=16 IEnMin=16 EnMin= -473.003610975937     IErMin=16 ErrMin= 3.38D-07
 ErrMax= 3.38D-07  0.00D+00 EMaxC= 1.00D-01 BMatC= 1.04D-11 BMatP= 2.08D-10
 IDIUse=1 WtCom= 1.00D+00 WtEn= 0.00D+00
 Coeff-Com: -0.963D-07 0.385D-06 0.786D-06 0.844D-07-0.134D-06 0.183D-05
 Coeff-Com: -0.440D-05 0.809D-06 0.595D-05 0.115D-04-0.123D-02-0.326D-02
 Coeff-Com:  0.125D-01-0.638D-02-0.348D-01 0.103D+01
 Coeff:     -0.963D-07 0.385D-06 0.786D-06 0.844D-07-0.134D-06 0.183D-05
 Coeff:     -0.440D-05 0.809D-06 0.595D-05 0.115D-04-0.123D-02-0.326D-02
 Coeff:      0.125D-01-0.638D-02-0.348D-01 0.103D+01
 Gap=     0.145 Goal=   None    Shift=    0.000
 Gap=     0.145 Goal=   None    Shift=    0.000
 RMSDP=7.61D-08 MaxDP=1.34D-06 DE=-1.30D-10 OVMax= 5.10D-06

 Cycle  17  Pass 1  IDiag  1:
 E= -473.003610975946     Delta-E=       -0.000000000009 Rises=F Damp=F
 DIIS: error= 5.97D-08 at cycle  17 NSaved=  17.
 NSaved=17 IEnMin=17 EnMin= -473.003610975946     IErMin=17 ErrMin= 5.97D-08
 ErrMax= 5.97D-08  0.00D+00 EMaxC= 1.00D-01 BMatC= 3.21D-13 BMatP= 1.04D-11
 IDIUse=1 WtCom= 1.00D+00 WtEn= 0.00D+00
 Coeff-Com:  0.436D-07-0.164D-07-0.117D-06-0.481D-08-0.694D-08 0.946D-07
 Coeff-Com:  0.601D-07-0.474D-06-0.436D-06 0.920D-05-0.183D-04 0.120D-03
 Coeff-Com: -0.115D-02 0.164D-02 0.364D-02-0.167D+00 0.116D+01
 Coeff:      0.436D-07-0.164D-07-0.117D-06-0.481D-08-0.694D-08 0.946D-07
 Coeff:      0.601D-07-0.474D-06-0.436D-06 0.920D-05-0.183D-04 0.120D-03
 Coeff:     -0.115D-02 0.164D-02 0.364D-02-0.167D+00 0.116D+01
 Gap=     0.145 Goal=   None    Shift=    0.000
 Gap=     0.145 Goal=   None    Shift=    0.000
 RMSDP=2.08D-08 MaxDP=3.65D-07 DE=-8.98D-12 OVMax= 1.39D-06

 Cycle  18  Pass 1  IDiag  1:
 E= -473.003610975947     Delta-E=       -0.000000000001 Rises=F Damp=F
 DIIS: error= 6.35D-09 at cycle  18 NSaved=  18.
 NSaved=18 IEnMin=18 EnMin= -473.003610975947     IErMin=18 ErrMin= 6.35D-09
 ErrMax= 6.35D-09  0.00D+00 EMaxC= 1.00D-01 BMatC= 3.91D-15 BMatP= 3.21D-13
 IDIUse=1 WtCom= 1.00D+00 WtEn= 0.00D+00
 Large coefficients: NSaved= 18 BigCof=    0.00 CofMax=   10.00 Det=-8.46D-15
 Inversion failed.  Reducing to 17 matrices.
 Large coefficients: NSaved= 17 BigCof=    0.00 CofMax=   10.00 Det=-8.70D-15
 Inversion failed.  Reducing to 16 matrices.
 Coeff-Com:  0.262D-08-0.996D-09-0.288D-08 0.921D-07-0.116D-07-0.341D-06
 Coeff-Com: -0.105D-05 0.522D-05 0.549D-04 0.818D-04-0.816D-03 0.279D-03
 Coeff-Com:  0.273D-02-0.452D-01 0.146D+00 0.897D+00
 Coeff:      0.262D-08-0.996D-09-0.288D-08 0.921D-07-0.116D-07-0.341D-06
 Coeff:     -0.105D-05 0.522D-05 0.549D-04 0.818D-04-0.816D-03 0.279D-03
 Coeff:      0.273D-02-0.452D-01 0.146D+00 0.897D+00
 Gap=     0.145 Goal=   None    Shift=    0.000
 Gap=     0.145 Goal=   None    Shift=    0.000
 RMSDP=2.41D-09 MaxDP=4.10D-08 DE=-6.82D-13 OVMax= 1.57D-07

 SCF Done:  E(UM062X) =  -473.003610976     A.U. after   18 cycles
            NFock= 18  Conv=0.24D-08     -V/T= 2.0012
 <Sx>= 0.0000 <Sy>= 0.0000 <Sz>= 0.0000 <S**2>= 0.0000 S= 0.0000
 <L.S>=  0.00000000000    
 KE= 4.724226672065D+02 PE=-1.157170713572D+03 EE= 1.955791646204D+02
 Annihilation of the first spin contaminant:
 S**2 before annihilation     0.0000,   after    -0.0000
 Leave Link  502 at Mon Apr 21 20:01:18 2025, MaxMem=   536870912 cpu:              17.0 elap:               2.4
 (Enter /home/szhao/Apps/g16/l601.exe)
 Copying SCF densities to generalized density rwf, IOpCl= 1 IROHF=0.

 **********************************************************************

            Population analysis using the SCF density.

 **********************************************************************

 Orbital symmetries:
 Alpha Orbitals:
       Occupied  (SG) (SG) (SG) (PI) (SG) (PI) (SG) (SG) (PI) (PI)
                 (SG) (PI)
       Virtual   (SG) (PI) (SG) (PI) (SG) (PI) (SG) (PI) (PI) (SG)
                 (PI) (PI) (SG) (?A) (PI) (?A) (?A) (PI) (?A) (PI)
                 (PI) (SG) (SG) (PI) (PI) (SG) (PI) (PI) (SG) (DLTA)
                 (DLTA) (SG) (PI) (PI) (SG) (PI) (PI) (SG) (SG)
                 (SG)
 Beta  Orbitals:
       Occupied  (SG) (SG) (SG) (PI) (SG) (PI) (SG) (SG) (PI) (PI)
                 (SG) (PI)
       Virtual   (SG) (PI) (SG) (PI) (SG) (PI) (SG) (PI) (PI) (SG)
                 (PI) (PI) (SG) (?A) (PI) (?A) (?A) (PI) (?A) (PI)
                 (PI) (SG) (SG) (PI) (PI) (SG) (PI) (PI) (SG) (DLTA)
                 (DLTA) (SG) (PI) (PI) (SG) (PI) (PI) (SG) (SG)
                 (SG)
 Unable to determine electronic state:  partially filled degenerate orbitals.
 Alpha  occ. eigenvalues --  -89.96867 -19.77064  -8.32924  -6.25722  -6.24127
 Alpha  occ. eigenvalues --   -6.24112  -1.06761  -0.77000  -0.45650  -0.45638
 Alpha  occ. eigenvalues --   -0.34256  -0.34179
 Alpha virt. eigenvalues --   -0.19669  -0.19407   0.03598   0.04795   0.05680
 Alpha virt. eigenvalues --    0.05689   0.14388   0.17650   0.17805   0.21664
 Alpha virt. eigenvalues --    0.33831   0.35032   0.35799   0.59077   0.77631
 Alpha virt. eigenvalues --    0.77674   0.78023   0.81662   0.81737   1.03738
 Alpha virt. eigenvalues --    1.03788   1.03926   1.27927   1.63576   1.65998
 Alpha virt. eigenvalues --    1.66532   2.78431   2.78440   2.80084   2.84638
 Alpha virt. eigenvalues --    2.84638   4.93071   4.95896   4.95907   7.69461
 Alpha virt. eigenvalues --   17.41387  17.41501  17.41967  49.71471 188.94085
  Beta  occ. eigenvalues --  -89.96867 -19.77064  -8.32924  -6.25722  -6.24127
  Beta  occ. eigenvalues --   -6.24112  -1.06761  -0.77000  -0.45650  -0.45638
  Beta  occ. eigenvalues --   -0.34256  -0.34179
  Beta virt. eigenvalues --   -0.19669  -0.19407   0.03598   0.04795   0.05680
  Beta virt. eigenvalues --    0.05689   0.14388   0.17650   0.17805   0.21664
  Beta virt. eigenvalues --    0.33831   0.35032   0.35799   0.59077   0.77631
  Beta virt. eigenvalues --    0.77674   0.78023   0.81662   0.81737   1.03738
  Beta virt. eigenvalues --    1.03788   1.03926   1.27927   1.63576   1.65998
  Beta virt. eigenvalues --    1.66532   2.78431   2.78440   2.80084   2.84638
  Beta virt. eigenvalues --    2.84638   4.93071   4.95896   4.95907   7.69461
  Beta virt. eigenvalues --   17.41387  17.41501  17.41967  49.71471 188.94085
          Condensed to atoms (all electrons):
               1          2
     1  O    8.001577   0.005292
     2  S    0.005292  15.987839
          Atomic-Atomic Spin Densities.
               1          2
     1  O    0.000000  -0.000000
     2  S   -0.000000   0.000000
 Mulliken charges and spin densities:
               1          2
     1  O   -0.006869  -0.000000
     2  S    0.006869   0.000000
 Sum of Mulliken charges =   0.00000   0.00000
 Mulliken charges and spin densities with hydrogens summed into heavy atoms:
               1          2
     1  O   -0.006869  -0.000000
     2  S    0.006869   0.000000
 Electronic spatial extent (au):  <R**2>=            375.9202
 Charge=             -0.0000 electrons
 Dipole moment (field-independent basis, Debye):
    X=              0.0000    Y=              0.0000    Z=              0.2166  Tot=              0.2166
 Quadrupole moment (field-independent basis, Debye-Ang):
   XX=            -21.1508   YY=            -15.6837   ZZ=            -19.0256
   XY=              0.0000   XZ=              0.0000   YZ=              0.0000
 Traceless Quadrupole moment (field-independent basis, Debye-Ang):
   XX=             -2.5308   YY=              2.9363   ZZ=             -0.4055
   XY=              0.0000   XZ=              0.0000   YZ=              0.0000
 Octapole moment (field-independent basis, Debye-Ang**2):
  XXX=              0.0000  YYY=              0.0000  ZZZ=            -30.3776  XYY=              0.0000
  XXY=              0.0000  XXZ=             -4.2687  XZZ=              0.0000  YZZ=              0.0000
  YYZ=              3.3739  XYZ=              0.0000
 Hexadecapole moment (field-independent basis, Debye-Ang**3):
 XXXX=            -28.7461 YYYY=            -15.2163 ZZZZ=           -381.6546 XXXY=              0.0000
 XXXZ=              0.0000 YYYX=              0.0000 YYYZ=              0.0000 ZZZX=              0.0000
 ZZZY=              0.0000 XXYY=             -7.3269 XXZZ=            -85.4769 YYZZ=            -72.5749
 XXYZ=              0.0000 YYXZ=              0.0000 ZZXY=              0.0000
 N-N= 1.616527076872D+01 E-N=-1.157170713713D+03  KE= 4.724226672065D+02
 Symmetry A1   KE= 3.880439613355D+02
 Symmetry A2   KE= 4.111976571804D-35
 Symmetry B1   KE= 4.414792364472D+01
 Symmetry B2   KE= 4.023078222625D+01
 Symmetry A1   SP= 1.258702009811D-15
 Symmetry A2   SP=-9.059169151182D-49
 Symmetry B1   SP= 3.877986742460D-15
 Symmetry B2   SP= 4.560144439558D-16
                          Isotropic Fermi Contact Couplings
        Atom                 a.u.       MegaHertz       Gauss      10(-4) cm-1
     1  O(17)              0.00000      -0.00000      -0.00000      -0.00000
     2  S(33)              0.00000       0.00000       0.00000       0.00000
 --------------------------------------------------------
       Center         ----  Spin Dipole Couplings  ----
                      3XX-RR        3YY-RR        3ZZ-RR
 --------------------------------------------------------
     1   Atom        0.000000      0.000000      0.000000
     2   Atom        0.000000      0.000000      0.000000
 --------------------------------------------------------
                        XY            XZ            YZ
 --------------------------------------------------------
     1   Atom        0.000000      0.000000      0.000000
     2   Atom        0.000000      0.000000      0.000000
 --------------------------------------------------------


 ---------------------------------------------------------------------------------
              Anisotropic Spin Dipole Couplings in Principal Axis System
 ---------------------------------------------------------------------------------

       Atom             a.u.   MegaHertz   Gauss  10(-4) cm-1        Axes

              Baa     0.0000    -0.000    -0.000    -0.000  1.0000  0.0000  0.0000
     1 O(17)  Bbb     0.0000    -0.000    -0.000    -0.000 -0.0000  1.0000  0.0000
              Bcc     0.0000    -0.000    -0.000    -0.000  0.0000  0.0000  1.0000
 
              Baa     0.0000     0.000     0.000     0.000  1.0000  0.0000  0.0000
     2 S(33)  Bbb     0.0000     0.000     0.000     0.000 -0.0000  1.0000  0.0000
              Bcc     0.0000     0.000     0.000     0.000  0.0000  0.0000  1.0000
 

 ---------------------------------------------------------------------------------

 No NMR shielding tensors so no spin-rotation constants.
 Leave Link  601 at Mon Apr 21 20:01:19 2025, MaxMem=   536870912 cpu:               2.2 elap:               0.6
 (Enter /home/szhao/Apps/g16/l607.exe)
 ******************************Gaussian NBO Version 3.1******************************
             N A T U R A L   A T O M I C   O R B I T A L   A N D
          N A T U R A L   B O N D   O R B I T A L   A N A L Y S I S
 ******************************Gaussian NBO Version 3.1******************************
       /RESON  / : Allow strongly delocalized NBO set

 Analyzing the SCF density

 Job title: Title Card Required                                             

 Storage needed:      8530 in NPA,     11006 in NBO ( 536870884 available)
 GSVD:  LWork=        -488 too small for GESVD, short by        6530 words or        6530 for optimal perf.


 NATURAL POPULATIONS:  Natural atomic orbital occupancies 
                                                          
   NAO  Atom  No  lang   Type(AO)    Occupancy
 --------------------------------------------
     1    O    1  S      Cor( 1S)     2.00000
     2    O    1  S      Val( 2S)     1.99976
     3    O    1  S      Ryd( 3S)     0.00003
     4    O    1  S      Ryd( 4S)     0.00000
     5    O    1  S      Ryd( 5S)     0.00000
     6    O    1  px     Val( 2p)     2.00000
     7    O    1  px     Ryd( 4p)     0.00000
     8    O    1  px     Ryd( 3p)     0.00000
     9    O    1  px     Ryd( 5p)     0.00000
    10    O    1  py     Val( 2p)     1.99998
    11    O    1  py     Ryd( 4p)     0.00000
    12    O    1  py     Ryd( 3p)     0.00000
    13    O    1  py     Ryd( 5p)     0.00000
    14    O    1  pz     Val( 2p)     0.00802
    15    O    1  pz     Ryd( 3p)     0.00001
    16    O    1  pz     Ryd( 4p)     0.00000
    17    O    1  pz     Ryd( 5p)     0.00000
    18    O    1  dxy    Ryd( 3d)     0.00000
    19    O    1  dxz    Ryd( 3d)     0.00000
    20    O    1  dyz    Ryd( 3d)     0.00000
    21    O    1  dx2y2  Ryd( 3d)     0.00000
    22    O    1  dz2    Ryd( 3d)     0.00021
 
    23    S    2  S      Cor( 1S)     2.00000
    24    S    2  S      Cor( 2S)     2.00000
    25    S    2  S      Val( 3S)     1.99915
    26    S    2  S      Ryd( 4S)     0.00004
    27    S    2  S      Ryd( 5S)     0.00000
    28    S    2  S      Ryd( 6S)     0.00000
    29    S    2  S      Ryd( 7S)     0.00000
    30    S    2  px     Cor( 2p)     2.00000
    31    S    2  px     Val( 3p)     1.99999
    32    S    2  px     Ryd( 4p)     0.00001
    33    S    2  px     Ryd( 5p)     0.00000
    34    S    2  px     Ryd( 6p)     0.00000
    35    S    2  px     Ryd( 7p)     0.00000
    36    S    2  py     Cor( 2p)     1.99999
    37    S    2  py     Val( 3p)     0.00002
    38    S    2  py     Ryd( 5p)     0.00000
    39    S    2  py     Ryd( 4p)     0.00001
    40    S    2  py     Ryd( 6p)     0.00000
    41    S    2  py     Ryd( 7p)     0.00000
    42    S    2  pz     Cor( 2p)     2.00000
    43    S    2  pz     Val( 3p)     1.99197
    44    S    2  pz     Ryd( 4p)     0.00002
    45    S    2  pz     Ryd( 5p)     0.00000
    46    S    2  pz     Ryd( 6p)     0.00000
    47    S    2  pz     Ryd( 7p)     0.00000
    48    S    2  dxy    Ryd( 3d)     0.00000
    49    S    2  dxz    Ryd( 3d)     0.00000
    50    S    2  dyz    Ryd( 3d)     0.00000
    51    S    2  dx2y2  Ryd( 3d)     0.00060
    52    S    2  dz2    Ryd( 3d)     0.00019


 Summary of Natural Population Analysis:                  
                                                          
                                       Natural Population 
                Natural  -----------------------------------------------
    Atom  No    Charge         Core      Valence    Rydberg      Total
 -----------------------------------------------------------------------
      O    1   -0.00802      2.00000     6.00776    0.00026     8.00802
      S    2    0.00802      9.99998     5.99113    0.00088    15.99198
 =======================================================================
   * Total *    0.00000     11.99998    11.99889    0.00113    24.00000

                                 Natural Population      
 --------------------------------------------------------
   Core                      11.99998 ( 99.9998% of  12)
   Valence                   11.99889 ( 99.9907% of  12)
   Natural Minimal Basis     23.99887 ( 99.9953% of  24)
   Natural Rydberg Basis      0.00113 (  0.0047% of  24)
 --------------------------------------------------------

    Atom  No          Natural Electron Configuration
 ----------------------------------------------------------------------------
      O    1      [core]2S( 2.00)2p( 4.01)
      S    2      [core]3S( 2.00)3p( 3.99)


 ***************************************************
 *******         Alpha spin orbitals         *******
 ***************************************************


 NATURAL POPULATIONS:  Natural atomic orbital occupancies 
                                                          
   NAO  Atom  No  lang   Type(AO)    Occupancy      Energy
 ----------------------------------------------------------
     1    O    1  S      Cor( 1S)     1.00000     -19.76974
     2    O    1  S      Val( 2S)     0.99988      -1.06808
     3    O    1  S      Ryd( 3S)     0.00001       0.16262
     4    O    1  S      Ryd( 4S)     0.00000       2.01840
     5    O    1  S      Ryd( 5S)     0.00000      48.95031
     6    O    1  px     Val( 2p)     1.00000      -0.45638
     7    O    1  px     Ryd( 4p)     0.00000       0.99682
     8    O    1  px     Ryd( 3p)     0.00000       0.39942
     9    O    1  px     Ryd( 5p)     0.00000       4.77495
    10    O    1  py     Val( 2p)     0.99999      -0.45650
    11    O    1  py     Ryd( 4p)     0.00000       0.99653
    12    O    1  py     Ryd( 3p)     0.00000       0.39810
    13    O    1  py     Ryd( 5p)     0.00000       4.77481
    14    O    1  pz     Val( 2p)     0.00401      -0.19222
    15    O    1  pz     Ryd( 4p)     0.00000       0.98364
    16    O    1  pz     Ryd( 3p)     0.00000       0.45549
    17    O    1  pz     Ryd( 5p)     0.00000       4.71584
    18    O    1  dxy    Ryd( 3d)     0.00000       2.84638
    19    O    1  dxz    Ryd( 3d)     0.00000       2.78437
    20    O    1  dyz    Ryd( 3d)     0.00000       2.78428
    21    O    1  dx2y2  Ryd( 3d)     0.00000       2.84638
    22    O    1  dz2    Ryd( 3d)     0.00011       2.79975
 
    23    S    2  S      Cor( 1S)     1.00000     -89.76101
    24    S    2  S      Cor( 2S)     1.00000      -8.51243
    25    S    2  S      Val( 3S)     0.99958      -0.79383
    26    S    2  S      Ryd( 4S)     0.00002       0.06248
    27    S    2  S      Ryd( 5S)     0.00000       4.13617
    28    S    2  S      Ryd( 6S)     0.00000      13.59932
    29    S    2  S      Ryd( 7S)     0.00000     179.47897
    30    S    2  px     Cor( 2p)     1.00000      -6.24105
    31    S    2  px     Val( 3p)     0.99999      -0.34185
    32    S    2  px     Ryd( 4p)     0.00000       0.15509
    33    S    2  px     Ryd( 6p)     0.00000       2.51496
    34    S    2  px     Ryd( 5p)     0.00000       1.88232
    35    S    2  px     Ryd( 7p)     0.00000      14.93358
    36    S    2  py     Cor( 2p)     0.99999      -6.25716
    37    S    2  py     Val( 3p)     0.00001      -0.19273
    38    S    2  py     Ryd( 4p)     0.00000       0.14209
    39    S    2  py     Ryd( 6p)     0.00001       2.49987
    40    S    2  py     Ryd( 5p)     0.00000       1.86815
    41    S    2  py     Ryd( 7p)     0.00000      14.92776
    42    S    2  pz     Cor( 2p)     1.00000      -6.24120
    43    S    2  pz     Val( 3p)     0.99598      -0.34203
    44    S    2  pz     Ryd( 4p)     0.00001       0.17630
    45    S    2  pz     Ryd( 6p)     0.00000       2.51582
    46    S    2  pz     Ryd( 5p)     0.00000       1.87907
    47    S    2  pz     Ryd( 7p)     0.00000      14.94762
    48    S    2  dxy    Ryd( 3d)     0.00000       0.77674
    49    S    2  dxz    Ryd( 3d)     0.00000       0.81670
    50    S    2  dyz    Ryd( 3d)     0.00000       0.77635
    51    S    2  dx2y2  Ryd( 3d)     0.00030       0.78829
    52    S    2  dz2    Ryd( 3d)     0.00009       0.80865

 WARNING:  Population inversion found on atom  O    1
           Population inversion found on atom  S    2


 Summary of Natural Population Analysis:                  
                                                          
                                       Natural Population 
                Natural  -----------------------------------------------
    Atom  No    Charge         Core      Valence    Rydberg      Total
 -----------------------------------------------------------------------
      O    1   -0.00401      1.00000     3.00388    0.00013     4.00401
      S    2    0.00401      4.99999     2.99556    0.00044     7.99599
 =======================================================================
   * Total *    0.00000      5.99999     5.99944    0.00057    12.00000

                                 Natural Population      
 --------------------------------------------------------
   Core                       5.99999 ( 99.9998% of   6)
   Valence                    5.99944 ( 99.9907% of   6)
   Natural Minimal Basis     11.99943 ( 99.9953% of  12)
   Natural Rydberg Basis      0.00057 (  0.0047% of  12)
 --------------------------------------------------------

    Atom  No          Natural Electron Configuration
 ----------------------------------------------------------------------------
      O    1      [core]2S( 1.00)2p( 2.00)
      S    2      [core]3S( 1.00)3p( 2.00)


 NATURAL BOND ORBITAL ANALYSIS, alpha spin orbitals:

                       Occupancies       Lewis Structure    Low   High
           Occ.    -------------------  -----------------   occ   occ
  Cycle   Thresh.   Lewis   Non-Lewis     CR  BD  3C  LP    (L)   (NL)   Dev
 =============================================================================
   1(1)    0.90    11.99594   0.00406      6   0   0   6     0      0    0.00
 -----------------------------------------------------------------------------

 Structure accepted: No low occupancy Lewis orbitals

 --------------------------------------------------------
   Core                      5.99999 (100.000% of   6)
   Valence Lewis             5.99595 ( 99.932% of   6)
  ==================       ============================
   Total Lewis              11.99594 ( 99.966% of  12)
  -----------------------------------------------------
   Valence non-Lewis         0.00403 (  0.034% of  12)
   Rydberg non-Lewis         0.00004 (  0.000% of  12)
  ==================       ============================
   Total non-Lewis           0.00406 (  0.034% of  12)
 --------------------------------------------------------


       (Occupancy)   Bond orbital/ Coefficients/ Hybrids
 ---------------------------------------------------------------------------------
     1. (1.00000) CR ( 1) O   1           s(100.00%)
                                            1.0000 -0.0000  0.0000  0.0000 -0.0000
                                            0.0000  0.0000  0.0000  0.0000  0.0000
                                            0.0000  0.0000  0.0000  0.0000  0.0000
                                            0.0000  0.0000  0.0000  0.0000  0.0000
                                            0.0000 -0.0000
     2. (1.00000) CR ( 1) S   2           s(100.00%)
                                            1.0000  0.0000  0.0000  0.0000  0.0000
                                           -0.0000 -0.0000  0.0000  0.0000  0.0000
                                            0.0000  0.0000  0.0000  0.0000  0.0000
                                            0.0000  0.0000  0.0000  0.0000  0.0000
                                           -0.0000 -0.0000  0.0000  0.0000 -0.0000
                                            0.0000  0.0000  0.0000 -0.0000  0.0000
     3. (1.00000) CR ( 2) S   2           s(100.00%)
                                            0.0000  1.0000 -0.0000 -0.0000 -0.0000
                                            0.0000  0.0000  0.0000  0.0000  0.0000
                                            0.0000  0.0000  0.0000  0.0000  0.0000
                                            0.0000  0.0000  0.0000  0.0000 -0.0000
                                            0.0000  0.0000 -0.0000 -0.0000  0.0000
                                            0.0000  0.0000  0.0000  0.0000  0.0000
     4. (1.00000) CR ( 3) S   2           s(  0.00%)p 1.00(100.00%)
                                            0.0000  0.0000  0.0000  0.0000  0.0000
                                            0.0000  0.0000  1.0000  0.0000 -0.0000
                                            0.0000  0.0000 -0.0000  0.0000  0.0000
                                            0.0000  0.0000  0.0000  0.0000  0.0000
                                            0.0000  0.0000  0.0000  0.0000  0.0000
                                            0.0000 -0.0000  0.0000  0.0000  0.0000
     5. (0.99999) CR ( 4) S   2           s(  0.00%)p 1.00(100.00%)
                                            0.0000  0.0000  0.0000  0.0000  0.0000
                                            0.0000  0.0000  0.0000  0.0000  0.0000
                                            0.0000  0.0000  0.0000  1.0000  0.0000
                                            0.0000  0.0000  0.0000  0.0000  0.0000
                                            0.0000  0.0000  0.0000  0.0000  0.0000
                                            0.0000  0.0000  0.0000  0.0000  0.0000
     6. (1.00000) CR ( 5) S   2           s(  0.00%)p 1.00(100.00%)
                                            0.0000 -0.0000 -0.0000 -0.0000 -0.0000
                                            0.0000  0.0000  0.0000  0.0000  0.0000
                                            0.0000  0.0000  0.0000  0.0000  0.0000
                                            0.0000  0.0000  0.0000  0.0000  1.0000
                                            0.0000  0.0000 -0.0000 -0.0000  0.0000
                                            0.0000  0.0000  0.0000  0.0000 -0.0000
     7. (1.00000) LP ( 1) O   1           s(  0.00%)p 1.00(100.00%)
                                            0.0000  0.0000  0.0000  0.0000  0.0000
                                            1.0000 -0.0002 -0.0002 -0.0000  0.0000
                                            0.0000  0.0000  0.0000  0.0000  0.0000
                                            0.0000  0.0000  0.0000 -0.0001  0.0000
                                            0.0000  0.0000
     8. (0.99999) LP ( 2) O   1           s( 99.99%)p 0.00(  0.00%)d 0.00(  0.01%)
                                            0.0000  0.9999 -0.0000 -0.0000  0.0000
                                            0.0000  0.0000  0.0000  0.0000  0.0000
                                            0.0000  0.0000  0.0000 -0.0015 -0.0005
                                           -0.0010 -0.0002  0.0000  0.0000  0.0000
                                           -0.0000  0.0103
     9. (0.99999) LP ( 3) O   1           s(  0.00%)p 1.00(100.00%)
                                            0.0000  0.0000  0.0000  0.0000  0.0000
                                            0.0000  0.0000  0.0000  0.0000  1.0000
                                            0.0001  0.0002  0.0000  0.0000  0.0000
                                            0.0000  0.0000  0.0000  0.0000 -0.0001
                                            0.0000  0.0000
    10. (0.00402) LP*( 4) O   1           s(  0.28%)p99.99( 99.72%)d 0.01(  0.00%)
                                           -0.0000  0.0014  0.0527  0.0010 -0.0001
                                            0.0000  0.0000  0.0000  0.0000  0.0000
                                            0.0000  0.0000  0.0000  0.9983  0.0236
                                            0.0046 -0.0054  0.0000  0.0000  0.0000
                                           -0.0000  0.0053
    11. (1.00000) LP ( 1) S   2           s(  0.00%)p 1.00(100.00%)d 0.00(  0.00%)
                                            0.0000  0.0000  0.0000  0.0000  0.0000
                                            0.0000  0.0000 -0.0000  1.0000 -0.0015
                                            0.0004  0.0007 -0.0000  0.0000  0.0000
                                            0.0000  0.0000  0.0000  0.0000  0.0000
                                            0.0000  0.0000  0.0000  0.0000  0.0000
                                            0.0000 -0.0005  0.0000  0.0000  0.0000
    12. (1.00000) LP ( 2) S   2           s( 99.32%)p 0.01(  0.64%)d 0.00(  0.04%)
                                            0.0000  0.0000  0.9966 -0.0003 -0.0000
                                            0.0000  0.0000  0.0000  0.0000  0.0000
                                            0.0000  0.0000  0.0000  0.0000  0.0000
                                            0.0000  0.0000  0.0000  0.0000  0.0000
                                            0.0800  0.0007  0.0003  0.0004 -0.0001
                                            0.0000  0.0000  0.0000 -0.0173 -0.0096
    13. (0.99598) LP ( 3) S   2           s(  0.64%)p99.99( 99.36%)d 0.00(  0.00%)
                                           -0.0000  0.0000  0.0800  0.0040  0.0001
                                           -0.0000 -0.0000 -0.0000 -0.0000 -0.0000
                                           -0.0000 -0.0000 -0.0000 -0.0000 -0.0000
                                           -0.0000 -0.0000 -0.0000 -0.0000  0.0000
                                           -0.9968 -0.0015  0.0004  0.0008 -0.0000
                                           -0.0000 -0.0000 -0.0000 -0.0013  0.0001
    14. (0.00000) LP*( 4) S   2           s(100.00%)p 0.00(  0.00%)
    15. (0.00000) RY*( 1) O   1           s(100.00%)p 0.00(  0.00%)
    16. (0.00000) RY*( 2) O   1           s(100.00%)
    17. (0.00000) RY*( 3) O   1           s(  0.00%)p 1.00(100.00%)
    18. (0.00000) RY*( 4) O   1           s(  0.00%)p 1.00(100.00%)
    19. (0.00000) RY*( 5) O   1           s(  0.00%)p 1.00(100.00%)
    20. (0.00000) RY*( 6) O   1           s(  0.00%)p 1.00(100.00%)
    21. (0.00000) RY*( 7) O   1           s(  0.00%)p 1.00(100.00%)
    22. (0.00000) RY*( 8) O   1           s(  0.00%)p 1.00(100.00%)
    23. (0.00000) RY*( 9) O   1           s( 99.72%)p 0.00(  0.28%)
    24. (0.00000) RY*(10) O   1           s(  0.00%)p 1.00(100.00%)
    25. (0.00000) RY*(11) O   1           s(  0.00%)p 1.00(100.00%)
    26. (0.00000) RY*(12) O   1           s(  0.00%)p 1.00(100.00%)
    27. (0.00000) RY*(13) O   1           s(  0.00%)p 0.00(  0.00%)d 1.00(100.00%)
    28. (0.00000) RY*(14) O   1           s(  0.00%)p 0.00(  0.00%)d 1.00(100.00%)
    29. (0.00000) RY*(15) O   1           s(  0.00%)p 0.00(  0.00%)d 1.00(100.00%)
    30. (0.00000) RY*(16) O   1           s(  0.00%)p 0.00(  0.00%)d 1.00(100.00%)
    31. (0.00000) RY*(17) O   1           s(  0.01%)p 0.26(  0.00%)d99.99( 99.99%)
    32. (0.00001) RY*( 1) S   2           s(  0.00%)p 1.00( 99.82%)d 0.00(  0.18%)
    33. (0.00000) RY*( 2) S   2           s(100.00%)
    34. (0.00000) RY*( 3) S   2           s(100.00%)
    35. (0.00000) RY*( 4) S   2           s(  0.00%)p 1.00(100.00%)
    36. (0.00000) RY*( 5) S   2           s(  0.00%)p 1.00(100.00%)
    37. (0.00000) RY*( 6) S   2           s(  0.00%)p 1.00(100.00%)
    38. (0.00000) RY*( 7) S   2           s(  0.00%)p 1.00(100.00%)
    39. (0.00000) RY*( 8) S   2           s(100.00%)p 0.00(  0.00%)
    40. (0.00000) RY*( 9) S   2           s(  0.00%)p 1.00(100.00%)
    41. (0.00001) RY*(10) S   2           s(  0.00%)p 1.00(100.00%)
    42. (0.00000) RY*(11) S   2           s(  0.00%)p 1.00(100.00%)d 0.00(  0.00%)
    43. (0.00000) RY*(12) S   2           s(  0.00%)p 1.00(100.00%)d 0.00(  0.00%)
    44. (0.00001) RY*(13) S   2           s(  0.00%)p 1.00(100.00%)
    45. (0.00000) RY*(14) S   2           s(  0.00%)p 1.00(100.00%)
    46. (0.00000) RY*(15) S   2           s(  0.00%)p 1.00(100.00%)
    47. (0.00000) RY*(16) S   2           s(  0.00%)p 1.00(100.00%)
    48. (0.00000) RY*(17) S   2           s(  0.00%)p 0.00(  0.00%)d 1.00(100.00%)
    49. (0.00000) RY*(18) S   2           s(  0.00%)p 0.00(  0.00%)d 1.00(100.00%)
    50. (0.00000) RY*(19) S   2           s(  0.00%)p 1.00(  0.18%)d99.99( 99.82%)
    51. (0.00000) RY*(20) S   2           s(  0.03%)p 0.00(  0.00%)d99.99( 99.97%)
    52. (0.00000) RY*(21) S   2           s(  0.01%)p 0.00(  0.00%)d 1.00( 99.99%)


 NHO Directionality and "Bond Bending" (deviations from line of nuclear centers)

         [Thresholds for printing:  angular deviation  >  1.0 degree]
                                    hybrid p-character > 25.0%
                                    orbital occupancy  >  0.10e

                                Line of Centers        Hybrid 1              Hybrid 2
                                ---------------  -------------------   ------------------
                NBO               Theta   Phi    Theta   Phi    Dev    Theta   Phi    Dev
 ========================================================================================
     7. LP (   1) O   1             --     --     90.0    0.0   --       --     --    --
     9. LP (   3) O   1             --     --     90.0   90.0   --       --     --    --
    11. LP (   1) S   2             --     --     90.0    0.0   --       --     --    --
    13. LP (   3) S   2             --     --    180.0    0.0   --       --     --    --


 Second Order Perturbation Theory Analysis of Fock Matrix in NBO Basis

     Threshold for printing:   0.25 kcal/mol
    (Intermolecular threshold: 0.03 kcal/mol)
                                                                              E(2)  E(j)-E(i) F(i,j)
         Donor NBO (i)                     Acceptor NBO (j)                 kcal/mol   a.u.    a.u. 
 ===================================================================================================

 within unit  1
       None above threshold

 from unit  1 to unit  2
       None above threshold

 from unit  2 to unit  1
  13. LP (   3) S   2                / 10. LP*(   4) O   1                    0.39    0.15    0.010

 within unit  2
       None above threshold


 Natural Bond Orbitals (Summary):

                                                            Principal Delocalizations
           NBO                        Occupancy    Energy   (geminal,vicinal,remote)
 ====================================================================================
 Molecular unit  1  (O)
     1. CR (   1) O   1                  1.00000   -19.76974   
     7. LP (   1) O   1                  1.00000    -0.45638   
     8. LP (   2) O   1                  0.99999    -1.06849   
     9. LP (   3) O   1                  0.99999    -0.45650   
    10. LP*(   4) O   1                  0.00402    -0.19346   
    15. RY*(   1) O   1                  0.00000     2.01840   
    16. RY*(   2) O   1                  0.00000    48.95031   
    17. RY*(   3) O   1                  0.00000     0.99682   
    18. RY*(   4) O   1                  0.00000     0.39942   
    19. RY*(   5) O   1                  0.00000     4.77495   
    20. RY*(   6) O   1                  0.00000     0.99653   
    21. RY*(   7) O   1                  0.00000     0.39810   
    22. RY*(   8) O   1                  0.00000     4.77481   
    23. RY*(   9) O   1                  0.00000     0.16147   
    24. RY*(  10) O   1                  0.00000     0.98592   
    25. RY*(  11) O   1                  0.00000     0.45567   
    26. RY*(  12) O   1                  0.00000     4.71589   
    27. RY*(  13) O   1                  0.00000     2.84638   
    28. RY*(  14) O   1                  0.00000     2.78437   
    29. RY*(  15) O   1                  0.00000     2.78428   
    30. RY*(  16) O   1                  0.00000     2.84638   
    31. RY*(  17) O   1                  0.00000     2.80006   
       -------------------------------
              Total Lewis    3.99998  ( 99.8994%)
        Valence non-Lewis    0.00402  (  0.1005%)
        Rydberg non-Lewis    0.00000  (  0.0001%)
       -------------------------------
            Total unit  1    4.00401  (100.0000%)
           Charge unit  1   -0.00401
 
 Molecular unit  2  (S)
     2. CR (   1) S   2                  1.00000   -89.76101   
     3. CR (   2) S   2                  1.00000    -8.51243   
     4. CR (   3) S   2                  1.00000    -6.24105   
     5. CR (   4) S   2                  0.99999    -6.25716   
     6. CR (   5) S   2                  1.00000    -6.24120   
    11. LP (   1) S   2                  1.00000    -0.34186   
    12. LP (   2) S   2                  1.00000    -0.79144   
    13. LP (   3) S   2                  0.99598    -0.34504  10(r)
    14. LP*(   4) S   2                  0.00000     0.06248   
    32. RY*(   1) S   2                  0.00001    -0.19010   
    33. RY*(   2) S   2                  0.00000    13.59932   
    34. RY*(   3) S   2                  0.00000   179.47897   
    35. RY*(   4) S   2                  0.00000     0.15509   
    36. RY*(   5) S   2                  0.00000     2.51496   
    37. RY*(   6) S   2                  0.00000     1.88232   
    38. RY*(   7) S   2                  0.00000    14.93358   
    39. RY*(   8) S   2                  0.00000     4.13617   
    40. RY*(   9) S   2                  0.00000     0.14209   
    41. RY*(  10) S   2                  0.00001     2.49987   
    42. RY*(  11) S   2                  0.00000     1.86586   
    43. RY*(  12) S   2                  0.00000    14.92913   
    44. RY*(  13) S   2                  0.00001     0.17630   
    45. RY*(  14) S   2                  0.00000     2.51582   
    46. RY*(  15) S   2                  0.00000     1.87907   
    47. RY*(  16) S   2                  0.00000    14.94762   
    48. RY*(  17) S   2                  0.00000     0.77674   
    49. RY*(  18) S   2                  0.00000     0.81670   
    50. RY*(  19) S   2                  0.00000     0.77464   
    51. RY*(  20) S   2                  0.00000     0.78877   
    52. RY*(  21) S   2                  0.00000     0.80879   
       -------------------------------
              Total Lewis    7.99596  ( 99.9996%)
        Valence non-Lewis    0.00000  (  0.0000%)
        Rydberg non-Lewis    0.00003  (  0.0003%)
       -------------------------------
            Total unit  2    7.99599  (100.0000%)
           Charge unit  2    0.00401
 Sorting of NBOs:                    2    1    3    5    6    4    8   12    9    7
 Sorting of NBOs:                   13   11   10   32   14   40   35   23   44   21
 Sorting of NBOs:                   18   25   50   48   51   52   49   24   20   17
 Sorting of NBOs:                   42   46   37   15   41   36   45   29   28   31
 Sorting of NBOs:                   27   30   39   26   22   19   33   43   38   47
 Sorting of NBOs:                   16   34
 Reordering of NBOs for storage:     2    1    3    5    6    4    8   12    9    7
 Reordering of NBOs for storage:    13   11   10   14   32   40   35   23   44   21
 Reordering of NBOs for storage:    18   25   50   48   51   52   49   24   20   17
 Reordering of NBOs for storage:    42   46   37   15   41   36   45   29   28   31
 Reordering of NBOs for storage:    27   30   39   26   22   19   33   43   38   47
 Reordering of NBOs for storage:    16   34
 Labels of output orbitals:  CR  CR  CR  CR  CR  CR  LP  LP  LP  LP  LP  LP  LP* LP* RY* RY* RY* RY* RY* RY* 
 Labels of output orbitals:  RY* RY* RY* RY* RY* RY* RY* RY* RY* RY* RY* RY* RY* RY* RY* RY* RY* RY* RY* RY* 
 Labels of output orbitals:  RY* RY* RY* RY* RY* RY* RY* RY* RY* RY* RY* RY* 
 GSVD:  LWork=       -1920 too small for GESVD, short by        8600 words or        8600 for optimal perf.


 ***************************************************
 *******         Beta  spin orbitals         *******
 ***************************************************


 NATURAL POPULATIONS:  Natural atomic orbital occupancies 
                                                          
   NAO  Atom  No  lang   Type(AO)    Occupancy      Energy
 ----------------------------------------------------------
     1    O    1  S      Cor( 1S)     1.00000     -19.76974
     2    O    1  S      Val( 2S)     0.99988      -1.06808
     3    O    1  S      Ryd( 3S)     0.00001       0.16262
     4    O    1  S      Ryd( 4S)     0.00000       2.01840
     5    O    1  S      Ryd( 5S)     0.00000      48.95031
     6    O    1  px     Val( 2p)     1.00000      -0.45638
     7    O    1  px     Ryd( 4p)     0.00000       0.99682
     8    O    1  px     Ryd( 3p)     0.00000       0.39942
     9    O    1  px     Ryd( 5p)     0.00000       4.77495
    10    O    1  py     Val( 2p)     0.99999      -0.45650
    11    O    1  py     Ryd( 4p)     0.00000       0.99653
    12    O    1  py     Ryd( 3p)     0.00000       0.39810
    13    O    1  py     Ryd( 5p)     0.00000       4.77481
    14    O    1  pz     Val( 2p)     0.00401      -0.19222
    15    O    1  pz     Ryd( 4p)     0.00000       0.98364
    16    O    1  pz     Ryd( 3p)     0.00000       0.45549
    17    O    1  pz     Ryd( 5p)     0.00000       4.71584
    18    O    1  dxy    Ryd( 3d)     0.00000       2.84638
    19    O    1  dxz    Ryd( 3d)     0.00000       2.78437
    20    O    1  dyz    Ryd( 3d)     0.00000       2.78428
    21    O    1  dx2y2  Ryd( 3d)     0.00000       2.84638
    22    O    1  dz2    Ryd( 3d)     0.00011       2.79975
 
    23    S    2  S      Cor( 1S)     1.00000     -89.76101
    24    S    2  S      Cor( 2S)     1.00000      -8.51243
    25    S    2  S      Val( 3S)     0.99958      -0.79383
    26    S    2  S      Ryd( 4S)     0.00002       0.06248
    27    S    2  S      Ryd( 5S)     0.00000       4.13617
    28    S    2  S      Ryd( 6S)     0.00000      13.59932
    29    S    2  S      Ryd( 7S)     0.00000     179.47897
    30    S    2  px     Cor( 2p)     1.00000      -6.24105
    31    S    2  px     Val( 3p)     0.99999      -0.34185
    32    S    2  px     Ryd( 4p)     0.00000       0.15509
    33    S    2  px     Ryd( 6p)     0.00000       2.51496
    34    S    2  px     Ryd( 5p)     0.00000       1.88232
    35    S    2  px     Ryd( 7p)     0.00000      14.93358
    36    S    2  py     Cor( 2p)     0.99999      -6.25716
    37    S    2  py     Val( 3p)     0.00001      -0.19273
    38    S    2  py     Ryd( 4p)     0.00000       0.14209
    39    S    2  py     Ryd( 6p)     0.00001       2.49987
    40    S    2  py     Ryd( 5p)     0.00000       1.86815
    41    S    2  py     Ryd( 7p)     0.00000      14.92776
    42    S    2  pz     Cor( 2p)     1.00000      -6.24120
    43    S    2  pz     Val( 3p)     0.99598      -0.34203
    44    S    2  pz     Ryd( 4p)     0.00001       0.17630
    45    S    2  pz     Ryd( 6p)     0.00000       2.51582
    46    S    2  pz     Ryd( 5p)     0.00000       1.87907
    47    S    2  pz     Ryd( 7p)     0.00000      14.94762
    48    S    2  dxy    Ryd( 3d)     0.00000       0.77674
    49    S    2  dxz    Ryd( 3d)     0.00000       0.81670
    50    S    2  dyz    Ryd( 3d)     0.00000       0.77635
    51    S    2  dx2y2  Ryd( 3d)     0.00030       0.78829
    52    S    2  dz2    Ryd( 3d)     0.00009       0.80865

 WARNING:  Population inversion found on atom  O    1
           Population inversion found on atom  S    2


 Summary of Natural Population Analysis:                  
                                                          
                                       Natural Population 
                Natural  -----------------------------------------------
    Atom  No    Charge         Core      Valence    Rydberg      Total
 -----------------------------------------------------------------------
      O    1   -0.00401      1.00000     3.00388    0.00013     4.00401
      S    2    0.00401      4.99999     2.99556    0.00044     7.99599
 =======================================================================
   * Total *    0.00000      5.99999     5.99944    0.00057    12.00000

                                 Natural Population      
 --------------------------------------------------------
   Core                       5.99999 ( 99.9998% of   6)
   Valence                    5.99944 ( 99.9907% of   6)
   Natural Minimal Basis     11.99943 ( 99.9953% of  12)
   Natural Rydberg Basis      0.00057 (  0.0047% of  12)
 --------------------------------------------------------

    Atom  No          Natural Electron Configuration
 ----------------------------------------------------------------------------
      O    1      [core]2S( 1.00)2p( 2.00)
      S    2      [core]3S( 1.00)3p( 2.00)


 NATURAL BOND ORBITAL ANALYSIS, beta spin orbitals:

                       Occupancies       Lewis Structure    Low   High
           Occ.    -------------------  -----------------   occ   occ
  Cycle   Thresh.   Lewis   Non-Lewis     CR  BD  3C  LP    (L)   (NL)   Dev
 =============================================================================
   1(1)    0.90    11.99594   0.00406      6   0   0   6     0      0    0.00
 -----------------------------------------------------------------------------

 Structure accepted: No low occupancy Lewis orbitals

 --------------------------------------------------------
   Core                      5.99999 (100.000% of   6)
   Valence Lewis             5.99595 ( 99.932% of   6)
  ==================       ============================
   Total Lewis              11.99594 ( 99.966% of  12)
  -----------------------------------------------------
   Valence non-Lewis         0.00403 (  0.034% of  12)
   Rydberg non-Lewis         0.00004 (  0.000% of  12)
  ==================       ============================
   Total non-Lewis           0.00406 (  0.034% of  12)
 --------------------------------------------------------


       (Occupancy)   Bond orbital/ Coefficients/ Hybrids
 ---------------------------------------------------------------------------------
     1. (1.00000) CR ( 1) O   1           s(100.00%)
                                            1.0000 -0.0000  0.0000  0.0000 -0.0000
                                            0.0000  0.0000  0.0000  0.0000  0.0000
                                            0.0000  0.0000  0.0000  0.0000  0.0000
                                            0.0000  0.0000  0.0000  0.0000  0.0000
                                            0.0000 -0.0000
     2. (1.00000) CR ( 1) S   2           s(100.00%)
                                            1.0000  0.0000  0.0000  0.0000  0.0000
                                           -0.0000 -0.0000  0.0000  0.0000  0.0000
                                            0.0000  0.0000  0.0000  0.0000  0.0000
                                            0.0000  0.0000  0.0000  0.0000  0.0000
                                           -0.0000 -0.0000  0.0000  0.0000 -0.0000
                                            0.0000  0.0000  0.0000 -0.0000  0.0000
     3. (1.00000) CR ( 2) S   2           s(100.00%)
                                            0.0000  1.0000 -0.0000 -0.0000 -0.0000
                                            0.0000  0.0000  0.0000  0.0000  0.0000
                                            0.0000  0.0000  0.0000  0.0000  0.0000
                                            0.0000  0.0000  0.0000  0.0000 -0.0000
                                            0.0000  0.0000 -0.0000 -0.0000  0.0000
                                            0.0000  0.0000  0.0000  0.0000  0.0000
     4. (1.00000) CR ( 3) S   2           s(  0.00%)p 1.00(100.00%)
                                            0.0000  0.0000  0.0000  0.0000  0.0000
                                            0.0000  0.0000  1.0000  0.0000 -0.0000
                                            0.0000  0.0000 -0.0000  0.0000  0.0000
                                            0.0000  0.0000  0.0000  0.0000  0.0000
                                            0.0000  0.0000  0.0000  0.0000  0.0000
                                            0.0000 -0.0000  0.0000  0.0000  0.0000
     5. (0.99999) CR ( 4) S   2           s(  0.00%)p 1.00(100.00%)
                                            0.0000  0.0000  0.0000  0.0000  0.0000
                                            0.0000  0.0000  0.0000  0.0000  0.0000
                                            0.0000  0.0000  0.0000  1.0000  0.0000
                                            0.0000  0.0000  0.0000  0.0000  0.0000
                                            0.0000  0.0000  0.0000  0.0000  0.0000
                                            0.0000  0.0000  0.0000  0.0000  0.0000
     6. (1.00000) CR ( 5) S   2           s(  0.00%)p 1.00(100.00%)
                                            0.0000 -0.0000 -0.0000 -0.0000 -0.0000
                                            0.0000  0.0000  0.0000  0.0000  0.0000
                                            0.0000  0.0000  0.0000  0.0000  0.0000
                                            0.0000  0.0000  0.0000  0.0000  1.0000
                                            0.0000  0.0000 -0.0000 -0.0000  0.0000
                                            0.0000  0.0000  0.0000  0.0000 -0.0000
     7. (1.00000) LP ( 1) O   1           s(  0.00%)p 1.00(100.00%)
                                            0.0000  0.0000  0.0000  0.0000  0.0000
                                            1.0000 -0.0002 -0.0002 -0.0000  0.0000
                                            0.0000  0.0000  0.0000  0.0000  0.0000
                                            0.0000  0.0000  0.0000 -0.0001  0.0000
                                            0.0000  0.0000
     8. (0.99999) LP ( 2) O   1           s( 99.99%)p 0.00(  0.00%)d 0.00(  0.01%)
                                            0.0000  0.9999 -0.0000 -0.0000  0.0000
                                            0.0000  0.0000  0.0000  0.0000  0.0000
                                            0.0000  0.0000  0.0000 -0.0015 -0.0005
                                           -0.0010 -0.0002  0.0000  0.0000  0.0000
                                           -0.0000  0.0103
     9. (0.99999) LP ( 3) O   1           s(  0.00%)p 1.00(100.00%)
                                            0.0000  0.0000  0.0000  0.0000  0.0000
                                            0.0000  0.0000  0.0000  0.0000  1.0000
                                            0.0001  0.0002  0.0000  0.0000  0.0000
                                            0.0000  0.0000  0.0000  0.0000 -0.0001
                                            0.0000  0.0000
    10. (0.00402) LP*( 4) O   1           s(  0.28%)p99.99( 99.72%)d 0.01(  0.00%)
                                            0.0000  0.0014  0.0527  0.0010 -0.0001
                                            0.0000  0.0000  0.0000  0.0000  0.0000
                                            0.0000  0.0000  0.0000  0.9983  0.0236
                                            0.0046 -0.0054  0.0000  0.0000  0.0000
                                           -0.0000  0.0053
    11. (1.00000) LP ( 1) S   2           s(  0.00%)p 1.00(100.00%)d 0.00(  0.00%)
                                            0.0000  0.0000  0.0000  0.0000  0.0000
                                            0.0000  0.0000 -0.0000  1.0000 -0.0015
                                            0.0004  0.0007 -0.0000  0.0000  0.0000
                                            0.0000  0.0000  0.0000  0.0000  0.0000
                                            0.0000  0.0000  0.0000  0.0000  0.0000
                                            0.0000 -0.0005  0.0000  0.0000  0.0000
    12. (1.00000) LP ( 2) S   2           s( 99.32%)p 0.01(  0.64%)d 0.00(  0.04%)
                                            0.0000  0.0000  0.9966 -0.0003 -0.0000
                                            0.0000  0.0000  0.0000  0.0000  0.0000
                                            0.0000  0.0000  0.0000  0.0000  0.0000
                                            0.0000  0.0000  0.0000  0.0000  0.0000
                                            0.0800  0.0007  0.0003  0.0004 -0.0001
                                            0.0000  0.0000  0.0000 -0.0173 -0.0096
    13. (0.99598) LP ( 3) S   2           s(  0.64%)p99.99( 99.36%)d 0.00(  0.00%)
                                           -0.0000  0.0000  0.0800  0.0040  0.0001
                                           -0.0000 -0.0000 -0.0000 -0.0000 -0.0000
                                           -0.0000 -0.0000 -0.0000 -0.0000 -0.0000
                                           -0.0000 -0.0000 -0.0000 -0.0000  0.0000
                                           -0.9968 -0.0015  0.0004  0.0008 -0.0000
                                           -0.0000 -0.0000 -0.0000 -0.0013  0.0001
    14. (0.00000) LP*( 4) S   2           s(100.00%)p 0.00(  0.00%)
    15. (0.00000) RY*( 1) O   1           s(100.00%)p 0.00(  0.00%)
    16. (0.00000) RY*( 2) O   1           s(100.00%)
    17. (0.00000) RY*( 3) O   1           s(  0.00%)p 1.00(100.00%)
    18. (0.00000) RY*( 4) O   1           s(  0.00%)p 1.00(100.00%)
    19. (0.00000) RY*( 5) O   1           s(  0.00%)p 1.00(100.00%)
    20. (0.00000) RY*( 6) O   1           s(  0.00%)p 1.00(100.00%)
    21. (0.00000) RY*( 7) O   1           s(  0.00%)p 1.00(100.00%)
    22. (0.00000) RY*( 8) O   1           s(  0.00%)p 1.00(100.00%)
    23. (0.00000) RY*( 9) O   1           s( 99.72%)p 0.00(  0.28%)
    24. (0.00000) RY*(10) O   1           s(  0.00%)p 1.00(100.00%)
    25. (0.00000) RY*(11) O   1           s(  0.00%)p 1.00(100.00%)
    26. (0.00000) RY*(12) O   1           s(  0.00%)p 1.00(100.00%)
    27. (0.00000) RY*(13) O   1           s(  0.00%)p 0.00(  0.00%)d 1.00(100.00%)
    28. (0.00000) RY*(14) O   1           s(  0.00%)p 0.00(  0.00%)d 1.00(100.00%)
    29. (0.00000) RY*(15) O   1           s(  0.00%)p 0.00(  0.00%)d 1.00(100.00%)
    30. (0.00000) RY*(16) O   1           s(  0.00%)p 0.00(  0.00%)d 1.00(100.00%)
    31. (0.00000) RY*(17) O   1           s(  0.01%)p 0.26(  0.00%)d99.99( 99.99%)
    32. (0.00001) RY*( 1) S   2           s(  0.00%)p 1.00( 99.82%)d 0.00(  0.18%)
    33. (0.00000) RY*( 2) S   2           s(100.00%)
    34. (0.00000) RY*( 3) S   2           s(100.00%)
    35. (0.00000) RY*( 4) S   2           s(  0.00%)p 1.00(100.00%)
    36. (0.00000) RY*( 5) S   2           s(  0.00%)p 1.00(100.00%)
    37. (0.00000) RY*( 6) S   2           s(  0.00%)p 1.00(100.00%)
    38. (0.00000) RY*( 7) S   2           s(  0.00%)p 1.00(100.00%)
    39. (0.00000) RY*( 8) S   2           s(100.00%)p 0.00(  0.00%)
    40. (0.00000) RY*( 9) S   2           s(  0.00%)p 1.00(100.00%)
    41. (0.00001) RY*(10) S   2           s(  0.00%)p 1.00(100.00%)
    42. (0.00000) RY*(11) S   2           s(  0.00%)p 1.00(100.00%)d 0.00(  0.00%)
    43. (0.00000) RY*(12) S   2           s(  0.00%)p 1.00(100.00%)d 0.00(  0.00%)
    44. (0.00001) RY*(13) S   2           s(  0.00%)p 1.00(100.00%)
    45. (0.00000) RY*(14) S   2           s(  0.00%)p 1.00(100.00%)
    46. (0.00000) RY*(15) S   2           s(  0.00%)p 1.00(100.00%)
    47. (0.00000) RY*(16) S   2           s(  0.00%)p 1.00(100.00%)
    48. (0.00000) RY*(17) S   2           s(  0.00%)p 0.00(  0.00%)d 1.00(100.00%)
    49. (0.00000) RY*(18) S   2           s(  0.00%)p 0.00(  0.00%)d 1.00(100.00%)
    50. (0.00000) RY*(19) S   2           s(  0.00%)p 1.00(  0.18%)d99.99( 99.82%)
    51. (0.00000) RY*(20) S   2           s(  0.03%)p 0.00(  0.00%)d99.99( 99.97%)
    52. (0.00000) RY*(21) S   2           s(  0.01%)p 0.00(  0.00%)d 1.00( 99.99%)


 NHO Directionality and "Bond Bending" (deviations from line of nuclear centers)

         [Thresholds for printing:  angular deviation  >  1.0 degree]
                                    hybrid p-character > 25.0%
                                    orbital occupancy  >  0.10e

                                Line of Centers        Hybrid 1              Hybrid 2
                                ---------------  -------------------   ------------------
                NBO               Theta   Phi    Theta   Phi    Dev    Theta   Phi    Dev
 ========================================================================================
     7. LP (   1) O   1             --     --     90.0    0.0   --       --     --    --
     9. LP (   3) O   1             --     --     90.0   90.0   --       --     --    --
    11. LP (   1) S   2             --     --     90.0    0.0   --       --     --    --
    13. LP (   3) S   2             --     --    180.0    0.0   --       --     --    --


 Second Order Perturbation Theory Analysis of Fock Matrix in NBO Basis

     Threshold for printing:   0.25 kcal/mol
    (Intermolecular threshold: 0.03 kcal/mol)
                                                                              E(2)  E(j)-E(i) F(i,j)
         Donor NBO (i)                     Acceptor NBO (j)                 kcal/mol   a.u.    a.u. 
 ===================================================================================================

 within unit  1
       None above threshold

 from unit  1 to unit  2
       None above threshold

 from unit  2 to unit  1
  13. LP (   3) S   2                / 10. LP*(   4) O   1                    0.39    0.15    0.010

 within unit  2
       None above threshold


 Natural Bond Orbitals (Summary):

                                                            Principal Delocalizations
           NBO                        Occupancy    Energy   (geminal,vicinal,remote)
 ====================================================================================
 Molecular unit  1  (O)
     1. CR (   1) O   1                  1.00000   -19.76974   
     7. LP (   1) O   1                  1.00000    -0.45638   
     8. LP (   2) O   1                  0.99999    -1.06849   
     9. LP (   3) O   1                  0.99999    -0.45650   
    10. LP*(   4) O   1                  0.00402    -0.19346   
    15. RY*(   1) O   1                  0.00000     2.01840   
    16. RY*(   2) O   1                  0.00000    48.95031   
    17. RY*(   3) O   1                  0.00000     0.99682   
    18. RY*(   4) O   1                  0.00000     0.39942   
    19. RY*(   5) O   1                  0.00000     4.77495   
    20. RY*(   6) O   1                  0.00000     0.99653   
    21. RY*(   7) O   1                  0.00000     0.39810   
    22. RY*(   8) O   1                  0.00000     4.77481   
    23. RY*(   9) O   1                  0.00000     0.16147   
    24. RY*(  10) O   1                  0.00000     0.98592   
    25. RY*(  11) O   1                  0.00000     0.45567   
    26. RY*(  12) O   1                  0.00000     4.71589   
    27. RY*(  13) O   1                  0.00000     2.84638   
    28. RY*(  14) O   1                  0.00000     2.78437   
    29. RY*(  15) O   1                  0.00000     2.78428   
    30. RY*(  16) O   1                  0.00000     2.84638   
    31. RY*(  17) O   1                  0.00000     2.80006   
       -------------------------------
              Total Lewis    3.99998  ( 99.8994%)
        Valence non-Lewis    0.00402  (  0.1005%)
        Rydberg non-Lewis    0.00000  (  0.0001%)
       -------------------------------
            Total unit  1    4.00401  (100.0000%)
           Charge unit  1   -0.00401
 
 Molecular unit  2  (S)
     2. CR (   1) S   2                  1.00000   -89.76101   
     3. CR (   2) S   2                  1.00000    -8.51243   
     4. CR (   3) S   2                  1.00000    -6.24105   
     5. CR (   4) S   2                  0.99999    -6.25716   
     6. CR (   5) S   2                  1.00000    -6.24120   
    11. LP (   1) S   2                  1.00000    -0.34186   
    12. LP (   2) S   2                  1.00000    -0.79144   
    13. LP (   3) S   2                  0.99598    -0.34504  10(r)
    14. LP*(   4) S   2                  0.00000     0.06248   
    32. RY*(   1) S   2                  0.00001    -0.19010   
    33. RY*(   2) S   2                  0.00000    13.59932   
    34. RY*(   3) S   2                  0.00000   179.47897   
    35. RY*(   4) S   2                  0.00000     0.15509   
    36. RY*(   5) S   2                  0.00000     2.51496   
    37. RY*(   6) S   2                  0.00000     1.88232   
    38. RY*(   7) S   2                  0.00000    14.93358   
    39. RY*(   8) S   2                  0.00000     4.13617   
    40. RY*(   9) S   2                  0.00000     0.14209   
    41. RY*(  10) S   2                  0.00001     2.49987   
    42. RY*(  11) S   2                  0.00000     1.86586   
    43. RY*(  12) S   2                  0.00000    14.92913   
    44. RY*(  13) S   2                  0.00001     0.17630   
    45. RY*(  14) S   2                  0.00000     2.51582   
    46. RY*(  15) S   2                  0.00000     1.87907   
    47. RY*(  16) S   2                  0.00000    14.94762   
    48. RY*(  17) S   2                  0.00000     0.77674   
    49. RY*(  18) S   2                  0.00000     0.81670   
    50. RY*(  19) S   2                  0.00000     0.77464   
    51. RY*(  20) S   2                  0.00000     0.78877   
    52. RY*(  21) S   2                  0.00000     0.80879   
       -------------------------------
              Total Lewis    7.99596  ( 99.9996%)
        Valence non-Lewis    0.00000  (  0.0000%)
        Rydberg non-Lewis    0.00003  (  0.0003%)
       -------------------------------
            Total unit  2    7.99599  (100.0000%)
           Charge unit  2    0.00401
 Sorting of NBOs:                    2    1    3    5    6    4    8   12    9    7
 Sorting of NBOs:                   13   11   10   32   14   40   35   23   44   21
 Sorting of NBOs:                   18   25   50   48   51   52   49   24   20   17
 Sorting of NBOs:                   42   46   37   15   41   36   45   29   28   31
 Sorting of NBOs:                   27   30   39   26   22   19   33   43   38   47
 Sorting of NBOs:                   16   34
 Reordering of NBOs for storage:     2    1    3    5    6    4    8   12    9    7
 Reordering of NBOs for storage:    13   11   10   14   32   40   35   23   44   21
 Reordering of NBOs for storage:    18   25   50   48   51   52   49   24   20   17
 Reordering of NBOs for storage:    42   46   37   15   41   36   45   29   28   31
 Reordering of NBOs for storage:    27   30   39   26   22   19   33   43   38   47
 Reordering of NBOs for storage:    16   34
 Labels of output orbitals:  CR  CR  CR  CR  CR  CR  LP  LP  LP  LP  LP  LP  LP* LP* RY* RY* RY* RY* RY* RY* 
 Labels of output orbitals:  RY* RY* RY* RY* RY* RY* RY* RY* RY* RY* RY* RY* RY* RY* RY* RY* RY* RY* RY* RY* 
 Labels of output orbitals:  RY* RY* RY* RY* RY* RY* RY* RY* RY* RY* RY* RY* 
 GSVD:  LWork=       -1920 too small for GESVD, short by        8600 words or        8600 for optimal perf.
 Leave Link  607 at Mon Apr 21 20:01:21 2025, MaxMem=   536870912 cpu:               8.6 elap:               1.2
 (Enter /home/szhao/Apps/g16/l701.exe)
 ... and contract with generalized density number  0.
 Compute integral first derivatives.
 Leave Link  701 at Mon Apr 21 20:01:22 2025, MaxMem=   536870912 cpu:               1.3 elap:               0.3
 (Enter /home/szhao/Apps/g16/l702.exe)
 L702 exits ... SP integral derivatives will be done elsewhere.
 Leave Link  702 at Mon Apr 21 20:01:23 2025, MaxMem=   536870912 cpu:               0.4 elap:               0.1
 (Enter /home/szhao/Apps/g16/l703.exe)
 Integral derivatives from FoFJK, PRISM(SPDF).
 Compute integral first derivatives, UseDBF=F ICtDFT=           0.
 Calling FoFJK, ICntrl=      2127 FMM=F ISym2X=1 I1Cent= 0 IOpClX= 1 NMat=1 NMatS=1 NMatT=0.
 FoFJK:  IHMeth= 1 ICntrl=    2127 DoSepK=F KAlg= 0 I1Cent=           0 FoldK=F
 IRaf=         0 NMat=       1 IRICut=       1 DoRegI=T DoRafI=F ISym2E= 1 IDoP0=0 IntGTp=1.
 FoFCou: FMM=F IPFlag=           0 FMFlag=      100000 FMFlg1=         800
         NFxFlg=           0 DoJE=F BraDBF=F KetDBF=F FulRan=T
         wScrn=  0.000000 ICntrl=      2127 IOpCl=  1 I1Cent=           0 NGrid=           0
         NMat0=    1 NMatS0=      1 NMatT0=    0 NMatD0=    1 NMtDS0=    0 NMtDT0=    0
 Petite list used in FoFCou.
 Leave Link  703 at Mon Apr 21 20:01:23 2025, MaxMem=   536870912 cpu:               2.2 elap:               0.5
 (Enter /home/szhao/Apps/g16/l716.exe)
 Dipole        = 0.00000000D+00 0.00000000D+00 8.51992603D-02
 ***** Axes restored to original set *****
 -------------------------------------------------------------------
 Center     Atomic                   Forces (Hartrees/Bohr)
 Number     Number              X              Y              Z
 -------------------------------------------------------------------
      1        8           0.001322672   -0.000000000   -0.000000000
      2       16          -0.001322672   -0.000000000   -0.000000000
 -------------------------------------------------------------------
 Cartesian Forces:  Max     0.001322672 RMS     0.000763645
 Z-matrix is all fixed cartesians, so copy forces.
 Force constants in Cartesian coordinates: 
                1             2             3             4             5 
      1  0.100000D+01
      2  0.000000D+00  0.100000D+01
      3  0.000000D+00  0.000000D+00  0.100000D+01
      4  0.000000D+00  0.000000D+00  0.000000D+00  0.100000D+01
      5  0.000000D+00  0.000000D+00  0.000000D+00  0.000000D+00  0.100000D+01
      6  0.000000D+00  0.000000D+00  0.000000D+00  0.000000D+00  0.000000D+00
                6 
      6  0.100000D+01
 Leave Link  716 at Mon Apr 21 20:01:24 2025, MaxMem=   536870912 cpu:               0.4 elap:               0.2
 (Enter /home/szhao/Apps/g16/l103.exe)

 GradGradGradGradGradGradGradGradGradGradGradGradGradGradGradGradGradGrad
 Berny optimization.
 Search for a local minimum.
 Step number   1 out of a maximum of    2
 All quantities printed in internal units (Hartrees-Bohrs-Radians)
 Second derivative matrix not updated -- first step.
 The second derivative matrix:
                          X1        Y1        Z1        X2        Y2
           X1           1.00000
           Y1           0.00000   1.00000
           Z1           0.00000   0.00000   1.00000
           X2           0.00000   0.00000   0.00000   1.00000
           Y2           0.00000   0.00000   0.00000   0.00000   1.00000
           Z2           0.00000   0.00000   0.00000   0.00000   0.00000
                          Z2
           Z2           1.00000
 ITU=  0
     Eigenvalues ---    1.00000   1.00000   1.00000   1.00000   1.00000
     Eigenvalues ---    1.00000
 Angle between quadratic step and forces=   0.00 degrees.
 ClnCor:  largest displacement from symmetrization is 0.00D+00 for atom     0.
 Linear search not attempted -- first point.
 ClnCor:  largest displacement from symmetrization is 4.44D-16 for atom     2.
 B after Tr=     0.000000    0.000000    0.000000
         Rot=    1.000000    0.000000    0.000000    0.000000 Ang=   0.00 deg.
 Variable       Old X    -DE/DX   Delta X   Delta X   Delta X     New X
                                 (Linear)    (Quad)   (Total)
    X1       -3.95910   0.00132   0.00000   0.00132   0.00132  -3.95778
    Y1        0.00000  -0.00000   0.00000   0.00000   0.00000   0.00000
    Z1        0.00000  -0.00000   0.00000   0.00000   0.00000   0.00000
    X2        3.95910  -0.00132   0.00000  -0.00132  -0.00132   3.95778
    Y2        0.00000  -0.00000   0.00000   0.00000   0.00000   0.00000
    Z2        0.00000  -0.00000   0.00000   0.00000   0.00000   0.00000
         Item               Value     Threshold  Converged?
 Maximum Force            0.001323     0.000450     NO 
 RMS     Force            0.000764     0.000300     NO 
 Maximum Displacement     0.001323     0.001800     YES
 RMS     Displacement     0.000764     0.001200     YES
 Predicted change in Energy=-1.749461D-06
 GradGradGradGradGradGradGradGradGradGradGradGradGradGradGradGradGradGrad

 Leave Link  103 at Mon Apr 21 20:01:24 2025, MaxMem=   536870912 cpu:               0.6 elap:               0.1
 (Enter /home/szhao/Apps/g16/l9999.exe)
 1\1\GINC-NODE05\Force\UM062X\6-311+G(d,p)\O1S1\SZHAO\21-Apr-2025\0\\#p
  UM062X/6-311+G** force int=superfine pop=saveNBO\\Title Card Required
 \\0,1\O,-2.095068,0.,0.\S,2.095068,0.,0.\\Version=ES64L-G16RevA.03\HF=
 -473.003611\S2=0.\S2-1=0.\S2A=0.\RMSD=2.407e-09\RMSF=7.636e-04\Dipole=
 0.0851993,0.,0.\Quadrupole=-0.3015079,2.1830994,-1.8815914,0.,0.,0.\PG
 =C*V [C*(O1S1)]\\@


 THE SECRET OF SUCCESS IN LIFE IS TO EAT WHAT YOU LIKE, AND LET THE FOOD
 FIGHT IT OUT INSIDE YOU. -- FROM A FORTUNE COOKIE
 Job cpu time:       0 days  0 hours  0 minutes 48.2 seconds.
 Elapsed time:       0 days  0 hours  0 minutes  9.0 seconds.
 File lengths (MBytes):  RWF=     17 Int=      0 D2E=      0 Chk=      2 Scr=      2
 Normal termination of Gaussian 16 at Mon Apr 21 20:01:25 2025.
