 Entering Gaussian System, Link 0=g16
 Initial command:
 /home/szhao/Apps/g16/l1.exe "/home/szhao/tmp/Gau-104067.inp" -scrdir="/home/szhao/tmp/"
 Default is to use a total of  16 processors:
                               16 via shared-memory
                                1 via Linda
 Entering Link 1 = /home/szhao/Apps/g16/l1.exe PID=    104069.
  
 Copyright (c) 1988,1990,1992,1993,1995,1998,2003,2009,2016,
            Gaussian, Inc.  All Rights Reserved.
  
 This is part of the Gaussian(R) 16 program.  It is based on
 the Gaussian(R) 09 system (copyright 2009, Gaussian, Inc.),
 the Gaussian(R) 03 system (copyright 2003, Gaussian, Inc.),
 the Gaussian(R) 98 system (copyright 1998, Gaussian, Inc.),
 the Gaussian(R) 94 system (copyright 1995, Gaussian, Inc.),
 the Gaussian 92(TM) system (copyright 1992, Gaussian, Inc.),
 the Gaussian 90(TM) system (copyright 1990, Gaussian, Inc.),
 the Gaussian 88(TM) system (copyright 1988, Gaussian, Inc.),
 the Gaussian 86(TM) system (copyright 1986, Carnegie Mellon
 University), and the Gaussian 82(TM) system (copyright 1983,
 Carnegie Mellon University). Gaussian is a federally registered
 trademark of Gaussian, Inc.
  
 This software contains proprietary and confidential information,
 including trade secrets, belonging to Gaussian, Inc.
  
 This software is provided under written license and may be
 used, copied, transmitted, or stored only in accord with that
 written license.
  
 The following legend is applicable only to US Government
 contracts under FAR:
  
                    RESTRICTED RIGHTS LEGEND
  
 Use, reproduction and disclosure by the US Government is
 subject to restrictions as set forth in subparagraphs (a)
 and (c) of the Commercial Computer Software - Restricted
 Rights clause in FAR 52.227-19.
  
 Gaussian, Inc.
 340 Quinnipiac St., Bldg. 40, Wallingford CT 06492
  
  
 ---------------------------------------------------------------
 Warning -- This program may not be used in any manner that
 competes with the business of Gaussian, Inc. or will provide
 assistance to any competitor of Gaussian, Inc.  The licensee
 of this program is prohibited from giving any competitor of
 Gaussian, Inc. access to this program.  By using this program,
 the user acknowledges that Gaussian, Inc. is engaged in the
 business of creating and licensing software in the field of
 computational chemistry and represents and warrants to the
 licensee that it is not a competitor of Gaussian, Inc. and that
 it will not use this program in any manner prohibited above.
 ---------------------------------------------------------------
  

 Cite this work as:
 Gaussian 16, Revision A.03,
 M. J. Frisch, G. W. Trucks, H. B. Schlegel, G. E. Scuseria, 
 M. A. Robb, J. R. Cheeseman, G. Scalmani, V. Barone, 
 G. A. Petersson, H. Nakatsuji, X. Li, M. Caricato, A. V. Marenich, 
 J. Bloino, B. G. Janesko, R. Gomperts, B. Mennucci, H. P. Hratchian, 
 J. V. Ortiz, A. F. Izmaylov, J. L. Sonnenberg, D. Williams-Young, 
 F. Ding, F. Lipparini, F. Egidi, J. Goings, B. Peng, A. Petrone, 
 T. Henderson, D. Ranasinghe, V. G. Zakrzewski, J. Gao, N. Rega, 
 G. Zheng, W. Liang, M. Hada, M. Ehara, K. Toyota, R. Fukuda, 
 J. Hasegawa, M. Ishida, T. Nakajima, Y. Honda, O. Kitao, H. Nakai, 
 T. Vreven, K. Throssell, J. A. Montgomery, Jr., J. E. Peralta, 
 F. Ogliaro, M. J. Bearpark, J. J. Heyd, E. N. Brothers, K. N. Kudin, 
 V. N. Staroverov, T. A. Keith, R. Kobayashi, J. Normand, 
 K. Raghavachari, A. P. Rendell, J. C. Burant, S. S. Iyengar, 
 J. Tomasi, M. Cossi, J. M. Millam, M. Klene, C. Adamo, R. Cammi, 
 J. W. Ochterski, R. L. Martin, K. Morokuma, O. Farkas, 
 J. B. Foresman, and D. J. Fox, Gaussian, Inc., Wallingford CT, 2016.
 
 ******************************************
 Gaussian 16:  ES64L-G16RevA.03 25-Dec-2016
                15-May-2025 
 ******************************************
 %chk=opt.chk
 %mem=4GB
 %nprocshared=8
 Will use up to    8 processors via shared memory.
 --------------------------------------------
 #p opt UM062X/6-311+G** nosymm int=superfine
 --------------------------------------------
 1/18=20,19=15,26=5,38=1/1,3;
 2/9=110,12=2,15=1,17=6,18=5,40=1/2;
 3/5=4,6=6,7=111,11=2,25=1,30=1,71=1,74=-55,75=-7,116=2/1,2,3;
 4//1;
 5/5=2,38=5/2;
 6/7=2,8=2,9=2,10=2,28=1/1;
 7/30=1/1,2,3,16;
 1/18=20,19=15,26=5/3(2);
 2/9=110,15=1/2;
 99//99;
 2/9=110,15=1/2;
 3/5=4,6=6,7=111,11=2,25=1,30=1,71=1,74=-55,75=-7,116=2/1,2,3;
 4/5=5,16=3,69=1/1;
 5/5=2,38=5/2;
 7/30=1/1,2,3,16;
 1/18=20,19=15,26=5/3(-5);
 2/9=110,15=1/2;
 6/7=2,8=2,9=2,10=2,19=2,28=1/1;
 99/9=1/99;
 Leave Link    1 at Thu May 15 14:34:57 2025, MaxMem=   536870912 cpu:               0.3 elap:               0.0
 (Enter /home/szhao/Apps/g16/l101.exe)
 -------------------
 Title Card Required
 -------------------
 Symbolic Z-matrix:
 Charge =  0 Multiplicity = 1
 N                    -1   -1.21154   0.        0. 
 N                    -1    1.21154   0.        0. 
 H                    0    -1.52739  -0.96125   0. 
 H                    0     1.52739   0.82259  -0.49735 
 H                    0    -1.60418   0.46934   0.80975 
 H                    0     1.60418   0.01733   0.93577 
 
 Add virtual bond connecting atoms N2         and N1         Dist= 4.58D+00.
 ITRead=  2  2  0  0  0  0
 MicOpt= -2 -2 -1 -1 -1 -1
 NAtoms=      6 NQM=        4 NQMF=       2 NMMI=      0 NMMIF=      0
                NMic=       0 NMicF=      0.
                    Isotopes and Nuclear Properties:
 (Nuclear quadrupole moments (NQMom) in fm**2, nuclear magnetic moments (NMagM)
  in nuclear magnetons)

  Atom         1           2           3           4           5           6
 IAtWgt=          14          14           1           1           1           1
 AtmWgt=  14.0030740  14.0030740   1.0078250   1.0078250   1.0078250   1.0078250
 NucSpn=           2           2           1           1           1           1
 AtZEff=  -0.0000000  -0.0000000  -0.0000000  -0.0000000  -0.0000000  -0.0000000
 NQMom=    2.0440000   2.0440000   0.0000000   0.0000000   0.0000000   0.0000000
 NMagM=    0.4037610   0.4037610   2.7928460   2.7928460   2.7928460   2.7928460
 AtZNuc=   7.0000000   7.0000000   1.0000000   1.0000000   1.0000000   1.0000000
 Leave Link  101 at Thu May 15 14:34:58 2025, MaxMem=   536870912 cpu:               2.1 elap:               0.3
 (Enter /home/szhao/Apps/g16/l103.exe)

 GradGradGradGradGradGradGradGradGradGradGradGradGradGradGradGradGradGrad
 Berny optimization.
 Initialization pass.
                           ----------------------------
                           !    Initial Parameters    !
                           ! (Angstroms and Degrees)  !
 --------------------------                            --------------------------
 ! Name  Definition              Value          Derivative Info.                !
 --------------------------------------------------------------------------------
 ! X1    R(1,-1)                -1.2115         Frozen                          !
 ! Y1    R(1,-2)                 0.0            Frozen                          !
 ! Z1    R(1,-3)                 0.0            Frozen                          !
 ! X2    R(2,-1)                 1.2115         Frozen                          !
 ! Y2    R(2,-2)                 0.0            Frozen                          !
 ! Z2    R(2,-3)                 0.0            Frozen                          !
 ! R1    R(1,3)                  1.0118         estimate D2E/DX2                !
 ! R2    R(1,5)                  1.015          estimate D2E/DX2                !
 ! R3    R(2,4)                  1.0118         estimate D2E/DX2                !
 ! R4    R(2,6)                  1.015          estimate D2E/DX2                !
 ! A1    A(2,1,3)              108.1896         estimate D2E/DX2                !
 ! A2    A(2,1,5)              112.759          estimate D2E/DX2                !
 ! A3    A(3,1,5)              108.5753         estimate D2E/DX2                !
 ! A4    A(1,2,4)              108.1895         estimate D2E/DX2                !
 ! A5    A(1,2,6)              112.7589         estimate D2E/DX2                !
 ! A6    A(4,2,6)              108.5754         estimate D2E/DX2                !
 ! D1    D(3,1,2,4)            148.842          estimate D2E/DX2                !
 ! D2    D(3,1,2,6)            -91.0611         estimate D2E/DX2                !
 ! D3    D(5,1,2,4)            -91.0611         estimate D2E/DX2                !
 ! D4    D(5,1,2,6)             29.0358         estimate D2E/DX2                !
 --------------------------------------------------------------------------------
 Trust Radius=3.00D-01 FncErr=1.00D-07 GrdErr=1.00D-07 EigMax=2.50D+02 EigMin=1.00D-04
 Number of steps in this run=     30 maximum allowed number of steps=    100.
 GradGradGradGradGradGradGradGradGradGradGradGradGradGradGradGradGradGrad

 Leave Link  103 at Thu May 15 14:34:58 2025, MaxMem=   536870912 cpu:               0.1 elap:               0.0
 (Enter /home/szhao/Apps/g16/l202.exe)
                          Input orientation:                          
 ---------------------------------------------------------------------
 Center     Atomic      Atomic             Coordinates (Angstroms)
 Number     Number       Type             X           Y           Z
 ---------------------------------------------------------------------
      1          7           0       -1.211540    0.000000    0.000000
      2          7           0        1.211540    0.000000    0.000000
      3          1           0       -1.527390   -0.961252    0.000000
      4          1           0        1.527388    0.822586   -0.497352
      5          1           0       -1.604182    0.469337    0.809750
      6          1           0        1.604180    0.017333    0.935772
 ---------------------------------------------------------------------
                    Distance matrix (angstroms):
                    1          2          3          4          5
     1  N    0.000000
     2  N    2.423080   0.000000
     3  H    1.011814   2.902713   0.000000
     4  H    2.902711   1.011813   3.572269   0.000000
     5  H    1.014957   2.967197   1.645654   3.411748   0.000000
     6  H    2.967196   1.014956   3.411749   1.645653   3.242495
                    6
     6  H    0.000000
 Symmetry turned off by external request.
 Stoichiometry    H4N2
 Framework group  C1[X(H4N2)]
 Deg. of freedom    12
 Full point group                 C1      NOp   1
 Rotational constants (GHZ):         144.9729847           9.5675275           9.5649154
 Leave Link  202 at Thu May 15 14:34:58 2025, MaxMem=   536870912 cpu:               0.0 elap:               0.0
 (Enter /home/szhao/Apps/g16/l301.exe)
 Standard basis: 6-311+G(d,p) (5D, 7F)
 Ernie: Thresh=  0.10000D-02 Tol=  0.10000D-05 Strict=F.
    68 basis functions,   104 primitive gaussians,    70 cartesian basis functions
     9 alpha electrons        9 beta electrons
       nuclear repulsion energy        31.6361356804 Hartrees.
 IExCor= 4336 DFT=T Ex+Corr=M062X ExCW=0 ScaHFX=  0.540000
 ScaDFX=  1.000000  1.000000  1.000000  1.000000 ScalE2=  1.000000  1.000000
 IRadAn=      7 IRanWt=     -1 IRanGd=            0 ICorTp=0 IEmpDi=  4
 NAtoms=    6 NActive=    6 NUniq=    6 SFac= 1.00D+00 NAtFMM=   60 NAOKFM=F Big=F
 Integral buffers will be    131072 words long.
 Raffenetti 2 integral format.
 Two-electron integral symmetry is turned off.
 Leave Link  301 at Thu May 15 14:34:58 2025, MaxMem=   536870912 cpu:               0.2 elap:               0.0
 (Enter /home/szhao/Apps/g16/l302.exe)
 NPDir=0 NMtPBC=     1 NCelOv=     1 NCel=       1 NClECP=     1 NCelD=      1
         NCelK=      1 NCelE2=     1 NClLst=     1 CellRange=     0.0.
 One-electron integrals computed using PRISM.
 NBasis=    68 RedAO= T EigKep=  3.02D-03  NBF=    68
 NBsUse=    68 1.00D-06 EigRej= -1.00D+00 NBFU=    68
 Precomputing XC quadrature grid using
 IXCGrd= 4 IRadAn=           7 IRanWt=          -1 IRanGd=           0 AccXCQ= 0.00D+00.
 Generated NRdTot=       0 NPtTot=           0 NUsed=           0 NTot=          32
 NSgBfM=    70    70    70    70    70 MxSgAt=     6 MxSgA2=     6.
 Leave Link  302 at Thu May 15 14:34:58 2025, MaxMem=   536870912 cpu:               0.9 elap:               0.1
 (Enter /home/szhao/Apps/g16/l303.exe)
 DipDrv:  MaxL=1.
 Leave Link  303 at Thu May 15 14:34:58 2025, MaxMem=   536870912 cpu:               0.3 elap:               0.0
 (Enter /home/szhao/Apps/g16/l401.exe)
 ExpMin= 6.39D-02 ExpMax= 6.29D+03 ExpMxC= 9.49D+02 IAcc=3 IRadAn=         7 AccDes= 0.00D+00
 Harris functional with IExCor= 1009 and IRadAn=       7 diagonalized for initial guess.
 HarFok:  IExCor= 1009 AccDes= 0.00D+00 IRadAn=         7 IDoV= 1 UseB2=F ITyADJ=14
 ICtDFT=  3500011 ScaDFX=  1.000000  1.000000  1.000000  1.000000
 FoFCou: FMM=F IPFlag=           0 FMFlag=      100000 FMFlg1=           0
         NFxFlg=           0 DoJE=T BraDBF=F KetDBF=T FulRan=T
         wScrn=  0.000000 ICntrl=       500 IOpCl=  0 I1Cent=   200000004 NGrid=           0
         NMat0=    1 NMatS0=      1 NMatT0=    0 NMatD0=    1 NMtDS0=    0 NMtDT0=    0
 Symmetry not used in FoFCou.
 Harris En= -111.673966660268    
 JPrj=0 DoOrth=F DoCkMO=F.
 Initial guess <Sx>= 0.0000 <Sy>= 0.0000 <Sz>= 0.0000 <S**2>=-0.0000 S=-0.0000
 Leave Link  401 at Thu May 15 14:34:58 2025, MaxMem=   536870912 cpu:               2.0 elap:               0.3
 (Enter /home/szhao/Apps/g16/l502.exe)
 Keep R1 and R2 ints in memory in canonical form, NReq=12681614.
 FoFCou: FMM=F IPFlag=           0 FMFlag=           0 FMFlg1=           0
         NFxFlg=           0 DoJE=F BraDBF=F KetDBF=F FulRan=T
         wScrn=  0.000000 ICntrl=       600 IOpCl=  0 I1Cent=           0 NGrid=           0
         NMat0=    1 NMatS0=   2346 NMatT0=    0 NMatD0=    1 NMtDS0=    0 NMtDT0=    0
 Symmetry not used in FoFCou.
 Two-electron integral symmetry not used.
 UHF open shell SCF:
 Using DIIS extrapolation, IDIIS=  1040.
 NGot=   536870912 LenX=   531353794 LenY=   531348453
 Requested convergence on RMS density matrix=1.00D-08 within 128 cycles.
 Requested convergence on MAX density matrix=1.00D-06.
 Requested convergence on             energy=1.00D-06.
 No special actions if energy rises.
 Integral accuracy reduced to 1.0D-05 until final iterations.

 Cycle   1  Pass 0  IDiag  1:
 E= -111.642210132274    
 DIIS: error= 3.28D-02 at cycle   1 NSaved=   1.
 NSaved= 1 IEnMin= 1 EnMin= -111.642210132274     IErMin= 1 ErrMin= 3.28D-02
 ErrMax= 3.28D-02  0.00D+00 EMaxC= 1.00D-01 BMatC= 3.13D-01 BMatP= 3.13D-01
 IDIUse=3 WtCom= 6.72D-01 WtEn= 3.28D-01
 Coeff-Com:  0.100D+01
 Coeff-En:   0.100D+01
 Coeff:      0.100D+01
 Gap=     0.205 Goal=   None    Shift=    0.000
 Gap=     0.205 Goal=   None    Shift=    0.000
 GapD=    0.205 DampG=1.000 DampE=0.500 DampFc=0.5000 IDamp=-1.
 Damping current iteration by 5.00D-01
 RMSDP=4.32D-03 MaxDP=5.98D-02              OVMax= 1.25D-01

 Cycle   2  Pass 0  IDiag  1:
 E= -111.668628753566     Delta-E=       -0.026418621292 Rises=F Damp=T
 DIIS: error= 1.43D-02 at cycle   2 NSaved=   2.
 NSaved= 2 IEnMin= 2 EnMin= -111.668628753566     IErMin= 2 ErrMin= 1.43D-02
 ErrMax= 1.43D-02  0.00D+00 EMaxC= 1.00D-01 BMatC= 2.44D-02 BMatP= 3.13D-01
 IDIUse=3 WtCom= 8.57D-01 WtEn= 1.43D-01
 Coeff-Com: -0.103D+00 0.110D+01
 Coeff-En:   0.000D+00 0.100D+01
 Coeff:     -0.882D-01 0.109D+01
 Gap=     0.200 Goal=   None    Shift=    0.000
 Gap=     0.200 Goal=   None    Shift=    0.000
 RMSDP=7.25D-04 MaxDP=1.16D-02 DE=-2.64D-02 OVMax= 6.21D-02

 Cycle   3  Pass 0  IDiag  1:
 E= -111.694839910820     Delta-E=       -0.026211157254 Rises=F Damp=F
 DIIS: error= 2.80D-03 at cycle   3 NSaved=   3.
 NSaved= 3 IEnMin= 3 EnMin= -111.694839910820     IErMin= 3 ErrMin= 2.80D-03
 ErrMax= 2.80D-03  0.00D+00 EMaxC= 1.00D-01 BMatC= 1.63D-03 BMatP= 2.44D-02
 IDIUse=3 WtCom= 9.72D-01 WtEn= 2.80D-02
 Coeff-Com: -0.733D-01 0.176D+00 0.898D+00
 Coeff-En:   0.000D+00 0.000D+00 0.100D+01
 Coeff:     -0.713D-01 0.171D+00 0.901D+00
 Gap=     0.196 Goal=   None    Shift=    0.000
 Gap=     0.196 Goal=   None    Shift=    0.000
 RMSDP=2.31D-04 MaxDP=2.55D-03 DE=-2.62D-02 OVMax= 9.38D-03

 Cycle   4  Pass 0  IDiag  1:
 E= -111.695247866890     Delta-E=       -0.000407956069 Rises=F Damp=F
 DIIS: error= 4.72D-04 at cycle   4 NSaved=   4.
 NSaved= 4 IEnMin= 4 EnMin= -111.695247866890     IErMin= 4 ErrMin= 4.72D-04
 ErrMax= 4.72D-04  0.00D+00 EMaxC= 1.00D-01 BMatC= 4.99D-05 BMatP= 1.63D-03
 IDIUse=3 WtCom= 9.95D-01 WtEn= 4.72D-03
 Coeff-Com: -0.143D-01 0.278D-01 0.235D+00 0.752D+00
 Coeff-En:   0.000D+00 0.000D+00 0.000D+00 0.100D+01
 Coeff:     -0.142D-01 0.276D-01 0.234D+00 0.753D+00
 Gap=     0.196 Goal=   None    Shift=    0.000
 Gap=     0.196 Goal=   None    Shift=    0.000
 RMSDP=5.77D-05 MaxDP=4.30D-04 DE=-4.08D-04 OVMax= 3.01D-03

 Cycle   5  Pass 0  IDiag  1:
 E= -111.695267406382     Delta-E=       -0.000019539492 Rises=F Damp=F
 DIIS: error= 2.23D-04 at cycle   5 NSaved=   5.
 NSaved= 5 IEnMin= 5 EnMin= -111.695267406382     IErMin= 5 ErrMin= 2.23D-04
 ErrMax= 2.23D-04  0.00D+00 EMaxC= 1.00D-01 BMatC= 4.35D-06 BMatP= 4.99D-05
 IDIUse=3 WtCom= 9.98D-01 WtEn= 2.23D-03
 Coeff-Com:  0.671D-02-0.139D-01-0.865D-01-0.338D+00 0.143D+01
 Coeff-En:   0.000D+00 0.000D+00 0.000D+00 0.000D+00 0.100D+01
 Coeff:      0.670D-02-0.139D-01-0.863D-01-0.337D+00 0.143D+01
 Gap=     0.196 Goal=   None    Shift=    0.000
 Gap=     0.196 Goal=   None    Shift=    0.000
 RMSDP=5.85D-05 MaxDP=4.15D-04 DE=-1.95D-05 OVMax= 4.32D-03

 Cycle   6  Pass 0  IDiag  1:
 E= -111.695277815012     Delta-E=       -0.000010408630 Rises=F Damp=F
 DIIS: error= 1.01D-04 at cycle   6 NSaved=   6.
 NSaved= 6 IEnMin= 6 EnMin= -111.695277815012     IErMin= 6 ErrMin= 1.01D-04
 ErrMax= 1.01D-04  0.00D+00 EMaxC= 1.00D-01 BMatC= 1.21D-06 BMatP= 4.35D-06
 IDIUse=3 WtCom= 9.99D-01 WtEn= 1.01D-03
 Coeff-Com: -0.846D-04 0.807D-03-0.128D-01-0.128D+00-0.192D+00 0.133D+01
 Coeff-En:   0.000D+00 0.000D+00 0.000D+00 0.000D+00 0.000D+00 0.100D+01
 Coeff:     -0.845D-04 0.806D-03-0.128D-01-0.128D+00-0.192D+00 0.133D+01
 Gap=     0.197 Goal=   None    Shift=    0.000
 Gap=     0.197 Goal=   None    Shift=    0.000
 RMSDP=3.61D-05 MaxDP=2.45D-04 DE=-1.04D-05 OVMax= 2.53D-03

 Cycle   7  Pass 0  IDiag  1:
 E= -111.695280157796     Delta-E=       -0.000002342784 Rises=F Damp=F
 DIIS: error= 7.04D-05 at cycle   7 NSaved=   7.
 NSaved= 7 IEnMin= 7 EnMin= -111.695280157796     IErMin= 7 ErrMin= 7.04D-05
 ErrMax= 7.04D-05  0.00D+00 EMaxC= 1.00D-01 BMatC= 6.13D-07 BMatP= 1.21D-06
 IDIUse=1 WtCom= 1.00D+00 WtEn= 0.00D+00
 Coeff-Com: -0.105D-02 0.259D-02 0.388D-02-0.367D-01-0.306D+00 0.787D+00
 Coeff-Com:  0.550D+00
 Coeff:     -0.105D-02 0.259D-02 0.388D-02-0.367D-01-0.306D+00 0.787D+00
 Coeff:      0.550D+00
 Gap=     0.197 Goal=   None    Shift=    0.000
 Gap=     0.197 Goal=   None    Shift=    0.000
 RMSDP=1.04D-05 MaxDP=9.96D-05 DE=-2.34D-06 OVMax= 6.00D-04

 Cycle   8  Pass 0  IDiag  1:
 E= -111.695280343637     Delta-E=       -0.000000185841 Rises=F Damp=F
 DIIS: error= 6.90D-05 at cycle   8 NSaved=   8.
 NSaved= 8 IEnMin= 8 EnMin= -111.695280343637     IErMin= 8 ErrMin= 6.90D-05
 ErrMax= 6.90D-05  0.00D+00 EMaxC= 1.00D-01 BMatC= 5.35D-07 BMatP= 6.13D-07
 IDIUse=1 WtCom= 1.00D+00 WtEn= 0.00D+00
 Coeff-Com: -0.748D-03 0.159D-02 0.852D-02 0.316D-01-0.118D+00-0.936D-01
 Coeff-Com:  0.570D+00 0.600D+00
 Coeff:     -0.748D-03 0.159D-02 0.852D-02 0.316D-01-0.118D+00-0.936D-01
 Coeff:      0.570D+00 0.600D+00
 Gap=     0.197 Goal=   None    Shift=    0.000
 Gap=     0.197 Goal=   None    Shift=    0.000
 RMSDP=6.42D-06 MaxDP=5.70D-05 DE=-1.86D-07 OVMax= 3.68D-04

 Initial convergence to 1.0D-05 achieved.  Increase integral accuracy.
 Cycle   9  Pass 1  IDiag  1:
 E= -111.695277559711     Delta-E=        0.000002783926 Rises=F Damp=F
 DIIS: error= 2.68D-06 at cycle   1 NSaved=   1.
 NSaved= 1 IEnMin= 1 EnMin= -111.695277559711     IErMin= 1 ErrMin= 2.68D-06
 ErrMax= 2.68D-06  0.00D+00 EMaxC= 1.00D-01 BMatC= 1.59D-09 BMatP= 1.59D-09
 IDIUse=1 WtCom= 1.00D+00 WtEn= 0.00D+00
 Coeff-Com:  0.100D+01
 Coeff:      0.100D+01
 Gap=     0.197 Goal=   None    Shift=    0.000
 Gap=     0.197 Goal=   None    Shift=    0.000
 RMSDP=6.42D-06 MaxDP=5.70D-05 DE= 2.78D-06 OVMax= 2.24D-05

 Cycle  10  Pass 1  IDiag  1:
 E= -111.695277560574     Delta-E=       -0.000000000863 Rises=F Damp=F
 DIIS: error= 1.49D-06 at cycle   2 NSaved=   2.
 NSaved= 2 IEnMin= 2 EnMin= -111.695277560574     IErMin= 2 ErrMin= 1.49D-06
 ErrMax= 1.49D-06  0.00D+00 EMaxC= 1.00D-01 BMatC= 3.81D-10 BMatP= 1.59D-09
 IDIUse=1 WtCom= 1.00D+00 WtEn= 0.00D+00
 Coeff-Com:  0.173D+00 0.827D+00
 Coeff:      0.173D+00 0.827D+00
 Gap=     0.197 Goal=   None    Shift=    0.000
 Gap=     0.197 Goal=   None    Shift=    0.000
 RMSDP=2.90D-07 MaxDP=3.87D-06 DE=-8.63D-10 OVMax= 1.39D-05

 Cycle  11  Pass 1  IDiag  1:
 E= -111.695277560507     Delta-E=        0.000000000067 Rises=F Damp=F
 DIIS: error= 3.22D-06 at cycle   3 NSaved=   3.
 NSaved= 3 IEnMin= 2 EnMin= -111.695277560574     IErMin= 2 ErrMin= 1.49D-06
 ErrMax= 3.22D-06  0.00D+00 EMaxC= 1.00D-01 BMatC= 1.20D-09 BMatP= 3.81D-10
 IDIUse=1 WtCom= 1.00D+00 WtEn= 0.00D+00
 Coeff-Com: -0.624D-01 0.693D+00 0.369D+00
 Coeff:     -0.624D-01 0.693D+00 0.369D+00
 Gap=     0.197 Goal=   None    Shift=    0.000
 Gap=     0.197 Goal=   None    Shift=    0.000
 RMSDP=1.82D-07 MaxDP=2.31D-06 DE= 6.70D-11 OVMax= 1.20D-05

 Cycle  12  Pass 1  IDiag  1:
 E= -111.695277560847     Delta-E=       -0.000000000340 Rises=F Damp=F
 DIIS: error= 4.99D-07 at cycle   4 NSaved=   4.
 NSaved= 4 IEnMin= 4 EnMin= -111.695277560847     IErMin= 4 ErrMin= 4.99D-07
 ErrMax= 4.99D-07  0.00D+00 EMaxC= 1.00D-01 BMatC= 5.85D-11 BMatP= 3.81D-10
 IDIUse=1 WtCom= 1.00D+00 WtEn= 0.00D+00
 Coeff-Com: -0.639D-01 0.686D-01 0.162D+00 0.833D+00
 Coeff:     -0.639D-01 0.686D-01 0.162D+00 0.833D+00
 Gap=     0.197 Goal=   None    Shift=    0.000
 Gap=     0.197 Goal=   None    Shift=    0.000
 RMSDP=1.15D-07 MaxDP=1.21D-06 DE=-3.40D-10 OVMax= 6.98D-06

 Cycle  13  Pass 1  IDiag  1:
 E= -111.695277560897     Delta-E=       -0.000000000051 Rises=F Damp=F
 DIIS: error= 3.46D-07 at cycle   5 NSaved=   5.
 NSaved= 5 IEnMin= 5 EnMin= -111.695277560897     IErMin= 5 ErrMin= 3.46D-07
 ErrMax= 3.46D-07  0.00D+00 EMaxC= 1.00D-01 BMatC= 1.20D-11 BMatP= 5.85D-11
 IDIUse=1 WtCom= 1.00D+00 WtEn= 0.00D+00
 Coeff-Com:  0.117D-01-0.284D+00-0.993D-01 0.212D+00 0.116D+01
 Coeff:      0.117D-01-0.284D+00-0.993D-01 0.212D+00 0.116D+01
 Gap=     0.197 Goal=   None    Shift=    0.000
 Gap=     0.197 Goal=   None    Shift=    0.000
 RMSDP=1.17D-07 MaxDP=8.15D-07 DE=-5.08D-11 OVMax= 7.79D-06

 Cycle  14  Pass 1  IDiag  1:
 E= -111.695277560920     Delta-E=       -0.000000000023 Rises=F Damp=F
 DIIS: error= 9.01D-08 at cycle   6 NSaved=   6.
 NSaved= 6 IEnMin= 6 EnMin= -111.695277560920     IErMin= 6 ErrMin= 9.01D-08
 ErrMax= 9.01D-08  0.00D+00 EMaxC= 1.00D-01 BMatC= 1.29D-12 BMatP= 1.20D-11
 IDIUse=1 WtCom= 1.00D+00 WtEn= 0.00D+00
 Coeff-Com:  0.132D-01-0.201D-01-0.395D-01-0.138D+00 0.146D+00 0.104D+01
 Coeff:      0.132D-01-0.201D-01-0.395D-01-0.138D+00 0.146D+00 0.104D+01
 Gap=     0.197 Goal=   None    Shift=    0.000
 Gap=     0.197 Goal=   None    Shift=    0.000
 RMSDP=3.09D-08 MaxDP=2.10D-07 DE=-2.31D-11 OVMax= 2.16D-06

 Cycle  15  Pass 1  IDiag  1:
 E= -111.695277560923     Delta-E=       -0.000000000002 Rises=F Damp=F
 DIIS: error= 2.81D-08 at cycle   7 NSaved=   7.
 NSaved= 7 IEnMin= 7 EnMin= -111.695277560923     IErMin= 7 ErrMin= 2.81D-08
 ErrMax= 2.81D-08  0.00D+00 EMaxC= 1.00D-01 BMatC= 9.24D-14 BMatP= 1.29D-12
 IDIUse=1 WtCom= 1.00D+00 WtEn= 0.00D+00
 Coeff-Com: -0.144D-02 0.301D-01 0.674D-02-0.305D-01-0.116D+00-0.102D+00
 Coeff-Com:  0.121D+01
 Coeff:     -0.144D-02 0.301D-01 0.674D-02-0.305D-01-0.116D+00-0.102D+00
 Coeff:      0.121D+01
 Gap=     0.197 Goal=   None    Shift=    0.000
 Gap=     0.197 Goal=   None    Shift=    0.000
 RMSDP=1.10D-08 MaxDP=7.11D-08 DE=-2.10D-12 OVMax= 8.06D-07

 Cycle  16  Pass 1  IDiag  1:
 E= -111.695277560923     Delta-E=       -0.000000000000 Rises=F Damp=F
 DIIS: error= 1.41D-09 at cycle   8 NSaved=   8.
 NSaved= 8 IEnMin= 8 EnMin= -111.695277560923     IErMin= 8 ErrMin= 1.41D-09
 ErrMax= 1.41D-09  0.00D+00 EMaxC= 1.00D-01 BMatC= 8.64D-16 BMatP= 9.24D-14
 IDIUse=1 WtCom= 1.00D+00 WtEn= 0.00D+00
 Coeff-Com: -0.295D-03 0.197D-03 0.116D-02 0.341D-02-0.355D-03-0.203D-01
 Coeff-Com: -0.154D-01 0.103D+01
 Coeff:     -0.295D-03 0.197D-03 0.116D-02 0.341D-02-0.355D-03-0.203D-01
 Coeff:     -0.154D-01 0.103D+01
 Gap=     0.197 Goal=   None    Shift=    0.000
 Gap=     0.197 Goal=   None    Shift=    0.000
 RMSDP=6.65D-10 MaxDP=6.80D-09 DE=-3.13D-13 OVMax= 2.25D-08

 SCF Done:  E(UM062X) =  -111.695277561     A.U. after   16 cycles
            NFock= 16  Conv=0.66D-09     -V/T= 2.0054
 <Sx>= 0.0000 <Sy>= 0.0000 <Sz>= 0.0000 <S**2>=-0.0000 S=-0.0000
 <L.S>=  0.00000000000    
 KE= 1.110913788247D+02 PE=-3.244940540267D+02 EE= 7.007126196068D+01
 Annihilation of the first spin contaminant:
 S**2 before annihilation    -0.0000,   after    -0.0000
 Leave Link  502 at Thu May 15 14:35:03 2025, MaxMem=   536870912 cpu:              36.7 elap:               4.7
 (Enter /home/szhao/Apps/g16/l601.exe)
 Copying SCF densities to generalized density rwf, IOpCl= 1 IROHF=0.

 **********************************************************************

            Population analysis using the SCF density.

 **********************************************************************

 Alpha  occ. eigenvalues --  -14.78860 -14.78856  -0.94788  -0.92644  -0.55247
 Alpha  occ. eigenvalues --   -0.55241  -0.41047  -0.36291  -0.31128
 Alpha virt. eigenvalues --   -0.11463   0.04616   0.07227   0.10856   0.11222
 Alpha virt. eigenvalues --    0.14822   0.15164   0.15836   0.18656   0.19262
 Alpha virt. eigenvalues --    0.21973   0.24789   0.25209   0.52644   0.54301
 Alpha virt. eigenvalues --    0.59248   0.61135   0.75053   0.75724   0.79948
 Alpha virt. eigenvalues --    0.82182   0.84350   0.86405   0.92408   1.17928
 Alpha virt. eigenvalues --    1.24303   1.24678   1.31981   1.32166   1.44530
 Alpha virt. eigenvalues --    1.63582   1.63870   1.72086   1.94429   1.96778
 Alpha virt. eigenvalues --    2.00586   2.00671   2.32730   2.36995   2.43175
 Alpha virt. eigenvalues --    2.43921   2.45484   2.51252   2.53392   2.56803
 Alpha virt. eigenvalues --    2.69552   2.71415   2.92460   2.92820   3.08866
 Alpha virt. eigenvalues --    3.09194   3.86616   3.93846   4.27848   4.28077
 Alpha virt. eigenvalues --    4.73661   4.73717  35.54491  35.56195
  Beta  occ. eigenvalues --  -14.78860 -14.78856  -0.94788  -0.92644  -0.55247
  Beta  occ. eigenvalues --   -0.55241  -0.41047  -0.36291  -0.31128
  Beta virt. eigenvalues --   -0.11463   0.04616   0.07227   0.10856   0.11222
  Beta virt. eigenvalues --    0.14822   0.15164   0.15836   0.18656   0.19262
  Beta virt. eigenvalues --    0.21973   0.24789   0.25209   0.52644   0.54301
  Beta virt. eigenvalues --    0.59248   0.61135   0.75053   0.75724   0.79948
  Beta virt. eigenvalues --    0.82182   0.84350   0.86405   0.92408   1.17928
  Beta virt. eigenvalues --    1.24303   1.24678   1.31981   1.32166   1.44530
  Beta virt. eigenvalues --    1.63582   1.63870   1.72086   1.94429   1.96778
  Beta virt. eigenvalues --    2.00586   2.00671   2.32730   2.36995   2.43175
  Beta virt. eigenvalues --    2.43921   2.45484   2.51252   2.53392   2.56803
  Beta virt. eigenvalues --    2.69552   2.71415   2.92460   2.92820   3.08866
  Beta virt. eigenvalues --    3.09194   3.86616   3.93846   4.27848   4.28077
  Beta virt. eigenvalues --    4.73661   4.73717  35.54491  35.56195
          Condensed to atoms (all electrons):
               1          2          3          4          5          6
     1  N    6.643891   0.182286   0.356746  -0.012637   0.340602  -0.015633
     2  N    0.182286   6.643891  -0.012637   0.356747  -0.015633   0.340602
     3  H    0.356746  -0.012637   0.442371   0.000601  -0.040622   0.000410
     4  H   -0.012637   0.356747   0.000601   0.442371   0.000410  -0.040622
     5  H    0.340602  -0.015633  -0.040622   0.000410   0.471702   0.001415
     6  H   -0.015633   0.340602   0.000410  -0.040622   0.001415   0.471702
          Atomic-Atomic Spin Densities.
               1          2          3          4          5          6
     1  N    0.000000   0.000000  -0.000000  -0.000000   0.000000  -0.000000
     2  N    0.000000  -0.000000   0.000000   0.000000   0.000000  -0.000000
     3  H   -0.000000   0.000000   0.000000  -0.000000   0.000000  -0.000000
     4  H   -0.000000   0.000000  -0.000000   0.000000  -0.000000   0.000000
     5  H    0.000000   0.000000   0.000000  -0.000000  -0.000000   0.000000
     6  H   -0.000000  -0.000000  -0.000000   0.000000   0.000000  -0.000000
 Mulliken charges and spin densities:
               1          2
     1  N   -0.495256   0.000000
     2  N   -0.495256  -0.000000
     3  H    0.253131   0.000000
     4  H    0.253130   0.000000
     5  H    0.242125   0.000000
     6  H    0.242125  -0.000000
 Sum of Mulliken charges =  -0.00000  -0.00000
 Mulliken charges and spin densities with hydrogens summed into heavy atoms:
               1          2
     1  N    0.000001   0.000000
     2  N   -0.000001  -0.000000
 Electronic spatial extent (au):  <R**2>=            148.0882
 Charge=             -0.0000 electrons
 Dipole moment (field-independent basis, Debye):
    X=             -0.0000    Y=              0.5660    Z=              2.0300  Tot=              2.1074
 Quadrupole moment (field-independent basis, Debye-Ang):
   XX=             -9.1380   YY=            -13.3693   ZZ=            -13.5490
   XY=              3.6107   XZ=             -1.0067   YZ=             -0.0543
 Traceless Quadrupole moment (field-independent basis, Debye-Ang):
   XX=              2.8808   YY=             -1.3505   ZZ=             -1.5303
   XY=              3.6107   XZ=             -1.0067   YZ=             -0.0543
 Octapole moment (field-independent basis, Debye-Ang**2):
  XXX=             -0.0000  YYY=             -0.9681  ZZZ=             -0.2748  XYY=             -1.9770
  XXY=              1.3351  XXZ=              4.7887  XZZ=              1.9770  YZZ=              0.6189
  YYZ=             -0.9778  XYZ=             -3.2699
 Hexadecapole moment (field-independent basis, Debye-Ang**3):
 XXXX=           -133.1465 YYYY=            -20.5184 ZZZZ=            -21.1359 XXXY=              5.3936
 XXXZ=             -1.5038 YYYX=              0.7959 YYYZ=             -0.3873 ZZZX=              1.1752
 ZZZY=              0.2006 XXYY=            -25.0907 XXZZ=            -25.0889 YYZZ=             -7.1480
 XXYZ=              0.0005 YYXZ=             -1.0838 ZZXY=             -1.1234
 N-N= 3.163613568040D+01 E-N=-3.244940540192D+02  KE= 1.110913788247D+02
                          Isotropic Fermi Contact Couplings
        Atom                 a.u.       MegaHertz       Gauss      10(-4) cm-1
     1  N(14)             -0.00000      -0.00000      -0.00000      -0.00000
     2  N(14)             -0.00000      -0.00000      -0.00000      -0.00000
     3  H(1)              -0.00000      -0.00000      -0.00000      -0.00000
     4  H(1)               0.00000       0.00000       0.00000       0.00000
     5  H(1)              -0.00000      -0.00000      -0.00000      -0.00000
     6  H(1)               0.00000       0.00000       0.00000       0.00000
 --------------------------------------------------------
       Center         ----  Spin Dipole Couplings  ----
                      3XX-RR        3YY-RR        3ZZ-RR
 --------------------------------------------------------
     1   Atom        0.000000      0.000000      0.000000
     2   Atom        0.000000      0.000000      0.000000
     3   Atom        0.000000      0.000000      0.000000
     4   Atom        0.000000      0.000000      0.000000
     5   Atom        0.000000      0.000000      0.000000
     6   Atom        0.000000      0.000000      0.000000
 --------------------------------------------------------
                        XY            XZ            YZ
 --------------------------------------------------------
     1   Atom        0.000000      0.000000      0.000000
     2   Atom        0.000000      0.000000      0.000000
     3   Atom        0.000000      0.000000      0.000000
     4   Atom        0.000000      0.000000      0.000000
     5   Atom        0.000000      0.000000      0.000000
     6   Atom        0.000000      0.000000      0.000000
 --------------------------------------------------------


 ---------------------------------------------------------------------------------
              Anisotropic Spin Dipole Couplings in Principal Axis System
 ---------------------------------------------------------------------------------

       Atom             a.u.   MegaHertz   Gauss  10(-4) cm-1        Axes

              Baa     0.0000     0.000     0.000     0.000  1.0000  0.0000  0.0000
     1 N(14)  Bbb     0.0000     0.000     0.000     0.000 -0.0000  1.0000  0.0000
              Bcc     0.0000     0.000     0.000     0.000  0.0000  0.0000  1.0000
 
              Baa     0.0000     0.000     0.000     0.000  1.0000  0.0000  0.0000
     2 N(14)  Bbb     0.0000     0.000     0.000     0.000 -0.0000  1.0000  0.0000
              Bcc     0.0000     0.000     0.000     0.000  0.0000  0.0000  1.0000
 
              Baa     0.0000     0.000     0.000     0.000  1.0000  0.0000  0.0000
     3 H(1)   Bbb     0.0000     0.000     0.000     0.000 -0.0000  1.0000  0.0000
              Bcc     0.0000     0.000     0.000     0.000  0.0000  0.0000  1.0000
 
              Baa     0.0000     0.000     0.000     0.000  1.0000  0.0000  0.0000
     4 H(1)   Bbb     0.0000     0.000     0.000     0.000 -0.0000  1.0000  0.0000
              Bcc     0.0000     0.000     0.000     0.000  0.0000  0.0000  1.0000
 
              Baa     0.0000     0.000     0.000     0.000  1.0000  0.0000  0.0000
     5 H(1)   Bbb     0.0000     0.000     0.000     0.000 -0.0000  1.0000  0.0000
              Bcc     0.0000     0.000     0.000     0.000  0.0000  0.0000  1.0000
 
              Baa     0.0000     0.000     0.000     0.000  1.0000  0.0000  0.0000
     6 H(1)   Bbb     0.0000     0.000     0.000     0.000 -0.0000  1.0000  0.0000
              Bcc     0.0000     0.000     0.000     0.000  0.0000  0.0000  1.0000
 

 ---------------------------------------------------------------------------------

 No NMR shielding tensors so no spin-rotation constants.
 Leave Link  601 at Thu May 15 14:35:03 2025, MaxMem=   536870912 cpu:               0.8 elap:               0.1
 (Enter /home/szhao/Apps/g16/l701.exe)
 ... and contract with generalized density number  0.
 Compute integral first derivatives.
 Leave Link  701 at Thu May 15 14:35:03 2025, MaxMem=   536870912 cpu:               0.6 elap:               0.1
 (Enter /home/szhao/Apps/g16/l702.exe)
 L702 exits ... SP integral derivatives will be done elsewhere.
 Leave Link  702 at Thu May 15 14:35:03 2025, MaxMem=   536870912 cpu:               0.2 elap:               0.0
 (Enter /home/szhao/Apps/g16/l703.exe)
 Integral derivatives from FoFJK, PRISM(SPDF).
 Compute integral first derivatives, UseDBF=F ICtDFT=           0.
 Calling FoFJK, ICntrl=      2127 FMM=F ISym2X=0 I1Cent= 0 IOpClX= 1 NMat=1 NMatS=1 NMatT=0.
 FoFJK:  IHMeth= 1 ICntrl=    2127 DoSepK=F KAlg= 0 I1Cent=           0 FoldK=F
 IRaf=         0 NMat=       1 IRICut=       1 DoRegI=T DoRafI=F ISym2E= 0 IDoP0=0 IntGTp=1.
 FoFCou: FMM=F IPFlag=           0 FMFlag=      100000 FMFlg1=         800
         NFxFlg=           0 DoJE=F BraDBF=F KetDBF=F FulRan=T
         wScrn=  0.000000 ICntrl=      2127 IOpCl=  1 I1Cent=           0 NGrid=           0
         NMat0=    1 NMatS0=      1 NMatT0=    0 NMatD0=    1 NMtDS0=    0 NMtDT0=    0
 Symmetry not used in FoFCou.
 Leave Link  703 at Thu May 15 14:35:04 2025, MaxMem=   536870912 cpu:               5.4 elap:               0.7
 (Enter /home/szhao/Apps/g16/l716.exe)
 Dipole        =-2.70464703D-06 2.22674532D-01 7.98655217D-01
 -------------------------------------------------------------------
 Center     Atomic                   Forces (Hartrees/Bohr)
 Number     Number              X              Y              Z
 -------------------------------------------------------------------
      1        7          -0.000000000   -0.000000000   -0.000000000
      2        7          -0.000000000   -0.000000000   -0.000000000
      3        1           0.014966703   -0.013530808    0.008615979
      4        1          -0.014966554    0.016038689    0.000380626
      5        1           0.009883768   -0.001190950    0.013139292
      6        1          -0.009886266    0.007823560    0.010627159
 -------------------------------------------------------------------
 Cartesian Forces:  Max     0.016038689 RMS     0.009147961
 Leave Link  716 at Thu May 15 14:35:04 2025, MaxMem=   536870912 cpu:               0.2 elap:               0.0
 (Enter /home/szhao/Apps/g16/l103.exe)

 GradGradGradGradGradGradGradGradGradGradGradGradGradGradGradGradGradGrad
 Berny optimization.
 FormGI is forming the generalized inverse of G from B-inverse, IUseBI=4.
 Internal  Forces:  Max     0.038352116 RMS     0.020398689
 Search for a local minimum.
 Step number   1 out of a maximum of   30
 All quantities printed in internal units (Hartrees-Bohrs-Radians)
 RMS Force = .17006D-01 SwitMx=.10000D-02 MixMth= 1
 Mixed Optimization -- RFO/linear search
 Second derivative matrix not updated -- first step.
 The second derivative matrix:
                          X1        Y1        Z1        X2        Y2
           X1           0.50000
           Y1           0.00000   0.50000
           Z1           0.00000   0.00000   0.50000
           X2           0.00000   0.00000   0.00000   0.50000
           Y2           0.00000   0.00000   0.00000   0.00000   0.50000
           Z2           0.00000   0.00000   0.00000   0.00000   0.00000
           R1           0.00000   0.00000   0.00000   0.00000   0.00000
           R2           0.00000   0.00000   0.00000   0.00000   0.00000
           R3           0.00000   0.00000   0.00000   0.00000   0.00000
           R4           0.00000   0.00000   0.00000   0.00000   0.00000
           A1           0.00000   0.00000   0.00000   0.00000   0.00000
           A2           0.00000   0.00000   0.00000   0.00000   0.00000
           A3           0.00000   0.00000   0.00000   0.00000   0.00000
           A4           0.00000   0.00000   0.00000   0.00000   0.00000
           A5           0.00000   0.00000   0.00000   0.00000   0.00000
           A6           0.00000   0.00000   0.00000   0.00000   0.00000
           D1           0.00000   0.00000   0.00000   0.00000   0.00000
           D2           0.00000   0.00000   0.00000   0.00000   0.00000
           D3           0.00000   0.00000   0.00000   0.00000   0.00000
           D4           0.00000   0.00000   0.00000   0.00000   0.00000
                          Z2        R1        R2        R3        R4
           Z2           0.50000
           R1           0.00000   0.45670
           R2           0.00000   0.00000   0.45152
           R3           0.00000   0.00000   0.00000   0.45670
           R4           0.00000   0.00000   0.00000   0.00000   0.45153
           A1           0.00000   0.00000   0.00000   0.00000   0.00000
           A2           0.00000   0.00000   0.00000   0.00000   0.00000
           A3           0.00000   0.00000   0.00000   0.00000   0.00000
           A4           0.00000   0.00000   0.00000   0.00000   0.00000
           A5           0.00000   0.00000   0.00000   0.00000   0.00000
           A6           0.00000   0.00000   0.00000   0.00000   0.00000
           D1           0.00000   0.00000   0.00000   0.00000   0.00000
           D2           0.00000   0.00000   0.00000   0.00000   0.00000
           D3           0.00000   0.00000   0.00000   0.00000   0.00000
           D4           0.00000   0.00000   0.00000   0.00000   0.00000
                          A1        A2        A3        A4        A5
           A1           0.16000
           A2           0.00000   0.16000
           A3           0.00000   0.00000   0.16000
           A4           0.00000   0.00000   0.00000   0.16000
           A5           0.00000   0.00000   0.00000   0.00000   0.16000
           A6           0.00000   0.00000   0.00000   0.00000   0.00000
           D1           0.00000   0.00000   0.00000   0.00000   0.00000
           D2           0.00000   0.00000   0.00000   0.00000   0.00000
           D3           0.00000   0.00000   0.00000   0.00000   0.00000
           D4           0.00000   0.00000   0.00000   0.00000   0.00000
                          A6        D1        D2        D3        D4
           A6           0.16000
           D1           0.00000   0.00230
           D2           0.00000   0.00000   0.00230
           D3           0.00000   0.00000   0.00000   0.00230
           D4           0.00000   0.00000   0.00000   0.00000   0.00230
 ITU=  0
     Eigenvalues ---    0.00230   0.04857   0.04857   0.16000   0.16000
     Eigenvalues ---    0.16000   0.16000   0.45152   0.45153   0.45670
     Eigenvalues ---    0.456701000.000001000.000001000.000001000.00000
     Eigenvalues --- 1000.000001000.000001000.000001000.000001000.00000
 RFO step:  Lambda=-3.06528094D-02 EMin= 2.30000000D-03
 Linear search not attempted -- first point.
 Maximum step size (   0.300) exceeded in Quadratic search.
    -- Step size scaled by   0.819
 Iteration  1 RMS(Cart)=  0.14445970 RMS(Int)=  0.01908866
 Iteration  2 RMS(Cart)=  0.01988638 RMS(Int)=  0.01175145
 Iteration  3 RMS(Cart)=  0.00073141 RMS(Int)=  0.01174373
 Iteration  4 RMS(Cart)=  0.00002504 RMS(Int)=  0.01174372
 Iteration  5 RMS(Cart)=  0.00000086 RMS(Int)=  0.01174372
 ITry= 1 IFail=0 DXMaxC= 3.24D-01 DCOld= 1.00D+10 DXMaxT= 3.00D-01 DXLimC= 3.00D+00 Rises=F
 Variable       Old X    -DE/DX   Delta X   Delta X   Delta X     New X
                                 (Linear)    (Quad)   (Total)
    X1       -2.28948   0.02485   0.00000   0.00000   0.00000  -2.28948
    Y1        0.00000  -0.02921   0.00000   0.00000   0.00000   0.00000
    Z1        0.00000   0.02579   0.00000   0.00000   0.00000   0.00000
    X2        2.28948  -0.02485   0.00000   0.00000   0.00000   2.28948
    Y2        0.00000   0.03835   0.00000   0.00000   0.00000   0.00000
    Z2        0.00000   0.00697   0.00000   0.00000   0.00000   0.00000
    R1        1.91205   0.00818   0.00000   0.01375   0.01375   1.92580
    R2        1.91799   0.00611   0.00000   0.01037   0.01037   1.92836
    R3        1.91205   0.00818   0.00000   0.01374   0.01374   1.92579
    R4        1.91799   0.00611   0.00000   0.01037   0.01037   1.92836
    A1        1.88826  -0.03029   0.00000  -0.16721  -0.17545   1.71282
    A2        1.96802  -0.02088   0.00000  -0.12394  -0.12987   1.83814
    A3        1.89500   0.00922   0.00000  -0.02922  -0.05525   1.83975
    A4        1.88826  -0.03029   0.00000  -0.16723  -0.17547   1.71280
    A5        1.96801  -0.02089   0.00000  -0.12399  -0.12992   1.83810
    A6        1.89500   0.00921   0.00000  -0.02927  -0.05531   1.83968
    D1        2.59778   0.02248   0.00000   0.24025   0.21579   2.81358
    D2       -1.58932   0.00054   0.00000   0.01347   0.01348  -1.57583
    D3       -1.58932   0.00055   0.00000   0.01357   0.01356  -1.57575
    D4        0.50677  -0.02139   0.00000  -0.21320  -0.18875   0.31802
         Item               Value     Threshold  Converged?
 Maximum Force            0.030286     0.000450     NO 
 RMS     Force            0.017006     0.000300     NO 
 Maximum Displacement     0.324322     0.001800     NO 
 RMS     Displacement     0.156619     0.001200     NO 
 Predicted change in Energy=-1.594640D-02
 Lowest energy point so far.  Saving SCF results.
 GradGradGradGradGradGradGradGradGradGradGradGradGradGradGradGradGradGrad

 Leave Link  103 at Thu May 15 14:35:04 2025, MaxMem=   536870912 cpu:               0.0 elap:               0.0
 (Enter /home/szhao/Apps/g16/l202.exe)
                          Input orientation:                          
 ---------------------------------------------------------------------
 Center     Atomic      Atomic             Coordinates (Angstroms)
 Number     Number       Type             X           Y           Z
 ---------------------------------------------------------------------
      1          7           0       -1.211540    0.000000    0.000000
      2          7           0        1.211540    0.000000    0.000000
      3          1           0       -1.355787   -1.002626    0.111692
      4          1           0        1.355764    0.913186   -0.428750
      5          1           0       -1.481114    0.413861    0.892950
      6          1           0        1.481070    0.113893    0.977593
 ---------------------------------------------------------------------
                    Distance matrix (angstroms):
                    1          2          3          4          5
     1  N    0.000000
     2  N    2.423080   0.000000
     3  H    1.019088   2.758424   0.000000
     4  H    2.758403   1.019085   3.363766   0.000000
     5  H    1.020446   2.866884   1.622500   3.169242   0.000000
     6  H    2.866846   1.020444   3.169252   1.622458   2.978536
                    6
     6  H    0.000000
 Symmetry turned off by external request.
 Stoichiometry    H4N2
 Framework group  C1[X(H4N2)]
 Deg. of freedom    12
 Full point group                 C1      NOp   1
 Rotational constants (GHZ):         132.5142241           9.8672278           9.8551846
 Leave Link  202 at Thu May 15 14:35:04 2025, MaxMem=   536870912 cpu:               0.0 elap:               0.0
 (Enter /home/szhao/Apps/g16/l301.exe)
 Standard basis: 6-311+G(d,p) (5D, 7F)
 Ernie: Thresh=  0.10000D-02 Tol=  0.10000D-05 Strict=F.
    68 basis functions,   104 primitive gaussians,    70 cartesian basis functions
     9 alpha electrons        9 beta electrons
       nuclear repulsion energy        31.8220828185 Hartrees.
 IExCor= 4336 DFT=T Ex+Corr=M062X ExCW=0 ScaHFX=  0.540000
 ScaDFX=  1.000000  1.000000  1.000000  1.000000 ScalE2=  1.000000  1.000000
 IRadAn=      7 IRanWt=     -1 IRanGd=            0 ICorTp=0 IEmpDi=  4
 NAtoms=    6 NActive=    6 NUniq=    6 SFac= 1.00D+00 NAtFMM=   60 NAOKFM=F Big=F
 Integral buffers will be    131072 words long.
 Raffenetti 2 integral format.
 Two-electron integral symmetry is turned off.
 Leave Link  301 at Thu May 15 14:35:04 2025, MaxMem=   536870912 cpu:               0.2 elap:               0.0
 (Enter /home/szhao/Apps/g16/l302.exe)
 NPDir=0 NMtPBC=     1 NCelOv=     1 NCel=       1 NClECP=     1 NCelD=      1
         NCelK=      1 NCelE2=     1 NClLst=     1 CellRange=     0.0.
 One-electron integrals computed using PRISM.
 NBasis=    68 RedAO= T EigKep=  1.86D-03  NBF=    68
 NBsUse=    68 1.00D-06 EigRej= -1.00D+00 NBFU=    68
 Precomputing XC quadrature grid using
 IXCGrd= 4 IRadAn=           7 IRanWt=          -1 IRanGd=           0 AccXCQ= 0.00D+00.
 Generated NRdTot=       0 NPtTot=           0 NUsed=           0 NTot=          32
 NSgBfM=    70    70    70    70    70 MxSgAt=     6 MxSgA2=     6.
 Leave Link  302 at Thu May 15 14:35:04 2025, MaxMem=   536870912 cpu:               0.9 elap:               0.1
 (Enter /home/szhao/Apps/g16/l303.exe)
 DipDrv:  MaxL=1.
 Leave Link  303 at Thu May 15 14:35:04 2025, MaxMem=   536870912 cpu:               0.2 elap:               0.0
 (Enter /home/szhao/Apps/g16/l401.exe)
 Initial guess from the checkpoint file:  "opt.chk"
 B after Tr=    -0.000006    0.009079    0.032166
         Rot=    0.999932    0.001534   -0.003118   -0.011123 Ang=   1.34 deg.
 Guess basis will be translated and rotated to current coordinates.
 JPrj=2 DoOrth=T DoCkMO=T.
 Initial guess <Sx>= 0.0000 <Sy>= 0.0000 <Sz>= 0.0000 <S**2>=-0.0000 S=-0.0000
 Generating alternative initial guess.
 ExpMin= 6.39D-02 ExpMax= 6.29D+03 ExpMxC= 9.49D+02 IAcc=3 IRadAn=         5 AccDes= 0.00D+00
 Harris functional with IExCor= 1009 and IRadAn=       5 diagonalized for initial guess.
 HarFok:  IExCor= 1009 AccDes= 0.00D+00 IRadAn=         5 IDoV= 1 UseB2=F ITyADJ=14
 ICtDFT=  3500011 ScaDFX=  1.000000  1.000000  1.000000  1.000000
 FoFCou: FMM=F IPFlag=           0 FMFlag=      100000 FMFlg1=           0
         NFxFlg=           0 DoJE=T BraDBF=F KetDBF=T FulRan=T
         wScrn=  0.000000 ICntrl=       500 IOpCl=  0 I1Cent=   200000004 NGrid=           0
         NMat0=    1 NMatS0=      1 NMatT0=    0 NMatD0=    1 NMtDS0=    0 NMtDT0=    0
 Symmetry not used in FoFCou.
 Harris En= -111.688694169761    
 Leave Link  401 at Thu May 15 14:35:04 2025, MaxMem=   536870912 cpu:               1.8 elap:               0.2
 (Enter /home/szhao/Apps/g16/l502.exe)
 Keep R1 and R2 ints in memory in canonical form, NReq=12681614.
 FoFCou: FMM=F IPFlag=           0 FMFlag=           0 FMFlg1=           0
         NFxFlg=           0 DoJE=F BraDBF=F KetDBF=F FulRan=T
         wScrn=  0.000000 ICntrl=       600 IOpCl=  0 I1Cent=           0 NGrid=           0
         NMat0=    1 NMatS0=   2346 NMatT0=    0 NMatD0=    1 NMtDS0=    0 NMtDT0=    0
 Symmetry not used in FoFCou.
 Two-electron integral symmetry not used.
 UHF open shell SCF:
 Using DIIS extrapolation, IDIIS=  1040.
 NGot=   536870912 LenX=   531353794 LenY=   531348453
 Requested convergence on RMS density matrix=1.00D-08 within 128 cycles.
 Requested convergence on MAX density matrix=1.00D-06.
 Requested convergence on             energy=1.00D-06.
 No special actions if energy rises.
 Integral accuracy reduced to 1.0D-05 until final iterations.

 Cycle   1  Pass 0  IDiag  1:
 E= -111.703460784494    
 DIIS: error= 1.17D-02 at cycle   1 NSaved=   1.
 NSaved= 1 IEnMin= 1 EnMin= -111.703460784494     IErMin= 1 ErrMin= 1.17D-02
 ErrMax= 1.17D-02  0.00D+00 EMaxC= 1.00D-01 BMatC= 2.81D-02 BMatP= 2.81D-02
 IDIUse=3 WtCom= 8.83D-01 WtEn= 1.17D-01
 Coeff-Com:  0.100D+01
 Coeff-En:   0.100D+01
 Coeff:      0.100D+01
 Recover alternate guess density for next cycle.
 RMSDP=2.87D-03 MaxDP=2.23D-02              OVMax= 0.00D+00

 Cycle   2  Pass 0  IDiag  1:
 E= -111.666211262165     Delta-E=        0.037249522329 Rises=F Damp=F
 Switch densities from cycles 1 and 2 for lowest energy.
 DIIS: error= 3.04D-02 at cycle   2 NSaved=   2.
 NSaved= 2 IEnMin= 1 EnMin= -111.703460784494     IErMin= 1 ErrMin= 1.17D-02
 ErrMax= 3.04D-02  0.00D+00 EMaxC= 1.00D+00 BMatC= 2.92D-01 BMatP= 2.81D-02
 IDIUse=1 WtCom= 1.00D+00 WtEn= 0.00D+00
 Coeff-Com:  0.943D+00 0.575D-01
 Coeff:      0.943D+00 0.575D-01
 Gap=     0.217 Goal=   None    Shift=    0.000
 Gap=     0.217 Goal=   None    Shift=    0.000
 RMSDP=2.39D-03 MaxDP=2.10D-02 DE= 3.72D-02 OVMax= 7.30D-02

 Cycle   3  Pass 0  IDiag  1:
 E= -111.713557383953     Delta-E=       -0.047346121788 Rises=F Damp=F
 DIIS: error= 2.78D-03 at cycle   3 NSaved=   3.
 NSaved= 3 IEnMin= 3 EnMin= -111.713557383953     IErMin= 3 ErrMin= 2.78D-03
 ErrMax= 2.78D-03  0.00D+00 EMaxC= 1.00D+00 BMatC= 2.50D-03 BMatP= 2.81D-02
 IDIUse=1 WtCom= 1.00D+00 WtEn= 0.00D+00
 Coeff-Com: -0.963D-01 0.738D-01 0.102D+01
 Coeff:     -0.963D-01 0.738D-01 0.102D+01
 Gap=     0.214 Goal=   None    Shift=    0.000
 Gap=     0.214 Goal=   None    Shift=    0.000
 RMSDP=5.57D-04 MaxDP=5.11D-03 DE=-4.73D-02 OVMax= 2.75D-02

 Cycle   4  Pass 0  IDiag  1:
 E= -111.714722061142     Delta-E=       -0.001164677189 Rises=F Damp=F
 DIIS: error= 1.22D-03 at cycle   4 NSaved=   4.
 NSaved= 4 IEnMin= 4 EnMin= -111.714722061142     IErMin= 4 ErrMin= 1.22D-03
 ErrMax= 1.22D-03  0.00D+00 EMaxC= 1.00D+00 BMatC= 1.87D-04 BMatP= 2.50D-03
 IDIUse=1 WtCom= 1.00D+00 WtEn= 0.00D+00
 Coeff-Com: -0.308D-01-0.401D-02 0.132D+00 0.903D+00
 Coeff:     -0.308D-01-0.401D-02 0.132D+00 0.903D+00
 Gap=     0.215 Goal=   None    Shift=    0.000
 Gap=     0.215 Goal=   None    Shift=    0.000
 RMSDP=1.68D-04 MaxDP=9.87D-04 DE=-1.16D-03 OVMax= 1.07D-02

 Cycle   5  Pass 0  IDiag  1:
 E= -111.714863847955     Delta-E=       -0.000141786814 Rises=F Damp=F
 DIIS: error= 5.23D-04 at cycle   5 NSaved=   5.
 NSaved= 5 IEnMin= 5 EnMin= -111.714863847955     IErMin= 5 ErrMin= 5.23D-04
 ErrMax= 5.23D-04  0.00D+00 EMaxC= 1.00D+00 BMatC= 2.75D-05 BMatP= 1.87D-04
 IDIUse=1 WtCom= 1.00D+00 WtEn= 0.00D+00
 Coeff-Com:  0.165D-01-0.649D-03-0.162D+00-0.459D+00 0.161D+01
 Coeff:      0.165D-01-0.649D-03-0.162D+00-0.459D+00 0.161D+01
 Gap=     0.216 Goal=   None    Shift=    0.000
 Gap=     0.216 Goal=   None    Shift=    0.000
 RMSDP=1.63D-04 MaxDP=9.32D-04 DE=-1.42D-04 OVMax= 1.18D-02

 Cycle   6  Pass 0  IDiag  1:
 E= -111.714921002645     Delta-E=       -0.000057154690 Rises=F Damp=F
 DIIS: error= 1.09D-04 at cycle   6 NSaved=   6.
 NSaved= 6 IEnMin= 6 EnMin= -111.714921002645     IErMin= 6 ErrMin= 1.09D-04
 ErrMax= 1.09D-04  0.00D+00 EMaxC= 1.00D+00 BMatC= 1.63D-06 BMatP= 2.75D-05
 IDIUse=1 WtCom= 1.00D+00 WtEn= 0.00D+00
 Coeff-Com:  0.240D-02 0.481D-03-0.132D-02-0.833D-01 0.628D-02 0.108D+01
 Coeff:      0.240D-02 0.481D-03-0.132D-02-0.833D-01 0.628D-02 0.108D+01
 Gap=     0.217 Goal=   None    Shift=    0.000
 Gap=     0.217 Goal=   None    Shift=    0.000
 RMSDP=3.17D-05 MaxDP=2.50D-04 DE=-5.72D-05 OVMax= 2.23D-03

 Cycle   7  Pass 0  IDiag  1:
 E= -111.714923436216     Delta-E=       -0.000002433571 Rises=F Damp=F
 DIIS: error= 3.47D-05 at cycle   7 NSaved=   7.
 NSaved= 7 IEnMin= 7 EnMin= -111.714923436216     IErMin= 7 ErrMin= 3.47D-05
 ErrMax= 3.47D-05  0.00D+00 EMaxC= 1.00D+00 BMatC= 2.65D-07 BMatP= 1.63D-06
 IDIUse=1 WtCom= 1.00D+00 WtEn= 0.00D+00
 Coeff-Com: -0.776D-03 0.183D-03 0.123D-01 0.122D-01-0.135D+00 0.205D+00
 Coeff-Com:  0.905D+00
 Coeff:     -0.776D-03 0.183D-03 0.123D-01 0.122D-01-0.135D+00 0.205D+00
 Coeff:      0.905D+00
 Gap=     0.217 Goal=   None    Shift=    0.000
 Gap=     0.217 Goal=   None    Shift=    0.000
 RMSDP=1.21D-05 MaxDP=1.06D-04 DE=-2.43D-06 OVMax= 6.38D-04

 Cycle   8  Pass 0  IDiag  1:
 E= -111.714923475057     Delta-E=       -0.000000038841 Rises=F Damp=F
 DIIS: error= 8.19D-05 at cycle   8 NSaved=   8.
 NSaved= 8 IEnMin= 8 EnMin= -111.714923475057     IErMin= 7 ErrMin= 3.47D-05
 ErrMax= 8.19D-05  0.00D+00 EMaxC= 1.00D+00 BMatC= 6.99D-07 BMatP= 2.65D-07
 IDIUse=1 WtCom= 1.00D+00 WtEn= 0.00D+00
 Coeff-Com: -0.985D-03 0.736D-04 0.101D-01 0.221D-01-0.109D+00-0.374D-03
 Coeff-Com:  0.748D+00 0.330D+00
 Coeff:     -0.985D-03 0.736D-04 0.101D-01 0.221D-01-0.109D+00-0.374D-03
 Coeff:      0.748D+00 0.330D+00
 Gap=     0.217 Goal=   None    Shift=    0.000
 Gap=     0.217 Goal=   None    Shift=    0.000
 RMSDP=3.92D-06 MaxDP=5.21D-05 DE=-3.88D-08 OVMax= 2.58D-04

 Initial convergence to 1.0D-05 achieved.  Increase integral accuracy.
 Cycle   9  Pass 1  IDiag  1:
 E= -111.714920831422     Delta-E=        0.000002643635 Rises=F Damp=F
 DIIS: error= 3.59D-06 at cycle   1 NSaved=   1.
 NSaved= 1 IEnMin= 1 EnMin= -111.714920831422     IErMin= 1 ErrMin= 3.59D-06
 ErrMax= 3.59D-06  0.00D+00 EMaxC= 1.00D+00 BMatC= 5.05D-09 BMatP= 5.05D-09
 IDIUse=1 WtCom= 1.00D+00 WtEn= 0.00D+00
 Coeff-Com:  0.100D+01
 Coeff:      0.100D+01
 Gap=     0.217 Goal=   None    Shift=    0.000
 Gap=     0.217 Goal=   None    Shift=    0.000
 RMSDP=3.92D-06 MaxDP=5.21D-05 DE= 2.64D-06 OVMax= 4.55D-05

 Cycle  10  Pass 1  IDiag  1:
 E= -111.714920830415     Delta-E=        0.000000001007 Rises=F Damp=F
 DIIS: error= 9.88D-06 at cycle   2 NSaved=   2.
 NSaved= 2 IEnMin= 1 EnMin= -111.714920831422     IErMin= 1 ErrMin= 3.59D-06
 ErrMax= 9.88D-06  0.00D+00 EMaxC= 1.00D+00 BMatC= 1.06D-08 BMatP= 5.05D-09
 IDIUse=1 WtCom= 1.00D+00 WtEn= 0.00D+00
 Coeff-Com:  0.619D+00 0.381D+00
 Coeff:      0.619D+00 0.381D+00
 Gap=     0.217 Goal=   None    Shift=    0.000
 Gap=     0.217 Goal=   None    Shift=    0.000
 RMSDP=5.57D-07 MaxDP=8.76D-06 DE= 1.01D-09 OVMax= 4.36D-05

 Cycle  11  Pass 1  IDiag  1:
 E= -111.714920832532     Delta-E=       -0.000000002117 Rises=F Damp=F
 DIIS: error= 4.68D-06 at cycle   3 NSaved=   3.
 NSaved= 3 IEnMin= 3 EnMin= -111.714920832532     IErMin= 1 ErrMin= 3.59D-06
 ErrMax= 4.68D-06  0.00D+00 EMaxC= 1.00D+00 BMatC= 2.29D-09 BMatP= 5.05D-09
 IDIUse=1 WtCom= 1.00D+00 WtEn= 0.00D+00
 Coeff-Com:  0.693D-01 0.307D+00 0.624D+00
 Coeff:      0.693D-01 0.307D+00 0.624D+00
 Gap=     0.217 Goal=   None    Shift=    0.000
 Gap=     0.217 Goal=   None    Shift=    0.000
 RMSDP=2.48D-07 MaxDP=3.03D-06 DE=-2.12D-09 OVMax= 1.49D-05

 Cycle  12  Pass 1  IDiag  1:
 E= -111.714920833138     Delta-E=       -0.000000000605 Rises=F Damp=F
 DIIS: error= 3.36D-07 at cycle   4 NSaved=   4.
 NSaved= 4 IEnMin= 4 EnMin= -111.714920833138     IErMin= 4 ErrMin= 3.36D-07
 ErrMax= 3.36D-07  0.00D+00 EMaxC= 1.00D+00 BMatC= 3.59D-11 BMatP= 2.29D-09
 IDIUse=1 WtCom= 1.00D+00 WtEn= 0.00D+00
 Coeff-Com: -0.460D-01 0.374D-01 0.149D+00 0.859D+00
 Coeff:     -0.460D-01 0.374D-01 0.149D+00 0.859D+00
 Gap=     0.217 Goal=   None    Shift=    0.000
 Gap=     0.217 Goal=   None    Shift=    0.000
 RMSDP=6.02D-08 MaxDP=6.82D-07 DE=-6.05D-10 OVMax= 1.97D-06

 Cycle  13  Pass 1  IDiag  1:
 E= -111.714920833152     Delta-E=       -0.000000000014 Rises=F Damp=F
 DIIS: error= 1.29D-07 at cycle   5 NSaved=   5.
 NSaved= 5 IEnMin= 5 EnMin= -111.714920833152     IErMin= 5 ErrMin= 1.29D-07
 ErrMax= 1.29D-07  0.00D+00 EMaxC= 1.00D+00 BMatC= 4.05D-12 BMatP= 3.59D-11
 IDIUse=1 WtCom= 1.00D+00 WtEn= 0.00D+00
 Coeff-Com: -0.244D-01-0.929D-02 0.626D-02 0.262D+00 0.765D+00
 Coeff:     -0.244D-01-0.929D-02 0.626D-02 0.262D+00 0.765D+00
 Gap=     0.217 Goal=   None    Shift=    0.000
 Gap=     0.217 Goal=   None    Shift=    0.000
 RMSDP=1.95D-08 MaxDP=3.23D-07 DE=-1.39D-11 OVMax= 6.93D-07

 Cycle  14  Pass 1  IDiag  1:
 E= -111.714920833154     Delta-E=       -0.000000000002 Rises=F Damp=F
 DIIS: error= 4.98D-08 at cycle   6 NSaved=   6.
 NSaved= 6 IEnMin= 6 EnMin= -111.714920833154     IErMin= 6 ErrMin= 4.98D-08
 ErrMax= 4.98D-08  0.00D+00 EMaxC= 1.00D+00 BMatC= 5.16D-13 BMatP= 4.05D-12
 IDIUse=1 WtCom= 1.00D+00 WtEn= 0.00D+00
 Coeff-Com:  0.320D-02-0.290D-02-0.146D-01-0.116D+00 0.161D+00 0.969D+00
 Coeff:      0.320D-02-0.290D-02-0.146D-01-0.116D+00 0.161D+00 0.969D+00
 Gap=     0.217 Goal=   None    Shift=    0.000
 Gap=     0.217 Goal=   None    Shift=    0.000
 RMSDP=7.94D-09 MaxDP=6.70D-08 DE=-1.82D-12 OVMax= 4.32D-07

 SCF Done:  E(UM062X) =  -111.714920833     A.U. after   14 cycles
            NFock= 14  Conv=0.79D-08     -V/T= 2.0058
 <Sx>= 0.0000 <Sy>= 0.0000 <Sz>= 0.0000 <S**2>=-0.0000 S=-0.0000
 <L.S>=  0.00000000000    
 KE= 1.110761931515D+02 PE=-3.248187849548D+02 EE= 7.020558815171D+01
 Annihilation of the first spin contaminant:
 S**2 before annihilation    -0.0000,   after    -0.0000
 Leave Link  502 at Thu May 15 14:35:08 2025, MaxMem=   536870912 cpu:              28.9 elap:               3.7
 (Enter /home/szhao/Apps/g16/l701.exe)
 ... and contract with generalized density number  0.
 Compute integral first derivatives.
 Leave Link  701 at Thu May 15 14:35:08 2025, MaxMem=   536870912 cpu:               0.6 elap:               0.1
 (Enter /home/szhao/Apps/g16/l702.exe)
 L702 exits ... SP integral derivatives will be done elsewhere.
 Leave Link  702 at Thu May 15 14:35:08 2025, MaxMem=   536870912 cpu:               0.2 elap:               0.0
 (Enter /home/szhao/Apps/g16/l703.exe)
 Integral derivatives from FoFJK, PRISM(SPDF).
 Compute integral first derivatives, UseDBF=F ICtDFT=           0.
 Calling FoFJK, ICntrl=      2127 FMM=F ISym2X=0 I1Cent= 0 IOpClX= 1 NMat=1 NMatS=1 NMatT=0.
 FoFJK:  IHMeth= 1 ICntrl=    2127 DoSepK=F KAlg= 0 I1Cent=           0 FoldK=F
 IRaf=         0 NMat=       1 IRICut=       1 DoRegI=T DoRafI=F ISym2E= 0 IDoP0=0 IntGTp=1.
 FoFCou: FMM=F IPFlag=           0 FMFlag=      100000 FMFlg1=         800
         NFxFlg=           0 DoJE=F BraDBF=F KetDBF=F FulRan=T
         wScrn=  0.000000 ICntrl=      2127 IOpCl=  1 I1Cent=           0 NGrid=           0
         NMat0=    1 NMatS0=      1 NMatT0=    0 NMatD0=    1 NMtDS0=    0 NMtDT0=    0
 Symmetry not used in FoFCou.
 Leave Link  703 at Thu May 15 14:35:09 2025, MaxMem=   536870912 cpu:               5.7 elap:               0.7
 (Enter /home/szhao/Apps/g16/l716.exe)
 Dipole        =-1.55038587D-05 2.68008091D-01 9.49903783D-01
 -------------------------------------------------------------------
 Center     Atomic                   Forces (Hartrees/Bohr)
 Number     Number              X              Y              Z
 -------------------------------------------------------------------
      1        7          -0.000000000   -0.000000000   -0.000000000
      2        7          -0.000000000   -0.000000000   -0.000000000
      3        1           0.010142369   -0.005010358    0.001898947
      4        1          -0.010144588    0.005266562   -0.001010589
      5        1           0.007737768    0.000634923    0.006394594
      6        1          -0.007731225    0.002791326    0.005788041
 -------------------------------------------------------------------
 Cartesian Forces:  Max     0.010144588 RMS     0.005085271
 Leave Link  716 at Thu May 15 14:35:09 2025, MaxMem=   536870912 cpu:               0.2 elap:               0.0
 (Enter /home/szhao/Apps/g16/l103.exe)

 GradGradGradGradGradGradGradGradGradGradGradGradGradGradGradGradGradGrad
 Berny optimization.
 Using GEDIIS/GDIIS optimizer.
 FormGI is forming the generalized inverse of G from B-inverse, IUseBI=4.
 Internal  Forces:  Max     0.019587307 RMS     0.011526677
 Search for a local minimum.
 Step number   2 out of a maximum of   30
 All quantities printed in internal units (Hartrees-Bohrs-Radians)
 RMS Force = .10332D-01 SwitMx=.10000D-02 MixMth= 1
 Mixed Optimization -- RFO/linear search
 Update second derivatives using D2CorX and points    1    2
 DE= -1.96D-02 DEPred=-1.59D-02 R= 1.23D+00
 TightC=F SS=  1.41D+00  RLast= 4.30D-01 DXNew= 5.0454D-01 1.2889D+00
 Trust test= 1.23D+00 RLast= 4.30D-01 DXMaxT set to 5.05D-01
 The second derivative matrix:
                          X1        Y1        Z1        X2        Y2
           X1           0.50457
           Y1          -0.01109   0.52693
           Z1           0.01001  -0.02429   0.52191
           X2          -0.00457   0.01110  -0.01001   0.50458
           Y2           0.01467  -0.03562   0.03213  -0.01468   0.54711
           Z2           0.00290  -0.00705   0.00636  -0.00291   0.00932
           R1           0.00294  -0.00713   0.00643  -0.00294   0.00943
           R2           0.00151  -0.00366   0.00330  -0.00151   0.00484
           R3           0.00293  -0.00712   0.00642  -0.00293   0.00941
           R4           0.00150  -0.00365   0.00329  -0.00150   0.00483
           A1          -0.00702   0.01703  -0.01536   0.00702  -0.02253
           A2          -0.00278   0.00675  -0.00608   0.00278  -0.00892
           A3           0.00362  -0.00880   0.00793  -0.00363   0.01163
           A4          -0.00701   0.01703  -0.01536   0.00702  -0.02252
           A5          -0.00279   0.00678  -0.00611   0.00279  -0.00896
           A6           0.00362  -0.00878   0.00792  -0.00362   0.01161
           D1           0.01058  -0.02568   0.02316  -0.01059   0.03396
           D2           0.00058  -0.00140   0.00126  -0.00058   0.00185
           D3           0.00059  -0.00144   0.00129  -0.00059   0.00190
           D4          -0.00941   0.02284  -0.02060   0.00942  -0.03021
                          Z2        R1        R2        R3        R4
           Z2           0.50184
           R1           0.00187   0.45623
           R2           0.00096  -0.00079   0.45071
           R3           0.00186  -0.00048  -0.00079   0.45622
           R4           0.00095  -0.00080  -0.00082  -0.00080   0.45071
           A1          -0.00446   0.00605   0.00556   0.00606   0.00557
           A2          -0.00177   0.00603   0.00492   0.00603   0.00492
           A3           0.00230   0.00565   0.00368   0.00565   0.00367
           A4          -0.00446   0.00605   0.00557   0.00606   0.00557
           A5          -0.00177   0.00603   0.00491   0.00603   0.00491
           A6           0.00230   0.00565   0.00368   0.00565   0.00367
           D1           0.00672   0.00661   0.00335   0.00660   0.00334
           D2           0.00037   0.00036   0.00018   0.00036   0.00018
           D3           0.00038   0.00037   0.00019   0.00037   0.00019
           D4          -0.00598  -0.00588  -0.00298  -0.00587  -0.00297
                          A1        A2        A3        A4        A5
           A1           0.12355
           A2          -0.03069   0.13582
           A3          -0.02043  -0.01321   0.15819
           A4          -0.03646  -0.03069  -0.02043   0.12353
           A5          -0.03068  -0.02419  -0.01322  -0.03069   0.13581
           A6          -0.02044  -0.01322  -0.00182  -0.02044  -0.01323
           D1          -0.01540  -0.00581   0.00865  -0.01540  -0.00584
           D2          -0.00083  -0.00031   0.00047  -0.00083  -0.00031
           D3          -0.00086  -0.00032   0.00049  -0.00085  -0.00032
           D4           0.01371   0.00518  -0.00769   0.01371   0.00521
                          A6        D1        D2        D3        D4
           A6           0.15817
           D1           0.00863   0.02677
           D2           0.00047   0.00134   0.00237
           D3           0.00048   0.00137   0.00007   0.00238
           D4          -0.00768  -0.02176  -0.00119  -0.00122   0.02166
 ITU=  1  0
 Use linear search instead of GDIIS.
     Eigenvalues ---    0.00231   0.05012   0.07069   0.10274   0.16000
     Eigenvalues ---    0.16000   0.16249   0.45001   0.45152   0.45638
     Eigenvalues ---    0.456701000.000001000.000001000.000001000.00000
     Eigenvalues --- 1000.000001000.000001000.000001000.000001000.00000
 RFO step:  Lambda=-4.44216016D-03 EMin= 2.31150390D-03
 Quartic linear search produced a step of  0.73103.
 Iteration  1 RMS(Cart)=  0.17470966 RMS(Int)=  0.03558912
 Iteration  2 RMS(Cart)=  0.03017660 RMS(Int)=  0.01953433
 Iteration  3 RMS(Cart)=  0.00080954 RMS(Int)=  0.01952339
 Iteration  4 RMS(Cart)=  0.00003116 RMS(Int)=  0.01952339
 Iteration  5 RMS(Cart)=  0.00000174 RMS(Int)=  0.01952339
 Iteration  6 RMS(Cart)=  0.00000010 RMS(Int)=  0.01952339
 ITry= 1 IFail=0 DXMaxC= 3.81D-01 DCOld= 1.00D+10 DXMaxT= 5.05D-01 DXLimC= 3.00D+00 Rises=F
 Variable       Old X    -DE/DX   Delta X   Delta X   Delta X     New X
                                 (Linear)    (Quad)   (Total)
    X1       -2.28948   0.01788   0.00000   0.00000   0.00000  -2.28948
    Y1        0.00000  -0.01229   0.00000   0.00000   0.00000   0.00000
    Z1        0.00000   0.01053   0.00000   0.00000   0.00000   0.00000
    X2        2.28948  -0.01788   0.00000   0.00000   0.00000   2.28948
    Y2        0.00000   0.01597   0.00000   0.00000   0.00000   0.00000
    Z2        0.00000   0.00254   0.00000   0.00000   0.00000   0.00000
    R1        1.92580   0.00370   0.01005   0.00372   0.01377   1.93957
    R2        1.92836   0.00381   0.00758   0.00704   0.01462   1.94298
    R3        1.92579   0.00371   0.01005   0.00375   0.01380   1.93959
    R4        1.92836   0.00381   0.00758   0.00706   0.01464   1.94300
    A1        1.71282  -0.01958  -0.12826  -0.06589  -0.19770   1.51511
    A2        1.83814  -0.01664  -0.09494  -0.08132  -0.17478   1.66336
    A3        1.83975   0.00369  -0.04039   0.06507  -0.01901   1.82074
    A4        1.71280  -0.01959  -0.12827  -0.06589  -0.19771   1.51508
    A5        1.83810  -0.01663  -0.09497  -0.08112  -0.17461   1.66349
    A6        1.83968   0.00370  -0.04044   0.06535  -0.01875   1.82094
    D1        2.81358   0.00635   0.15775  -0.25342  -0.13913   2.67445
    D2       -1.57583  -0.00034   0.00986  -0.22566  -0.21582  -1.79165
    D3       -1.57575  -0.00035   0.00992  -0.22602  -0.21609  -1.79184
    D4        0.31802  -0.00704  -0.13798  -0.19826  -0.29278   0.02524
         Item               Value     Threshold  Converged?
 Maximum Force            0.019587     0.000450     NO 
 RMS     Force            0.010332     0.000300     NO 
 Maximum Displacement     0.380549     0.001800     NO 
 RMS     Displacement     0.188368     0.001200     NO 
 Predicted change in Energy=-1.174286D-02
 Lowest energy point so far.  Saving SCF results.
 GradGradGradGradGradGradGradGradGradGradGradGradGradGradGradGradGradGrad

 Leave Link  103 at Thu May 15 14:35:09 2025, MaxMem=   536870912 cpu:               0.0 elap:               0.0
 (Enter /home/szhao/Apps/g16/l202.exe)
                          Input orientation:                          
 ---------------------------------------------------------------------
 Center     Atomic      Atomic             Coordinates (Angstroms)
 Number     Number       Type             X           Y           Z
 ---------------------------------------------------------------------
      1          7           0       -1.211540    0.000000    0.000000
      2          7           0        1.211540    0.000000    0.000000
      3          1           0       -1.154419   -1.023860    0.043502
      4          1           0        1.154387    0.894579   -0.499931
      5          1           0       -1.306581    0.291342    0.981450
      6          1           0        1.306708    0.266475    0.988489
 ---------------------------------------------------------------------
                    Distance matrix (angstroms):
                    1          2          3          4          5
     1  N    0.000000
     2  N    2.423080   0.000000
     3  H    1.026375   2.578361   0.000000
     4  H    2.578335   1.026387   3.050625   0.000000
     5  H    1.028181   2.718282   1.622547   2.935088   0.000000
     6  H    2.718399   1.028191   2.935151   1.622686   2.613416
                    6
     6  H    0.000000
 Symmetry turned off by external request.
 Stoichiometry    H4N2
 Framework group  C1[X(H4N2)]
 Deg. of freedom    12
 Full point group                 C1      NOp   1
 Rotational constants (GHZ):         125.2238347          10.2636903          10.2100424
 Leave Link  202 at Thu May 15 14:35:09 2025, MaxMem=   536870912 cpu:               0.0 elap:               0.0
 (Enter /home/szhao/Apps/g16/l301.exe)
 Standard basis: 6-311+G(d,p) (5D, 7F)
 Ernie: Thresh=  0.10000D-02 Tol=  0.10000D-05 Strict=F.
    68 basis functions,   104 primitive gaussians,    70 cartesian basis functions
     9 alpha electrons        9 beta electrons
       nuclear repulsion energy        32.1120756447 Hartrees.
 IExCor= 4336 DFT=T Ex+Corr=M062X ExCW=0 ScaHFX=  0.540000
 ScaDFX=  1.000000  1.000000  1.000000  1.000000 ScalE2=  1.000000  1.000000
 IRadAn=      7 IRanWt=     -1 IRanGd=            0 ICorTp=0 IEmpDi=  4
 NAtoms=    6 NActive=    6 NUniq=    6 SFac= 1.00D+00 NAtFMM=   60 NAOKFM=F Big=F
 Integral buffers will be    131072 words long.
 Raffenetti 2 integral format.
 Two-electron integral symmetry is turned off.
 Leave Link  301 at Thu May 15 14:35:09 2025, MaxMem=   536870912 cpu:               0.3 elap:               0.0
 (Enter /home/szhao/Apps/g16/l302.exe)
 NPDir=0 NMtPBC=     1 NCelOv=     1 NCel=       1 NClECP=     1 NCelD=      1
         NCelK=      1 NCelE2=     1 NClLst=     1 CellRange=     0.0.
 One-electron integrals computed using PRISM.
 NBasis=    68 RedAO= T EigKep=  1.50D-03  NBF=    68
 NBsUse=    68 1.00D-06 EigRej= -1.00D+00 NBFU=    68
 Precomputing XC quadrature grid using
 IXCGrd= 4 IRadAn=           7 IRanWt=          -1 IRanGd=           0 AccXCQ= 0.00D+00.
 Generated NRdTot=       0 NPtTot=           0 NUsed=           0 NTot=          32
 NSgBfM=    70    70    70    70    70 MxSgAt=     6 MxSgA2=     6.
 Leave Link  302 at Thu May 15 14:35:09 2025, MaxMem=   536870912 cpu:               0.9 elap:               0.1
 (Enter /home/szhao/Apps/g16/l303.exe)
 DipDrv:  MaxL=1.
 Leave Link  303 at Thu May 15 14:35:09 2025, MaxMem=   536870912 cpu:               0.3 elap:               0.0
 (Enter /home/szhao/Apps/g16/l401.exe)
 Initial guess from the checkpoint file:  "opt.chk"
 B after Tr=     0.000015   -0.001192   -0.004150
         Rot=    0.999914    0.000507   -0.003570   -0.012608 Ang=   1.50 deg.
 Guess basis will be translated and rotated to current coordinates.
 JPrj=2 DoOrth=T DoCkMO=T.
 Initial guess <Sx>= 0.0000 <Sy>= 0.0000 <Sz>= 0.0000 <S**2>=-0.0000 S=-0.0000
 Generating alternative initial guess.
 ExpMin= 6.39D-02 ExpMax= 6.29D+03 ExpMxC= 9.49D+02 IAcc=3 IRadAn=         5 AccDes= 0.00D+00
 Harris functional with IExCor= 1009 and IRadAn=       5 diagonalized for initial guess.
 HarFok:  IExCor= 1009 AccDes= 0.00D+00 IRadAn=         5 IDoV= 1 UseB2=F ITyADJ=14
 ICtDFT=  3500011 ScaDFX=  1.000000  1.000000  1.000000  1.000000
 FoFCou: FMM=F IPFlag=           0 FMFlag=      100000 FMFlg1=           0
         NFxFlg=           0 DoJE=T BraDBF=F KetDBF=T FulRan=T
         wScrn=  0.000000 ICntrl=       500 IOpCl=  0 I1Cent=   200000004 NGrid=           0
         NMat0=    1 NMatS0=      1 NMatT0=    0 NMatD0=    1 NMtDS0=    0 NMtDT0=    0
 Symmetry not used in FoFCou.
 Harris En= -111.693916115286    
 Leave Link  401 at Thu May 15 14:35:09 2025, MaxMem=   536870912 cpu:               1.6 elap:               0.2
 (Enter /home/szhao/Apps/g16/l502.exe)
 Keep R1 and R2 ints in memory in canonical form, NReq=12681614.
 FoFCou: FMM=F IPFlag=           0 FMFlag=           0 FMFlg1=           0
         NFxFlg=           0 DoJE=F BraDBF=F KetDBF=F FulRan=T
         wScrn=  0.000000 ICntrl=       600 IOpCl=  0 I1Cent=           0 NGrid=           0
         NMat0=    1 NMatS0=   2346 NMatT0=    0 NMatD0=    1 NMtDS0=    0 NMtDT0=    0
 Symmetry not used in FoFCou.
 Two-electron integral symmetry not used.
 UHF open shell SCF:
 Using DIIS extrapolation, IDIIS=  1040.
 NGot=   536870912 LenX=   531353794 LenY=   531348453
 Requested convergence on RMS density matrix=1.00D-08 within 128 cycles.
 Requested convergence on MAX density matrix=1.00D-06.
 Requested convergence on             energy=1.00D-06.
 No special actions if energy rises.
 Integral accuracy reduced to 1.0D-05 until final iterations.

 Cycle   1  Pass 0  IDiag  1:
 E= -111.706255687048    
 DIIS: error= 1.30D-02 at cycle   1 NSaved=   1.
 NSaved= 1 IEnMin= 1 EnMin= -111.706255687048     IErMin= 1 ErrMin= 1.30D-02
 ErrMax= 1.30D-02  0.00D+00 EMaxC= 1.00D-01 BMatC= 4.27D-02 BMatP= 4.27D-02
 IDIUse=3 WtCom= 8.70D-01 WtEn= 1.30D-01
 Coeff-Com:  0.100D+01
 Coeff-En:   0.100D+01
 Coeff:      0.100D+01
 Recover alternate guess density for next cycle.
 RMSDP=3.37D-03 MaxDP=1.94D-02              OVMax= 0.00D+00

 Cycle   2  Pass 0  IDiag  1:
 E= -111.678920769804     Delta-E=        0.027334917245 Rises=F Damp=F
 Switch densities from cycles 1 and 2 for lowest energy.
 DIIS: error= 3.51D-02 at cycle   2 NSaved=   2.
 NSaved= 2 IEnMin= 1 EnMin= -111.706255687048     IErMin= 1 ErrMin= 1.30D-02
 ErrMax= 3.51D-02  0.00D+00 EMaxC= 1.00D+00 BMatC= 2.75D-01 BMatP= 4.27D-02
 IDIUse=1 WtCom= 1.00D+00 WtEn= 0.00D+00
 Coeff-Com:  0.903D+00 0.974D-01
 Coeff:      0.903D+00 0.974D-01
 Gap=     0.230 Goal=   None    Shift=    0.000
 Gap=     0.230 Goal=   None    Shift=    0.000
 RMSDP=1.79D-03 MaxDP=1.07D-02 DE= 2.73D-02 OVMax= 6.92D-02

 Cycle   3  Pass 0  IDiag  1:
 E= -111.721649941592     Delta-E=       -0.042729171789 Rises=F Damp=F
 DIIS: error= 4.63D-03 at cycle   3 NSaved=   3.
 NSaved= 3 IEnMin= 3 EnMin= -111.721649941592     IErMin= 3 ErrMin= 4.63D-03
 ErrMax= 4.63D-03  0.00D+00 EMaxC= 1.00D+00 BMatC= 5.42D-03 BMatP= 4.27D-02
 IDIUse=1 WtCom= 1.00D+00 WtEn= 0.00D+00
 Coeff-Com: -0.743D-01 0.111D+00 0.964D+00
 Coeff:     -0.743D-01 0.111D+00 0.964D+00
 Gap=     0.227 Goal=   None    Shift=    0.000
 Gap=     0.227 Goal=   None    Shift=    0.000
 RMSDP=6.63D-04 MaxDP=7.20D-03 DE=-4.27D-02 OVMax= 2.84D-02

 Cycle   4  Pass 0  IDiag  1:
 E= -111.723471219572     Delta-E=       -0.001821277980 Rises=F Damp=F
 DIIS: error= 1.18D-03 at cycle   4 NSaved=   4.
 NSaved= 4 IEnMin= 4 EnMin= -111.723471219572     IErMin= 4 ErrMin= 1.18D-03
 ErrMax= 1.18D-03  0.00D+00 EMaxC= 1.00D+00 BMatC= 3.40D-04 BMatP= 5.42D-03
 IDIUse=1 WtCom= 1.00D+00 WtEn= 0.00D+00
 Coeff-Com: -0.349D-01-0.248D-02 0.164D+00 0.873D+00
 Coeff:     -0.349D-01-0.248D-02 0.164D+00 0.873D+00
 Gap=     0.228 Goal=   None    Shift=    0.000
 Gap=     0.228 Goal=   None    Shift=    0.000
 RMSDP=1.50D-04 MaxDP=1.33D-03 DE=-1.82D-03 OVMax= 9.55D-03

 Cycle   5  Pass 0  IDiag  1:
 E= -111.723629962432     Delta-E=       -0.000158742860 Rises=F Damp=F
 DIIS: error= 4.49D-04 at cycle   5 NSaved=   5.
 NSaved= 5 IEnMin= 5 EnMin= -111.723629962432     IErMin= 5 ErrMin= 4.49D-04
 ErrMax= 4.49D-04  0.00D+00 EMaxC= 1.00D+00 BMatC= 2.47D-05 BMatP= 3.40D-04
 IDIUse=1 WtCom= 1.00D+00 WtEn= 0.00D+00
 Coeff-Com:  0.122D-01-0.102D-02-0.118D+00-0.358D+00 0.146D+01
 Coeff:      0.122D-01-0.102D-02-0.118D+00-0.358D+00 0.146D+01
 Gap=     0.228 Goal=   None    Shift=    0.000
 Gap=     0.228 Goal=   None    Shift=    0.000
 RMSDP=1.18D-04 MaxDP=7.39D-04 DE=-1.59D-04 OVMax= 9.02D-03

 Cycle   6  Pass 0  IDiag  1:
 E= -111.723672431945     Delta-E=       -0.000042469513 Rises=F Damp=F
 DIIS: error= 1.27D-04 at cycle   6 NSaved=   6.
 NSaved= 6 IEnMin= 6 EnMin= -111.723672431945     IErMin= 6 ErrMin= 1.27D-04
 ErrMax= 1.27D-04  0.00D+00 EMaxC= 1.00D+00 BMatC= 1.59D-06 BMatP= 2.47D-05
 IDIUse=1 WtCom= 1.00D+00 WtEn= 0.00D+00
 Coeff-Com:  0.287D-02 0.326D-03-0.995D-02-0.794D-01 0.167D-01 0.107D+01
 Coeff:      0.287D-02 0.326D-03-0.995D-02-0.794D-01 0.167D-01 0.107D+01
 Gap=     0.229 Goal=   None    Shift=    0.000
 Gap=     0.229 Goal=   None    Shift=    0.000
 RMSDP=2.89D-05 MaxDP=2.07D-04 DE=-4.25D-05 OVMax= 2.17D-03

 Cycle   7  Pass 0  IDiag  1:
 E= -111.723674810311     Delta-E=       -0.000002378366 Rises=F Damp=F
 DIIS: error= 7.71D-05 at cycle   7 NSaved=   7.
 NSaved= 7 IEnMin= 7 EnMin= -111.723674810311     IErMin= 7 ErrMin= 7.71D-05
 ErrMax= 7.71D-05  0.00D+00 EMaxC= 1.00D+00 BMatC= 7.72D-07 BMatP= 1.59D-06
 IDIUse=1 WtCom= 1.00D+00 WtEn= 0.00D+00
 Coeff-Com:  0.519D-03 0.257D-03 0.360D-02-0.157D-01-0.102D+00 0.508D+00
 Coeff-Com:  0.606D+00
 Coeff:      0.519D-03 0.257D-03 0.360D-02-0.157D-01-0.102D+00 0.508D+00
 Coeff:      0.606D+00
 Gap=     0.229 Goal=   None    Shift=    0.000
 Gap=     0.229 Goal=   None    Shift=    0.000
 RMSDP=8.54D-06 MaxDP=1.13D-04 DE=-2.38D-06 OVMax= 5.28D-04

 Initial convergence to 1.0D-05 achieved.  Increase integral accuracy.
 Cycle   8  Pass 1  IDiag  1:
 E= -111.723674786589     Delta-E=        0.000000023722 Rises=F Damp=F
 DIIS: error= 9.57D-05 at cycle   1 NSaved=   1.
 NSaved= 1 IEnMin= 1 EnMin= -111.723674786589     IErMin= 1 ErrMin= 9.57D-05
 ErrMax= 9.57D-05  0.00D+00 EMaxC= 1.00D+00 BMatC= 9.56D-07 BMatP= 9.56D-07
 IDIUse=1 WtCom= 1.00D+00 WtEn= 0.00D+00
 Coeff-Com:  0.100D+01
 Coeff:      0.100D+01
 Gap=     0.229 Goal=   None    Shift=    0.000
 Gap=     0.229 Goal=   None    Shift=    0.000
 RMSDP=8.54D-06 MaxDP=1.13D-04 DE= 2.37D-08 OVMax= 1.11D-03

 Cycle   9  Pass 1  IDiag  1:
 E= -111.723673154827     Delta-E=        0.000001631762 Rises=F Damp=F
 DIIS: error= 2.73D-04 at cycle   2 NSaved=   2.
 NSaved= 2 IEnMin= 1 EnMin= -111.723674786589     IErMin= 1 ErrMin= 9.57D-05
 ErrMax= 2.73D-04  0.00D+00 EMaxC= 1.00D+00 BMatC= 7.60D-06 BMatP= 9.56D-07
 IDIUse=1 WtCom= 1.00D+00 WtEn= 0.00D+00
 Coeff-Com:  0.740D+00 0.260D+00
 Coeff:      0.740D+00 0.260D+00
 Gap=     0.229 Goal=   None    Shift=    0.000
 Gap=     0.229 Goal=   None    Shift=    0.000
 RMSDP=9.81D-06 MaxDP=1.66D-04 DE= 1.63D-06 OVMax= 8.26D-04

 Cycle  10  Pass 1  IDiag  1:
 E= -111.723675045448     Delta-E=       -0.000001890621 Rises=F Damp=F
 DIIS: error= 5.45D-06 at cycle   3 NSaved=   3.
 NSaved= 3 IEnMin= 3 EnMin= -111.723675045448     IErMin= 3 ErrMin= 5.45D-06
 ErrMax= 5.45D-06  0.00D+00 EMaxC= 1.00D+00 BMatC= 3.01D-09 BMatP= 9.56D-07
 IDIUse=1 WtCom= 1.00D+00 WtEn= 0.00D+00
[...]
           D4          -0.01004   0.01270  -0.00584   0.01025  -0.01367
                          Z2        R1        R2        R3        R4
           Z2           0.50080
           R1           0.00498   0.45868
           R2           0.00444   0.00180   0.45346
           R3           0.00509   0.00203   0.00187   0.45880
           R4           0.00457   0.00184   0.00199   0.00192   0.45358
           A1           0.00415   0.00524   0.00547   0.00525   0.00546
           A2           0.00341   0.00644   0.00623   0.00653   0.00633
           A3           0.00044   0.00235  -0.00079   0.00232  -0.00082
           A4           0.00427   0.00514   0.00536   0.00516   0.00536
           A5           0.00352   0.00635   0.00612   0.00644   0.00622
           A6           0.00041   0.00234  -0.00082   0.00230  -0.00086
           D1          -0.00136   0.00295  -0.00133   0.00282  -0.00146
           D2          -0.00001  -0.00001  -0.00021  -0.00001  -0.00022
           D3          -0.00000  -0.00002  -0.00025  -0.00004  -0.00026
           D4           0.00135  -0.00298   0.00087  -0.00287   0.00098
                          A1        A2        A3        A4        A5
           A1           0.12184
           A2           0.01210   0.12218
           A3          -0.01254  -0.01283   0.13444
           A4          -0.03826   0.01191  -0.01264   0.12165
           A5           0.01202  -0.03820  -0.01306   0.01184   0.12141
           A6          -0.01259  -0.01315  -0.02588  -0.01271  -0.01339
           D1          -0.00706  -0.00853  -0.00851  -0.00704  -0.00849
           D2           0.00082  -0.00102   0.00011   0.00083  -0.00098
           D3           0.00084  -0.00095   0.00007   0.00087  -0.00092
           D4           0.00872   0.00656   0.00869   0.00874   0.00659
                          A6        D1        D2        D3        D4
           A6           0.13376
           D1          -0.00847   0.01032
           D2           0.00016  -0.00031   0.00194
           D3           0.00010  -0.00030  -0.00034   0.00197
           D4           0.00873  -0.00863  -0.00039  -0.00038   0.01016
 ITU=  0  1  1  1  1  1  1  1  1  0
     Eigenvalues ---    0.00070   0.05978   0.07770   0.08101   0.10626
     Eigenvalues ---    0.16000   0.16001   0.45153   0.45371   0.45671
     Eigenvalues ---    0.464121000.000001000.000001000.000001000.00000
     Eigenvalues --- 1000.000001000.000001000.000001000.000001000.00000
 En-DIIS/RFO-DIIS/Sim-DIIS IScMMF=       -3 using points:    10    9    8    7    6
 RFO step:  Lambda=-2.34807455D-09.
 NNeg= 0 NGDIIS= 5 SimSw=  2.50D-01 Rises=F DC= -2.54D-07 SmlDif=  1.00D-05
 NRisDI= 0 DoIntr=F SqrtH=F CThrHd= 10.0 CDAdj=  3.0
 RMS Error=  0.5789692253D-03 NUsed= 5 OKEnD=F EnDIS=F
 InvSVX:  RCond= 1.23D-08 Info=           0 Equed=N FErr=  1.32D-12 BErr=  5.64D-17
 DIIS inversion failure, remove point   5.
 InvSVX:  RCond= 1.72D-07 Info=           0 Equed=N FErr=  9.05D-14 BErr=  7.52D-17
 RFO-DIIS uses    4 points instead of    5
 DidBck=F Rises=F RFO-DIIS coefs:    1.14524   -0.16533    0.01733    0.00276    0.00000
 Iteration  1 RMS(Cart)=  0.00057706 RMS(Int)=  0.00000027
 Iteration  2 RMS(Cart)=  0.00000019 RMS(Int)=  0.00000019
 ITry= 1 IFail=0 DXMaxC= 1.22D-03 DCOld= 1.00D+10 DXMaxT= 2.40D+00 DXLimC= 3.00D+00 Rises=F
 Variable       Old X    -DE/DX   Delta X   Delta X   Delta X     New X
                                 (Linear)    (Quad)   (Total)
    X1       -2.28948   0.00001   0.00000   0.00000   0.00000  -2.28948
    Y1        0.00000  -0.00002   0.00000   0.00000   0.00000   0.00000
    Z1        0.00000   0.00001   0.00000   0.00000   0.00000   0.00000
    X2        2.28948  -0.00001   0.00000   0.00000   0.00000   2.28948
    Y2        0.00000   0.00002   0.00000   0.00000   0.00000   0.00000
    Z2        0.00000  -0.00000   0.00000   0.00000   0.00000   0.00000
    R1        1.93860   0.00001   0.00000   0.00002   0.00002   1.93862
    R2        1.93859   0.00001   0.00001   0.00002   0.00003   1.93862
    R3        1.93859   0.00001   0.00000   0.00002   0.00003   1.93862
    R4        1.93859   0.00001   0.00001   0.00002   0.00003   1.93862
    A1        1.54506  -0.00001  -0.00016  -0.00001  -0.00017   1.54489
    A2        1.54486  -0.00000   0.00005  -0.00001   0.00005   1.54490
    A3        1.79118  -0.00000  -0.00008   0.00002  -0.00005   1.79113
    A4        1.54508  -0.00001  -0.00016  -0.00001  -0.00017   1.54491
    A5        1.54485  -0.00000   0.00005  -0.00001   0.00004   1.54489
    A6        1.79120  -0.00000  -0.00008   0.00001  -0.00007   1.79113
    D1        1.34827   0.00000   0.00138  -0.00002   0.00136   1.34963
    D2        3.14030   0.00000   0.00130  -0.00000   0.00130  -3.14158
    D3        3.14029   0.00000   0.00131   0.00001   0.00131  -3.14158
    D4       -1.35086  -0.00000   0.00123   0.00002   0.00125  -1.34961
         Item               Value     Threshold  Converged?
 Maximum Force            0.000010     0.000450     YES
 RMS     Force            0.000006     0.000300     YES
 Maximum Displacement     0.001220     0.001800     YES
 RMS     Displacement     0.000577     0.001200     YES
 Predicted change in Energy=-3.975105D-09
 Optimization completed.
    -- Stationary point found.
                           ----------------------------
                           !   Optimized Parameters   !
                           ! (Angstroms and Degrees)  !
 --------------------------                            --------------------------
 ! Name  Definition              Value          Derivative Info.                !
 --------------------------------------------------------------------------------
 ! X1    R(1,-1)                -1.2115         -DE/DX =    0.0                 !
 ! Y1    R(1,-2)                 0.0            -DE/DX =    0.0                 !
 ! Z1    R(1,-3)                 0.0            -DE/DX =    0.0                 !
 ! X2    R(2,-1)                 1.2115         -DE/DX =    0.0                 !
 ! Y2    R(2,-2)                 0.0            -DE/DX =    0.0                 !
 ! Z2    R(2,-3)                 0.0            -DE/DX =    0.0                 !
 ! R1    R(1,3)                  1.0259         -DE/DX =    0.0                 !
 ! R2    R(1,5)                  1.0259         -DE/DX =    0.0                 !
 ! R3    R(2,4)                  1.0259         -DE/DX =    0.0                 !
 ! R4    R(2,6)                  1.0259         -DE/DX =    0.0                 !
 ! A1    A(2,1,3)               88.5252         -DE/DX =    0.0                 !
 ! A2    A(2,1,5)               88.5137         -DE/DX =    0.0                 !
 ! A3    A(3,1,5)              102.6273         -DE/DX =    0.0                 !
 ! A4    A(1,2,4)               88.5264         -DE/DX =    0.0                 !
 ! A5    A(1,2,6)               88.5136         -DE/DX =    0.0                 !
 ! A6    A(4,2,6)              102.6282         -DE/DX =    0.0                 !
 ! D1    D(3,1,2,4)             77.2503         -DE/DX =    0.0                 !
 ! D2    D(3,1,2,6)           -180.0738         -DE/DX =    0.0                 !
 ! D3    D(5,1,2,4)           -180.0747         -DE/DX =    0.0                 !
 ! D4    D(5,1,2,6)            -77.3987         -DE/DX =    0.0                 !
 --------------------------------------------------------------------------------
 Lowest energy point so far.  Saving SCF results.
 Largest change from initial coordinates is atom    5       0.964 Angstoms.
 GradGradGradGradGradGradGradGradGradGradGradGradGradGradGradGradGradGrad

 Leave Link  103 at Thu May 15 14:35:50 2025, MaxMem=   536870912 cpu:               0.1 elap:               0.0
 (Enter /home/szhao/Apps/g16/l202.exe)
                          Input orientation:                          
 ---------------------------------------------------------------------
 Center     Atomic      Atomic             Coordinates (Angstroms)
 Number     Number       Type             X           Y           Z
 ---------------------------------------------------------------------
      1          7           0       -1.211540    0.000000    0.000000
      2          7           0        1.211540    0.000000    0.000000
      3          1           0       -1.185138   -0.821735   -0.613555
      4          1           0        1.185159    0.417074   -0.936877
      5          1           0       -1.184931   -0.418292    0.936327
      6          1           0        1.184929    0.822517    0.612491
 ---------------------------------------------------------------------
                    Distance matrix (angstroms):
                    1          2          3          4          5
     1  N    0.000000
     2  N    2.423080   0.000000
     3  H    1.025863   2.606869   0.000000
     4  H    2.606886   1.025858   2.693973   0.000000
     5  H    1.025858   2.606674   1.601531   3.134335   0.000000
     6  H    2.606673   1.025860   3.134321   1.601538   2.694571
                    6
     6  H    0.000000
 Symmetry turned off by external request.
 Stoichiometry    H4N2
 Framework group  C1[X(H4N2)]
 Deg. of freedom    12
 Full point group                 C1      NOp   1
 Rotational constants (GHZ):         125.3118099          10.4365086          10.1970819
 Leave Link  202 at Thu May 15 14:35:50 2025, MaxMem=   536870912 cpu:               0.0 elap:               0.0
 (Enter /home/szhao/Apps/g16/l601.exe)
 Copying SCF densities to generalized density rwf, IOpCl= 1 IROHF=0.

 **********************************************************************

            Population analysis using the SCF density.

 **********************************************************************

 Alpha  occ. eigenvalues --  -14.79898 -14.79894  -0.95919  -0.92633  -0.55350
 Alpha  occ. eigenvalues --   -0.53266  -0.41185  -0.39348  -0.33486
 Alpha virt. eigenvalues --   -0.10590   0.04589   0.07321   0.08800   0.11483
 Alpha virt. eigenvalues --    0.13270   0.13765   0.15523   0.15978   0.20315
 Alpha virt. eigenvalues --    0.21638   0.27148   0.27857   0.51398   0.51820
 Alpha virt. eigenvalues --    0.60604   0.62477   0.76196   0.79041   0.79799
 Alpha virt. eigenvalues --    0.82603   0.85097   0.85324   0.93935   1.17312
 Alpha virt. eigenvalues --    1.24393   1.25360   1.27787   1.32296   1.47503
 Alpha virt. eigenvalues --    1.55746   1.65043   1.67070   1.91030   1.91484
 Alpha virt. eigenvalues --    1.98734   2.01146   2.38281   2.39461   2.39752
 Alpha virt. eigenvalues --    2.40975   2.46782   2.53507   2.59360   2.61210
 Alpha virt. eigenvalues --    2.66505   2.73908   2.88065   2.98366   3.09370
 Alpha virt. eigenvalues --    3.09686   3.86837   3.97624   4.26959   4.35597
 Alpha virt. eigenvalues --    4.64886   4.65253  35.51013  35.52784
  Beta  occ. eigenvalues --  -14.79898 -14.79894  -0.95919  -0.92633  -0.55350
  Beta  occ. eigenvalues --   -0.53266  -0.41185  -0.39348  -0.33486
  Beta virt. eigenvalues --   -0.10590   0.04589   0.07321   0.08800   0.11483
  Beta virt. eigenvalues --    0.13270   0.13765   0.15523   0.15978   0.20315
  Beta virt. eigenvalues --    0.21638   0.27148   0.27857   0.51398   0.51820
  Beta virt. eigenvalues --    0.60604   0.62477   0.76196   0.79041   0.79799
  Beta virt. eigenvalues --    0.82603   0.85097   0.85324   0.93935   1.17312
  Beta virt. eigenvalues --    1.24393   1.25360   1.27787   1.32296   1.47503
  Beta virt. eigenvalues --    1.55746   1.65043   1.67070   1.91030   1.91484
  Beta virt. eigenvalues --    1.98734   2.01146   2.38281   2.39461   2.39752
  Beta virt. eigenvalues --    2.40975   2.46782   2.53507   2.59360   2.61210
  Beta virt. eigenvalues --    2.66505   2.73908   2.88065   2.98366   3.09370
  Beta virt. eigenvalues --    3.09686   3.86837   3.97624   4.26959   4.35597
  Beta virt. eigenvalues --    4.64886   4.65253  35.51013  35.52784
          Condensed to atoms (all electrons):
               1          2          3          4          5          6
     1  N    6.695113   0.148460   0.344746  -0.010042   0.344751  -0.010065
     2  N    0.148460   6.695112  -0.010043   0.344749  -0.010064   0.344754
     3  H    0.344746  -0.010043   0.452632  -0.000547  -0.043518   0.000276
     4  H   -0.010042   0.344749  -0.000547   0.452628   0.000276  -0.043518
     5  H    0.344751  -0.010064  -0.043518   0.000276   0.452588  -0.000544
     6  H   -0.010065   0.344754   0.000276  -0.043518  -0.000544   0.452584
          Atomic-Atomic Spin Densities.
               1          2          3          4          5          6
     1  N    0.000000  -0.000000  -0.000000   0.000000  -0.000000   0.000000
     2  N   -0.000000  -0.000000  -0.000000   0.000000  -0.000000   0.000000
     3  H   -0.000000  -0.000000   0.000000   0.000000   0.000000  -0.000000
     4  H    0.000000   0.000000   0.000000  -0.000000   0.000000  -0.000000
     5  H   -0.000000  -0.000000   0.000000   0.000000   0.000000  -0.000000
     6  H    0.000000   0.000000  -0.000000  -0.000000  -0.000000   0.000000
 Mulliken charges and spin densities:
               1          2
     1  N   -0.512963   0.000000
     2  N   -0.512968  -0.000000
     3  H    0.256453  -0.000000
     4  H    0.256454   0.000000
     5  H    0.256511  -0.000000
     6  H    0.256513   0.000000
 Sum of Mulliken charges =  -0.00000  -0.00000
 Mulliken charges and spin densities with hydrogens summed into heavy atoms:
               1          2
     1  N    0.000001  -0.000000
     2  N   -0.000001  -0.000000
 Electronic spatial extent (au):  <R**2>=            138.8677
 Charge=             -0.0000 electrons
 Dipole moment (field-independent basis, Debye):
    X=              0.0000    Y=             -0.0006    Z=             -0.0024  Tot=              0.0025
 Quadrupole moment (field-independent basis, Debye-Ang):
   XX=            -15.4955   YY=            -14.0588   ZZ=            -11.3369
   XY=              5.3826   XZ=             -1.4048   YZ=              0.7623
 Traceless Quadrupole moment (field-independent basis, Debye-Ang):
   XX=             -1.8651   YY=             -0.4284   ZZ=              2.2935
   XY=              5.3826   XZ=             -1.4048   YZ=              0.7623
 Octapole moment (field-independent basis, Debye-Ang**2):
  XXX=              0.0001  YYY=              0.0022  ZZZ=             -0.0014  XYY=              0.0010
  XXY=             -0.0013  XXZ=             -0.0051  XZZ=             -0.0010  YZZ=             -0.0020
  YYZ=              0.0024  XYZ=              0.0020
 Hexadecapole moment (field-independent basis, Debye-Ang**3):
 XXXX=           -148.9636 YYYY=            -22.0069 ZZZZ=            -18.6444 XXXY=              5.8323
 XXXZ=             -1.5223 YYYX=             -1.0329 YYYZ=              1.2667 ZZZX=             -1.2534
 ZZZY=             -0.3250 XXYY=            -27.2557 XXZZ=            -23.0899 YYZZ=             -6.1252
 XXYZ=              1.1667 YYXZ=              1.1793 ZZXY=              1.3164
 N-N= 3.221992162445D+01 E-N=-3.255677499127D+02  KE= 1.110718164759D+02
                          Isotropic Fermi Contact Couplings
        Atom                 a.u.       MegaHertz       Gauss      10(-4) cm-1
     1  N(14)             -0.00000      -0.00000      -0.00000      -0.00000
     2  N(14)             -0.00000      -0.00000      -0.00000      -0.00000
     3  H(1)               0.00000       0.00000       0.00000       0.00000
     4  H(1)              -0.00000      -0.00000      -0.00000      -0.00000
     5  H(1)               0.00000       0.00000       0.00000       0.00000
     6  H(1)               0.00000       0.00000       0.00000       0.00000
 --------------------------------------------------------
       Center         ----  Spin Dipole Couplings  ----
                      3XX-RR        3YY-RR        3ZZ-RR
 --------------------------------------------------------
     1   Atom        0.000000      0.000000      0.000000
     2   Atom        0.000000      0.000000      0.000000
     3   Atom        0.000000      0.000000      0.000000
     4   Atom        0.000000      0.000000      0.000000
     5   Atom        0.000000      0.000000      0.000000
     6   Atom        0.000000      0.000000      0.000000
 --------------------------------------------------------
                        XY            XZ            YZ
 --------------------------------------------------------
     1   Atom        0.000000      0.000000      0.000000
     2   Atom        0.000000      0.000000      0.000000
     3   Atom        0.000000      0.000000      0.000000
     4   Atom        0.000000      0.000000      0.000000
     5   Atom        0.000000      0.000000      0.000000
     6   Atom        0.000000      0.000000      0.000000
 --------------------------------------------------------


 ---------------------------------------------------------------------------------
              Anisotropic Spin Dipole Couplings in Principal Axis System
 ---------------------------------------------------------------------------------

       Atom             a.u.   MegaHertz   Gauss  10(-4) cm-1        Axes

              Baa     0.0000     0.000     0.000     0.000  1.0000  0.0000  0.0000
     1 N(14)  Bbb     0.0000     0.000     0.000     0.000 -0.0000  1.0000  0.0000
              Bcc     0.0000     0.000     0.000     0.000  0.0000  0.0000  1.0000
 
              Baa     0.0000     0.000     0.000     0.000  1.0000  0.0000  0.0000
     2 N(14)  Bbb     0.0000     0.000     0.000     0.000 -0.0000  1.0000  0.0000
              Bcc     0.0000     0.000     0.000     0.000  0.0000  0.0000  1.0000
 
              Baa     0.0000     0.000     0.000     0.000  1.0000  0.0000  0.0000
     3 H(1)   Bbb     0.0000     0.000     0.000     0.000 -0.0000  1.0000  0.0000
              Bcc     0.0000     0.000     0.000     0.000  0.0000  0.0000  1.0000
 
              Baa     0.0000     0.000     0.000     0.000  1.0000  0.0000  0.0000
     4 H(1)   Bbb     0.0000     0.000     0.000     0.000 -0.0000  1.0000  0.0000
              Bcc     0.0000     0.000     0.000     0.000  0.0000  0.0000  1.0000
 
              Baa     0.0000     0.000     0.000     0.000  1.0000  0.0000  0.0000
     5 H(1)   Bbb     0.0000     0.000     0.000     0.000 -0.0000  1.0000  0.0000
              Bcc     0.0000     0.000     0.000     0.000  0.0000  0.0000  1.0000
 
              Baa     0.0000     0.000     0.000     0.000  1.0000  0.0000  0.0000
     6 H(1)   Bbb     0.0000     0.000     0.000     0.000 -0.0000  1.0000  0.0000
              Bcc     0.0000     0.000     0.000     0.000  0.0000  0.0000  1.0000
 

 ---------------------------------------------------------------------------------

 No NMR shielding tensors so no spin-rotation constants.
 Leave Link  601 at Thu May 15 14:35:50 2025, MaxMem=   536870912 cpu:               0.8 elap:               0.1
 (Enter /home/szhao/Apps/g16/l9999.exe)
 1\1\GINC-NODE01\FOpt\UM062X\6-311+G(d,p)\H4N2\SZHAO\15-May-2025\0\\#p 
 opt UM062X/6-311+G** nosymm int=superfine\\Title Card Required\\0,1\N,
 -1.21154,0.,0.\N,1.21154,0.,0.\H,-1.1851379722,-0.8217348487,-0.613555
 2326\H,1.1851586746,0.4170739279,-0.936876905\H,-1.1849308709,-0.41829
 20863,0.9363273364\H,1.1849288451,0.8225173464,0.6124908653\\Version=E
 S64L-G16RevA.03\HF=-111.7264869\S2=0.\S2-1=0.\S2A=0.\RMSD=3.157e-09\RM
 SF=5.176e-06\Dipole=0.0000073,-0.0002546,-0.0009578\Quadrupole=-1.3866
 684,-0.3184851,1.7051535,4.0018061,-1.0444694,0.5667665\PG=C01 [X(H4N2
 )]\\@


 WE DON'T KNOW ONE MILLIONTH OF ONE PERCENT ABOUT
 ANYTHING.
                                     T. A. EDISON.
 Job cpu time:       0 days  0 hours  6 minutes 44.2 seconds.
 Elapsed time:       0 days  0 hours  0 minutes 51.9 seconds.
 File lengths (MBytes):  RWF=     10 Int=      0 D2E=      0 Chk=      2 Scr=      1
 Normal termination of Gaussian 16 at Thu May 15 14:35:50 2025.
