Title Card Required                                                     
FOpt      UM062X                                                      6-311+G(d,p)        
Number of atoms                            I                4
Info1-9                                    I   N=           9
          13          13           0           0           0         110
           2          18        -502
Full Title                                 C   N=           2
Title Card Required     
Route                                      C   N=           4
#p opt UM062X/6-311+G** nosymm int=superfine    
Charge                                     I                1
Multiplicity                               I                2
Number of electrons                        I               13
Number of alpha electrons                  I                7
Number of beta electrons                   I                6
Number of basis functions                  I               56
Number of independent functions            I               56
Number of point charges in /Mol/           I                0
Number of translation vectors              I                0
Atomic numbers                             I   N=           4
           6           6           1           1
Nuclear charges                            R   N=           4
  6.00000000E+00  6.00000000E+00  1.00000000E+00  1.00000000E+00
Current cartesian coordinates              R   N=          12
 -1.87866745E+00  0.00000000E+00  0.00000000E+00  1.87866745E+00  0.00000000E+00
  0.00000000E+00 -3.97139763E+00  3.63666289E-10 -4.17825490E-09  3.97144921E+00
 -2.06586360E-09  3.73402528E-09
Number of symbols in /Mol/                 I                0
Force Field                                I                0
Atom Types                                 C   N=           4
                                                
Int Atom Types                             I   N=           4
           0           0           0           0
MM charges                                 R   N=           4
  0.00000000E+00  0.00000000E+00  0.00000000E+00  0.00000000E+00
Integer atomic weights                     I   N=           4
          12          12           1           1
Real atomic weights                        R   N=           4
  1.20000000E+01  1.20000000E+01  1.00782504E+00  1.00782504E+00
Atom fragment info                         I   N=           4
           0           0           0           0
Atom residue num                           I   N=           4
           0           0           0           0
Nuclear spins                              I   N=           4
           0           0           1           1
Nuclear ZEff                               R   N=           4
 -3.60000000E+00 -3.60000000E+00 -1.00000000E+00 -1.00000000E+00
Nuclear ZNuc                               R   N=           4
  6.00000000E+00  6.00000000E+00  1.00000000E+00  1.00000000E+00
Nuclear QMom                               R   N=           4
  0.00000000E+00  0.00000000E+00  0.00000000E+00  0.00000000E+00
Nuclear GFac                               R   N=           4
  0.00000000E+00  0.00000000E+00  2.79284600E+00  2.79284600E+00
MicOpt                                     I   N=           4
          -2          -2          -1          -1
Number of residues                         I                0
Number of secondary structures             I                0
Redundant internal dimensions              I   N=           4
          12           8           4           0
Redundant internal coordinate indices      I   N=          48
           1          -1           0           0           1          -2
           0           0           1          -3           0           0
           2          -1           0           0           2          -2
           0           0           2          -3           0           0
           1           3           0           0           2           4
           0           0           2           1           3          -4
           1           2           4          -4           2           1
           3          -8           1           2           4          -8
Redundant internal coordinates             R   N=          12
 -1.87866745E+00  0.00000000E+00  0.00000000E+00  1.87866745E+00  0.00000000E+00
  0.00000000E+00  2.09273018E+00  2.09278176E+00  3.14159265E+00  3.14159265E+00
  3.14159265E+00  3.14159265E+00
ZRed-IntVec                                I   N=          12
          -1          -1          -1          -1          -1          -1
           0           0           0           0           0           0
ZRed-FPVec                                 R   N=          12
  0.00000000E+00  0.00000000E+00  0.00000000E+00  0.00000000E+00  0.00000000E+00
  0.00000000E+00  0.00000000E+00  0.00000000E+00  0.00000000E+00  0.00000000E+00
  0.00000000E+00  0.00000000E+00
ZRed-Constraint1                           R   N=          12
 -1.87866745E+00  0.00000000E+00  0.00000000E+00  1.87866745E+00  0.00000000E+00
  0.00000000E+00  3.26867893E+00  3.26864567E+00  3.14159265E+00  3.14159265E+00
  3.14159265E+00  3.14159265E+00
ZRed-Constraint2                           R   N=          12
 -1.87866745E+00  0.00000000E+00  0.00000000E+00  1.87866745E+00  0.00000000E+00
  0.00000000E+00  0.00000000E+00  0.00000000E+00  0.00000000E+00  0.00000000E+00
  0.00000000E+00  0.00000000E+00
Number of contracted shells                I               20
Number of primitive shells                 I               38
Pure/Cartesian d shells                    I                0
Pure/Cartesian f shells                    I                0
Highest angular momentum                   I                2
Largest degree of contraction              I                6
Shell types                                I   N=          20
           0          -1          -1          -1          -1          -2
           0          -1          -1          -1          -1          -2
           0           0           0           1           0           0
           0           1
Number of primitives per shell             I   N=          20
           6           3           1           1           1           1
           6           3           1           1           1           1
           3           1           1           1           3           1
           1           1
Shell to atom map                          I   N=          20
           1           1           1           1           1           1
           2           2           2           2           2           2
           3           3           3           3           4           4
           4           4
Primitive exponents                        R   N=          38
  4.56324000E+03  6.82024000E+02  1.54973000E+02  4.44553000E+01  1.30290000E+01
  1.82773000E+00  2.09642000E+01  4.80331000E+00  1.45933000E+00  4.83456000E-01
  1.45585000E-01  4.38000000E-02  6.26000000E-01  4.56324000E+03  6.82024000E+02
  1.54973000E+02  4.44553000E+01  1.30290000E+01  1.82773000E+00  2.09642000E+01
  4.80331000E+00  1.45933000E+00  4.83456000E-01  1.45585000E-01  4.38000000E-02
  6.26000000E-01  3.38650000E+01  5.09479000E+00  1.15879000E+00  3.25840000E-01
  1.02741000E-01  7.50000000E-01  3.38650000E+01  5.09479000E+00  1.15879000E+00
  3.25840000E-01  1.02741000E-01  7.50000000E-01
Contraction coefficients                   R   N=          38
  1.96665025E-03  1.52306019E-02  7.61269097E-02  2.60801033E-01  6.16462078E-01
  2.21006028E-01  1.14660081E-01  9.19999648E-01 -3.03068213E-03  1.00000000E+00
  1.00000000E+00  1.00000000E+00  1.00000000E+00  1.96665025E-03  1.52306019E-02
  7.61269097E-02  2.60801033E-01  6.16462078E-01  2.21006028E-01  1.14660081E-01
  9.19999648E-01 -3.03068213E-03  1.00000000E+00  1.00000000E+00  1.00000000E+00
  1.00000000E+00  2.54938145E-02  1.90373109E-01  8.52161486E-01  1.00000000E+00
  1.00000000E+00  1.00000000E+00  2.54938145E-02  1.90373109E-01  8.52161486E-01
  1.00000000E+00  1.00000000E+00  1.00000000E+00
P(S=P) Contraction coefficients            R   N=          38
  0.00000000E+00  0.00000000E+00  0.00000000E+00  0.00000000E+00  0.00000000E+00
  0.00000000E+00  4.02486927E-02  2.37593957E-01  8.15853851E-01  1.00000000E+00
  1.00000000E+00  1.00000000E+00  0.00000000E+00  0.00000000E+00  0.00000000E+00
  0.00000000E+00  0.00000000E+00  0.00000000E+00  0.00000000E+00  4.02486927E-02
  2.37593957E-01  8.15853851E-01  1.00000000E+00  1.00000000E+00  1.00000000E+00
  0.00000000E+00  0.00000000E+00  0.00000000E+00  0.00000000E+00  0.00000000E+00
  0.00000000E+00  0.00000000E+00  0.00000000E+00  0.00000000E+00  0.00000000E+00
  0.00000000E+00  0.00000000E+00  0.00000000E+00
Coordinates of each shell                  R   N=          60
 -1.87866745E+00  0.00000000E+00  0.00000000E+00 -1.87866745E+00  0.00000000E+00
  0.00000000E+00 -1.87866745E+00  0.00000000E+00  0.00000000E+00 -1.87866745E+00
  0.00000000E+00  0.00000000E+00 -1.87866745E+00  0.00000000E+00  0.00000000E+00
 -1.87866745E+00  0.00000000E+00  0.00000000E+00  1.87866745E+00  0.00000000E+00
  0.00000000E+00  1.87866745E+00  0.00000000E+00  0.00000000E+00  1.87866745E+00
  0.00000000E+00  0.00000000E+00  1.87866745E+00  0.00000000E+00  0.00000000E+00
  1.87866745E+00  0.00000000E+00  0.00000000E+00  1.87866745E+00  0.00000000E+00
  0.00000000E+00 -3.97139763E+00  3.63666289E-10 -4.17825490E-09 -3.97139763E+00
  3.63666289E-10 -4.17825490E-09 -3.97139763E+00  3.63666289E-10 -4.17825490E-09
 -3.97139763E+00  3.63666289E-10 -4.17825490E-09  3.97144921E+00 -2.06586360E-09
  3.73402528E-09  3.97144921E+00 -2.06586360E-09  3.73402528E-09  3.97144921E+00
 -2.06586360E-09  3.73402528E-09  3.97144921E+00 -2.06586360E-09  3.73402528E-09
Num ILSW                                   I              100
ILSW                                       I   N=         100
           1           0           0           1           2           0
           0           0           0           0        4336          -1
           7           0           0           0           2           0
           0           0           0           0           1           0
           1           1           0           0           0           0
           0           0      100000           0          -1           0
           0           0           0           0           0           0
           0           0           0           1           0           0
           0 -2000000000           1           0           0           0
           0           0           4          52           0           0
           0           0          55           0           0           0
           0           0           0           4           0           1
           0           0           0           0           0           0
           0           0           0           0           0           0
           0           0           0           0           0           0
           0           0           0           0           0           0
           0           0           0           0
Num RLSW                                   I               52
RLSW                                       R   N=          52
  1.00000000E+00  1.00000000E+00  1.00000000E+00  1.00000000E+00  5.40000000E-01
  0.00000000E+00  0.00000000E+00  1.00000000E+00  0.00000000E+00  0.00000000E+00
  0.00000000E+00  0.00000000E+00  1.00000000E+00  0.00000000E+00  0.00000000E+00
  0.00000000E+00  0.00000000E+00  1.00000000E+00  0.00000000E+00  0.00000000E+00
  0.00000000E+00  0.00000000E+00  1.00000000E+00  0.00000000E+00  0.00000000E+00
  0.00000000E+00  0.00000000E+00  1.00000000E+00  0.00000000E+00  0.00000000E+00
  0.00000000E+00  0.00000000E+00  1.00000000E+00  0.00000000E+00  0.00000000E+00
  0.00000000E+00  0.00000000E+00  0.00000000E+00  1.00000000E+00  1.00000000E+00
  0.00000000E+00  1.00000000E+00  0.00000000E+00  0.00000000E+00  0.00000000E+00
  0.00000000E+00  0.00000000E+00  0.00000000E+00  0.00000000E+00  0.00000000E+00
  0.00000000E+00  0.00000000E+00
MxBond                                     I                2
NBond                                      I   N=           4
           2           2           1           1
IBond                                      I   N=           8
           2           3           1           4           1           0
           2           0
RBond                                      R   N=           8
  1.00000000E-01  1.00000000E-01  1.00000000E-01  1.00000000E-01  1.00000000E-01
  0.00000000E+00  1.00000000E-01  0.00000000E+00
Virial Ratio                               R      2.014335060129255E+00
SCF Energy                                 R     -7.659466845570543E+01
Total Energy                               R     -7.659466845570543E+01
S**2                                       R      7.527401224737211E-01
S**2 after annihilation                    R      7.500046243053629E-01
RMS Force                                  R      4.806299012077323E-05
RMS Density                                R      5.652639896278079E-09
Job Status                                 I                1
Nuclear derivative order                   I                1
External E-field                           R   N=          35
  0.00000000E+00  0.00000000E+00  0.00000000E+00  0.00000000E+00  0.00000000E+00
  0.00000000E+00  0.00000000E+00  0.00000000E+00  0.00000000E+00  0.00000000E+00
  0.00000000E+00  0.00000000E+00  0.00000000E+00  0.00000000E+00  0.00000000E+00
  0.00000000E+00  0.00000000E+00  0.00000000E+00  0.00000000E+00  0.00000000E+00
  0.00000000E+00  0.00000000E+00  0.00000000E+00  0.00000000E+00  0.00000000E+00
  0.00000000E+00  0.00000000E+00  0.00000000E+00  0.00000000E+00  0.00000000E+00
  0.00000000E+00  0.00000000E+00  0.00000000E+00  0.00000000E+00  0.00000000E+00
IOpCl                                      I                1
IROHF                                      I                0
Alpha Orbital Energies                     R   N=          56
 -1.10134411E+01 -1.10132354E+01 -1.06027077E+00 -9.98040729E-01 -7.93681763E-01
 -5.98795033E-01 -5.78972771E-01 -3.94066746E-01 -3.77826498E-01 -3.74446412E-01
 -1.40512826E-01 -1.20100040E-01 -9.80435648E-02 -8.60998965E-02 -8.38882032E-02
 -5.37812633E-02 -5.10462649E-02  5.64441822E-04  2.80651705E-02  5.70927062E-02
  2.41515916E-01  3.06275721E-01  3.07834978E-01  3.20588279E-01  3.58202049E-01
  3.65816834E-01  4.32657696E-01  5.31593727E-01  5.42657631E-01  6.96178972E-01
  7.37046746E-01  7.47296870E-01  9.74986490E-01  9.83098952E-01  1.00047485E+00
  1.00205678E+00  1.06445032E+00  1.06552919E+00  1.10324596E+00  1.48330201E+00
  1.49098622E+00  1.49619933E+00  1.67648847E+00  1.68890304E+00  1.96555562E+00
  2.23607667E+00  2.37184243E+00  2.39261436E+00  2.39749778E+00  2.40733628E+00
  2.43261159E+00  2.56034466E+00  2.99330987E+00  2.99794750E+00  2.32040277E+01
  2.32562795E+01
Beta Orbital Energies                      R   N=          56
 -1.10106935E+01 -1.10105557E+01 -1.02802205E+00 -9.78847011E-01 -7.82371792E-01
 -5.60660549E-01 -3.84321193E-01 -3.57608901E-01 -3.56852682E-01 -3.04960030E-01
 -1.49138184E-01 -1.23115123E-01 -1.04711718E-01 -8.94112403E-02 -8.81049616E-02
 -5.42536025E-02 -5.22428210E-02 -9.06590067E-03  2.88845562E-02  5.73378334E-02
  2.41607103E-01  3.12779450E-01  3.13788962E-01  3.21719406E-01  3.44332490E-01
  3.63048134E-01  4.30691419E-01  5.34147795E-01  5.51981325E-01  6.76270162E-01
  7.60273809E-01  7.64023372E-01  9.88693093E-01  9.97317916E-01  1.02887361E+00
  1.05095779E+00  1.08877685E+00  1.11194693E+00  1.12553178E+00  1.49034587E+00
  1.50004109E+00  1.50572287E+00  1.69252777E+00  1.70022164E+00  1.98656214E+00
  2.25048013E+00  2.40686096E+00  2.40696441E+00  2.41778738E+00  2.44215243E+00
  2.45407375E+00  2.59067419E+00  3.01365201E+00  3.01513481E+00  2.32148140E+01
  2.32671042E+01
Alpha MO coefficients                      R   N=        3136
  3.97041871E-01  3.26529550E-01  9.66473107E-04  7.49615911E-12 -6.70890602E-12
  6.88298266E-03 -2.11139484E-03 -6.63680933E-12 -5.19669400E-12 -3.21711364E-03
  5.89805003E-04  3.28309920E-12  1.38378639E-12 -4.32820000E-04  1.23815981E-03
 -2.46852882E-12  3.10656569E-12 -4.63864603E-04  1.94938458E-12 -2.86922396E-05
  8.51867274E-04 -3.93978743E-13  4.01168486E-01  3.29923208E-01 -9.75532994E-04
 -6.85011418E-12  6.87807403E-12  6.95688996E-03  2.13383774E-03  4.81411353E-12
  4.80949358E-12 -3.26061938E-03 -5.66695307E-04 -2.91871661E-12 -1.30664049E-12
 -3.73786061E-04 -1.26618660E-03  2.96710320E-12 -2.97568956E-12 -4.68727327E-04
  1.61744894E-12 -2.89913392E-05  8.60794930E-04 -1.75770631E-12  9.41116420E-05
 -2.57328922E-03  2.94912196E-03 -1.58814789E-03  1.80843654E-13 -4.07760057E-12
  9.61971823E-05 -2.60844666E-03  2.96365303E-03  1.60599200E-03 -1.41684038E-12
  3.80069791E-12  4.01191105E-01  3.29930265E-01  8.82372594E-04  7.49518089E-12
 -6.53364722E-12  7.20531373E-03 -2.20758917E-03 -5.88318370E-12 -5.34740550E-12
 -4.21770106E-03 -2.22930701E-03  2.79587344E-12  3.03382519E-13  5.66466310E-03
  2.70607484E-03 -7.75394495E-13  4.34301823E-13 -4.79070254E-04  3.02098305E-12
 -2.89605803E-05  8.78657146E-04 -1.13596828E-13 -3.97064733E-01 -3.26536739E-01
  8.72320002E-04  6.75142036E-12 -6.55446726E-12 -7.13353878E-03 -2.18535305E-03
 -4.05792692E-12 -4.87850413E-12  4.18433236E-03 -2.23526890E-03  3.16200643E-12
  4.14263295E-13 -5.66890100E-03  2.69312456E-03 -1.20232688E-12  2.72770763E-13
  4.74183082E-04 -2.52454223E-12  2.86635257E-05 -8.69691202E-04  1.89852783E-12
  1.96003515E-04 -3.44835916E-03  1.44166080E-03 -1.75179780E-03  3.97067913E-13
 -4.79080272E-12 -1.95085763E-04  3.42118626E-03 -1.41097388E-03 -1.73509955E-03
  1.90300400E-12 -4.35112046E-12 -8.38332044E-02 -1.37172941E-01 -1.53152985E-02
  2.42492841E-10  1.28596064E-10  3.95007796E-01 -1.25005741E-02  2.84442790E-10
  3.63418996E-11  2.69150514E-01 -3.07543943E-03  1.51878457E-10  8.12286430E-11
 -1.53820416E-03 -1.73572139E-02 -3.10273067E-11 -7.71958091E-11 -6.22316818E-03
  4.10706614E-12 -3.16081519E-03  1.61143110E-02  1.54617606E-11 -8.38267872E-02
 -1.37162496E-01  1.53075186E-02 -2.74039482E-10 -1.37875900E-10  3.94978333E-01
  1.24906283E-02 -3.26823313E-10 -4.91909134E-11  2.69132393E-01  3.07341520E-03
 -1.70780130E-10 -8.65291038E-11 -1.53385165E-03  1.73552394E-02  2.61838486E-11
  7.58748435E-11 -6.22276880E-03 -7.70901386E-13 -3.16062028E-03  1.61133005E-02
  3.86588454E-13  8.03991877E-02  9.77843488E-02 -2.14626015E-02  1.33627729E-02
 -1.66044147E-11  5.64535447E-12  8.03869769E-02  9.77713016E-02 -2.14615103E-02
 -1.33609940E-02  2.54556690E-11 -3.39082738E-12  7.50459063E-02  1.22842130E-01
  7.45206514E-02 -2.19907178E-10 -1.98613916E-11 -3.58426710E-01  1.05724049E-01
 -2.81536423E-10  7.15040519E-11 -2.45740657E-01  4.27705517E-02 -1.51824326E-10
 -3.70528233E-11  1.02841191E-01  4.60526937E-02  1.70330526E-11  2.44336239E-11
  2.63254458E-03 -3.17361220E-11  2.78225314E-03 -9.25615377E-03  1.40802318E-12
 -7.50535259E-02 -1.22854700E-01  7.45163922E-02 -2.66015432E-10 -3.32322235E-11
  3.58463959E-01  1.05718205E-01 -3.42517689E-10  5.35967133E-11  2.45770481E-01
  4.27689856E-02 -1.82367315E-10 -4.63783572E-11 -1.02841342E-01  4.60550084E-02
  5.47237888E-12  2.16392561E-11 -2.63301604E-03  2.58088803E-11 -2.78258868E-03
  9.25754529E-03 -1.99811837E-11 -1.12920075E-01 -1.40830119E-01  1.31924282E-02
 -1.91920600E-02  2.47126582E-11 -1.69918643E-11  1.12921419E-01  1.40835038E-01
 -1.31946602E-02 -1.91927633E-02  4.13335017E-11 -1.25776439E-11  1.52681006E-02
  2.57424628E-02 -1.74334004E-01 -3.53812372E-10 -7.00877637E-10 -7.50716206E-02
 -2.67167916E-01 -4.45037571E-10 -8.86522991E-10 -8.34460001E-02 -1.46925730E-01
 -3.51579529E-10 -7.10061669E-10  6.80117622E-03  3.91782392E-03  3.64418148E-11
  1.82314931E-11  2.32856657E-03  6.59317541E-11  8.40901806E-04 -5.45264425E-03
 -7.42423028E-11  1.52659551E-02  2.57388162E-02  1.74334168E-01  2.68980742E-10
  6.78648848E-10 -7.50602542E-02  2.67169525E-01  3.21221851E-10  8.53963752E-10
 -8.34336259E-02  1.46927840E-01  2.83509552E-10  6.92385223E-10  6.79499578E-03
 -3.91471388E-03 -3.69178081E-11 -1.83559640E-11  2.32869035E-03  6.27506880E-11
  8.40814040E-04 -5.45271538E-03 -8.49891397E-11  1.11554121E-01  1.54614813E-01
  1.27839728E-02  1.64344148E-02 -5.04075621E-11 -2.03896187E-12  1.11555074E-01
  1.54619632E-01  1.27837031E-02 -1.64350405E-02  6.79667872E-11  6.72847954E-12
 -4.31261905E-10 -7.40924520E-10  9.27966226E-10 -8.44003856E-02  1.81677091E-01
  2.41268507E-09  1.14943885E-09 -1.34026976E-01  2.88501466E-01  2.92663536E-09
  1.29091576E-09 -1.15287971E-01  2.48164590E-01  6.15458401E-10  3.05488556E-10
 -5.07093580E-04  1.09155834E-03  1.52824258E-10  1.20712613E-02  7.87356151E-11
 -7.61300292E-11 -5.60785897E-03  4.34111080E-10  7.45808831E-10  9.06578215E-10
 -8.44000009E-02  1.81676115E-01 -2.42958684E-09  1.11356003E-09 -1.34026279E-01
  2.88499768E-01 -2.93882442E-09  1.26968415E-09 -1.15287568E-01  2.48163526E-01
 -6.14735034E-10  3.07464810E-10 -5.07218647E-04  1.09182615E-03 -1.56876682E-10
 -1.20713736E-02 -8.15456813E-11  7.59560974E-11  5.60790510E-03 -7.46693862E-10
 -1.33484018E-09 -2.37757731E-10 -1.28442402E-10 -6.41205210E-03  1.38023426E-02
  7.51053053E-10  1.33593981E-09  2.35600534E-10 -1.31198237E-10 -6.41182207E-03
  1.38018337E-02 -6.15072782E-10 -1.06486213E-09  1.77597052E-09  1.79671447E-01
  8.34686970E-02  3.54528444E-09  2.32596059E-09  2.86960233E-01  1.33311113E-01
  4.54679249E-09  2.36752495E-09  2.48216323E-01  1.15312129E-01  1.29400008E-09
  5.74781183E-10  5.07346511E-03  2.35694708E-03  1.16868555E-10  5.80120957E-03
  1.41887650E-11 -3.41710240E-10  1.24874665E-02  5.98380422E-10  1.03651494E-09
  1.89127478E-09  1.79672205E-01  8.34689395E-02 -3.44737519E-09  2.52890210E-09
  2.86961027E-01  1.33311325E-01 -4.50032478E-09  2.46854240E-09  2.48217604E-01
  1.15312576E-01 -1.32713798E-09  5.40265896E-10  5.07377405E-03  2.35708936E-03
 -1.10911154E-10 -5.80118627E-03 -1.82302325E-11  3.38396582E-10 -1.24873987E-02
 -1.20361761E-09 -2.30646580E-09 -6.09677869E-10 -1.44340363E-10  1.49568791E-02
  6.94841201E-03  1.18366173E-09  2.28924497E-09  6.93494598E-10 -1.25903334E-10
  1.49564892E-02  6.94822124E-03 -9.09189848E-12  2.56829241E-12  5.22782435E-10
  9.30331449E-02 -2.00259445E-01 -1.14392992E-10  1.00897601E-09  1.44701620E-01
 -3.11478997E-01  3.65427380E-12  8.73652038E-10  1.41393068E-01 -3.04357152E-01
  4.84121434E-11  6.04478003E-11  1.78759268E-02 -3.84790277E-02 -8.15678601E-11
  1.53223323E-02 -1.09350430E-10 -4.60198161E-11 -7.11818407E-03  7.35493497E-11
  1.41734830E-10 -3.46630823E-10 -9.30334963E-02  2.00260372E-01 -5.48220923E-10
 -7.60203045E-10 -1.44702075E-01  3.11480284E-01 -6.72753546E-10 -6.55051680E-10
 -1.41393700E-01  3.04358783E-01 -2.10337654E-10  4.02999983E-11 -1.78760637E-02
  3.84793514E-02 -1.09066805E-10  1.53222212E-02 -1.09189021E-10 -1.54433072E-11
 -7.11814011E-03 -2.02936179E-11  1.58151940E-10  3.89164237E-11  6.77354254E-11
  9.19370395E-03 -1.97900020E-02  1.25604866E-10  4.58277600E-10  2.25410884E-10
 -7.57698306E-11 -9.19361654E-03  1.97898288E-02 -6.44311996E-02 -1.08453869E-01
  1.55307436E-01  1.98478407E-09 -9.16753716E-11  3.37330035E-01  2.21542224E-01
  2.86557161E-09 -5.12516846E-10  5.47008929E-01  2.16004984E-01  2.82416934E-09
 -5.75404880E-10  2.73844161E-01  1.08711792E-01  5.19073675E-10  8.22850472E-11
  1.93664445E-02 -3.04790374E-10 -3.49081283E-03 -2.76511524E-02 -2.28014248E-10
  6.44318966E-02  1.08454939E-01  1.55304667E-01 -4.18850404E-09 -3.26139922E-09
 -3.37333445E-01  2.21539193E-01 -6.72954535E-09 -5.44199909E-09 -5.47009674E-01
  2.16002766E-01 -6.67392298E-09 -5.46764273E-09 -2.73843096E-01  1.08713415E-01
 -1.06477902E-09 -7.21620022E-10 -1.93666937E-02  5.17838506E-11  3.49087170E-03
  2.76514698E-02 -2.71910138E-10 -1.10077202E-01 -2.25960131E-01 -1.54712414E-01
 -2.98680732E-03  2.16234937E-10 -3.24861692E-11  1.10079875E-01  2.25967891E-01
  1.54719844E-01 -2.98665331E-03 -4.22716093E-10 -3.63280737E-10  1.05759882E-09
  1.74287713E-09 -2.80184679E-09  1.97774312E-01  9.18785505E-02 -5.10765605E-09
 -4.39365425E-09  3.07677110E-01  1.42935305E-01 -9.00924500E-09 -4.32147941E-09
  3.07686228E-01  1.42939545E-01 -4.72944067E-09 -1.80041325E-09  5.20967354E-02
  2.42022065E-02 -3.32547211E-10 -7.28270137E-03  1.19785040E-10  2.69387711E-10
 -1.56764594E-02 -9.73904524E-10 -1.67682064E-09 -2.22697529E-09 -1.97773987E-01
 -9.18784438E-02  5.52611237E-09 -2.77926169E-09 -3.07676179E-01 -1.42934959E-01
  8.36444577E-09 -2.93309545E-09 -3.07685813E-01 -1.42939431E-01  4.68925728E-09
 -2.00292015E-09 -5.20968772E-02 -2.42022817E-02  2.84489493E-10 -7.28273030E-03
  1.40400634E-11 -6.21513509E-10 -1.56765375E-02  1.76198058E-09  3.17441611E-09
  2.35698589E-09 -1.84369833E-11  2.10911950E-02  9.79818146E-03 -1.68855479E-09
 -3.89075703E-09 -2.47654005E-09  8.76722245E-11 -2.10909009E-02 -9.79804796E-03
  2.80187037E-02  4.86775336E-02  4.74445564E-02  8.24557171E-12  9.83148349E-11
 -1.70732920E-01  8.31020254E-02  4.36823890E-11  2.77497965E-10 -4.12919737E-01
  1.12595619E-01  2.51366721E-10  3.26069031E-10  8.86531201E-01 -5.14560403E-01
  1.29148099E-10 -1.46292944E-09  5.94774901E-03  1.36940016E-11  4.15448367E-05
 -1.03719314E-02  3.19213533E-11  2.80185895E-02  4.86773166E-02 -4.74578357E-02
  2.87639588E-11 -8.68078142E-11 -1.70732734E-01 -8.31203610E-02  2.98666732E-11
 -2.57399831E-10 -4.12918747E-01 -1.12634030E-01 -1.61871546E-10 -2.95499606E-10
  8.86339477E-01  5.14689406E-01 -3.81033133E-10  1.38139063E-09  5.94807811E-03
  1.60673346E-11  4.15090792E-05 -1.03724519E-02  4.02983491E-11 -1.48434545E-03
  1.11494127E-01 -1.15254935E-01 -1.21953526E-02 -1.11769393E-11 -4.64901332E-11
 -1.48423473E-03  1.11497477E-01 -1.15238078E-01  1.21982257E-02  6.57870331E-13
  4.38000790E-11  8.48848964E-03  1.54409055E-02  8.89990369E-02 -4.82638461E-12
  1.09962445E-10 -6.92430428E-02  1.42430931E-01 -6.04662811E-11  1.14945377E-10
 -6.33996165E-02  1.92913506E-01  9.49122728E-11  2.93517956E-10 -2.06887271E+00
 -1.69854525E+00 -5.91565226E-10 -1.52423579E-09  6.31407114E-03  1.37609384E-11
 -4.94720101E-04 -1.01011992E-02  6.40664009E-11 -8.48708170E-03 -1.54383031E-02
  8.90082867E-02 -1.92458145E-11  1.04933537E-10  6.92306391E-02  1.42443735E-01
 -1.00008056E-10  1.04854455E-10  6.33999180E-02  1.92956753E-01  1.04693481E-10
  2.87513863E-10  2.06900434E+00 -1.69855003E+00 -1.20383148E-10 -1.35851977E-09
 -6.31062413E-03 -1.54950481E-11  4.94441761E-04  1.00957025E-02 -7.05913236E-11
 -2.02780547E-02  3.50590329E-02 -1.24755405E-01 -1.93671687E-02 -3.07492672E-11
 -8.02960192E-11  2.02683498E-02 -3.50790234E-02  1.24651310E-01 -1.93693899E-02
 -9.96601536E-12 -7.45548059E-11  7.96600486E-04  5.73970314E-04  9.22668760E-02
  6.67280400E-11  3.36120471E-10  1.52888974E-02  1.36448965E-01 -2.27640632E-11
  3.23960551E-10 -1.25938393E-01  3.87228184E-01 -9.28433926E-11  1.09742448E-09
 -5.43816783E-01 -4.87393643E-01  1.85225473E-10 -4.76305732E-10 -2.38124936E-02
  6.06676729E-11  2.03756593E-03  3.78050308E-02  5.39167844E-11  7.94790239E-04
  5.70792677E-04 -9.22678985E-02 -3.03348747E-12 -3.21684867E-10  1.53013177E-02
 -1.36448897E-01  1.01714021E-10 -3.02871607E-10 -1.25914777E-01 -3.87237303E-01
  4.44344947E-10 -1.01641358E-09 -5.43588580E-01  4.87163999E-01 -3.30838305E-10
  4.55343207E-10 -2.38130761E-02  5.25451602E-11  2.03757318E-03  3.78060335E-02
  1.77431772E-11  5.61373236E-02  1.95701845E-01  7.46785853E-01 -2.17006035E-02
 -6.19116973E-14 -4.08441798E-12  5.61445546E-02  1.95706603E-01  7.46848132E-01
  2.16989294E-02 -1.10169065E-11  1.23091741E-12 -2.30902948E-12  4.01988485E-12
  1.17881634E-10  3.46855326E-02 -7.46630820E-02 -9.35386276E-11  2.47173212E-10
  3.97449564E-02 -8.55538903E-02  3.86511028E-10 -1.99156653E-10  1.09786647E-01
 -2.36323639E-01 -5.87088582E-09 -4.12635121E-09 -2.76791455E-01  5.95813422E-01
  1.45923255E-11 -3.59900970E-03 -2.72896860E-11 -3.85211847E-11  1.67195536E-03
  1.42546347E-12 -5.57645516E-12  1.28656767E-10  3.46862573E-02 -7.46646489E-02
  9.95668658E-11  2.62856968E-10  3.97458281E-02 -8.55557940E-02 -3.87425912E-10
 -1.64681920E-10  1.09788697E-01 -2.36328081E-01  5.86561163E-09 -4.23624198E-09
 -2.76803307E-01  5.95839035E-01 -1.11355690E-11  3.59924339E-03  2.82570814E-11
  3.52554154E-11 -1.67206384E-03 -4.39332133E-11 -3.30754588E-10 -9.04018039E-10
  6.77811813E-12 -1.64552385E-03  3.54210670E-03  3.72938556E-11  3.15407385E-10
  8.78385640E-10  5.91640750E-12 -1.64581987E-03  3.54274342E-03 -2.12713327E-11
 -2.14146092E-11  1.69212162E-10 -7.41013190E-02 -3.44245442E-02 -9.16546290E-11
  3.72649176E-10 -9.10432330E-02 -4.22951063E-02  4.05245143E-10  3.08198565E-10
 -2.36102740E-01 -1.09684028E-01  1.32087155E-09 -9.62124009E-10  5.95012403E-01
  2.76419289E-01  5.70094270E-11 -1.86344249E-03 -1.22855954E-12 -3.93292265E-11
 -4.01118775E-03  3.07244719E-11  3.78908280E-11  1.13717695E-10 -7.41028750E-02
 -3.44252706E-02  2.87422906E-11  2.89656860E-10 -9.10450454E-02 -4.22959613E-02
 -4.62571044E-10  1.49010555E-10 -2.36107135E-01 -1.09686086E-01 -1.14422295E-09
 -4.01457891E-10  5.95037882E-01  2.76431172E-01 -6.80667792E-11  1.86353931E-03
  3.20278705E-12  5.48018952E-11  4.01139622E-03 -1.00156820E-10 -3.74812726E-10
 -2.53039200E-10  1.66191347E-11  2.96240969E-03  1.37621817E-03  1.30540227E-10
  4.37844569E-10  3.53127390E-10  2.23410158E-11  2.96303856E-03  1.37651006E-03
  6.47433885E-12  1.61962412E-11  9.16145666E-11  3.21697557E-02 -6.92476502E-02
 -7.45487220E-11  1.02416329E-10  3.65703785E-02 -7.87203371E-02 -1.29061798E-10
  5.22642561E-10  1.10226766E-01 -2.37270830E-01  1.36338113E-09 -9.75751648E-10
 -6.50625698E-01  1.40051733E+00 -3.26691276E-11 -6.64754714E-03 -3.00429064E-11