 Entering Gaussian System, Link 0=g16
 Initial command:
 /home/szhao/Apps/g16/l1.exe "/home/szhao/tmp/Gau-74707.inp" -scrdir="/home/szhao/tmp/"
 Default is to use a total of  16 processors:
                               16 via shared-memory
                                1 via Linda
 Entering Link 1 = /home/szhao/Apps/g16/l1.exe PID=     74709.
  
 Copyright (c) 1988,1990,1992,1993,1995,1998,2003,2009,2016,
            Gaussian, Inc.  All Rights Reserved.
  
 This is part of the Gaussian(R) 16 program.  It is based on
 the Gaussian(R) 09 system (copyright 2009, Gaussian, Inc.),
 the Gaussian(R) 03 system (copyright 2003, Gaussian, Inc.),
 the Gaussian(R) 98 system (copyright 1998, Gaussian, Inc.),
 the Gaussian(R) 94 system (copyright 1995, Gaussian, Inc.),
 the Gaussian 92(TM) system (copyright 1992, Gaussian, Inc.),
 the Gaussian 90(TM) system (copyright 1990, Gaussian, Inc.),
 the Gaussian 88(TM) system (copyright 1988, Gaussian, Inc.),
 the Gaussian 86(TM) system (copyright 1986, Carnegie Mellon
 University), and the Gaussian 82(TM) system (copyright 1983,
 Carnegie Mellon University). Gaussian is a federally registered
 trademark of Gaussian, Inc.
  
 This software contains proprietary and confidential information,
 including trade secrets, belonging to Gaussian, Inc.
  
 This software is provided under written license and may be
 used, copied, transmitted, or stored only in accord with that
 written license.
  
 The following legend is applicable only to US Government
 contracts under FAR:
  
                    RESTRICTED RIGHTS LEGEND
  
 Use, reproduction and disclosure by the US Government is
 subject to restrictions as set forth in subparagraphs (a)
 and (c) of the Commercial Computer Software - Restricted
 Rights clause in FAR 52.227-19.
  
 Gaussian, Inc.
 340 Quinnipiac St., Bldg. 40, Wallingford CT 06492
  
  
 ---------------------------------------------------------------
 Warning -- This program may not be used in any manner that
 competes with the business of Gaussian, Inc. or will provide
 assistance to any competitor of Gaussian, Inc.  The licensee
 of this program is prohibited from giving any competitor of
 Gaussian, Inc. access to this program.  By using this program,
 the user acknowledges that Gaussian, Inc. is engaged in the
 business of creating and licensing software in the field of
 computational chemistry and represents and warrants to the
 licensee that it is not a competitor of Gaussian, Inc. and that
 it will not use this program in any manner prohibited above.
 ---------------------------------------------------------------
  

 Cite this work as:
 Gaussian 16, Revision A.03,
 M. J. Frisch, G. W. Trucks, H. B. Schlegel, G. E. Scuseria, 
 M. A. Robb, J. R. Cheeseman, G. Scalmani, V. Barone, 
 G. A. Petersson, H. Nakatsuji, X. Li, M. Caricato, A. V. Marenich, 
 J. Bloino, B. G. Janesko, R. Gomperts, B. Mennucci, H. P. Hratchian, 
 J. V. Ortiz, A. F. Izmaylov, J. L. Sonnenberg, D. Williams-Young, 
 F. Ding, F. Lipparini, F. Egidi, J. Goings, B. Peng, A. Petrone, 
 T. Henderson, D. Ranasinghe, V. G. Zakrzewski, J. Gao, N. Rega, 
 G. Zheng, W. Liang, M. Hada, M. Ehara, K. Toyota, R. Fukuda, 
 J. Hasegawa, M. Ishida, T. Nakajima, Y. Honda, O. Kitao, H. Nakai, 
 T. Vreven, K. Throssell, J. A. Montgomery, Jr., J. E. Peralta, 
 F. Ogliaro, M. J. Bearpark, J. J. Heyd, E. N. Brothers, K. N. Kudin, 
 V. N. Staroverov, T. A. Keith, R. Kobayashi, J. Normand, 
 K. Raghavachari, A. P. Rendell, J. C. Burant, S. S. Iyengar, 
 J. Tomasi, M. Cossi, J. M. Millam, M. Klene, C. Adamo, R. Cammi, 
 J. W. Ochterski, R. L. Martin, K. Morokuma, O. Farkas, 
 J. B. Foresman, and D. J. Fox, Gaussian, Inc., Wallingford CT, 2016.
 
 ******************************************
 Gaussian 16:  ES64L-G16RevA.03 25-Dec-2016
                25-Nov-2024 
 ******************************************
 %chk=opt.chk
 %mem=4GB
 %nprocshared=8
 Will use up to    8 processors via shared memory.
 -------------------------------------------
 #p UM062X/6-31+G** freq=raman int=superfine
 -------------------------------------------
 1/10=4,30=1,38=1/1,3;
 2/12=2,17=6,18=5,40=1/2;
 3/5=1,6=6,7=111,11=2,25=1,30=1,71=2,74=-55,75=-7,116=2,140=1/1,2,3;
 4//1;
 5/5=2,38=5,98=1/2;
 8/6=4,10=90,11=11/1;
 10/13=10,15=4/2;
 11/6=3,8=1,9=11,15=111,16=1/1,2,10;
 10/6=1/2;
 6/7=2,8=2,9=2,10=2,28=1/1;
 7/8=1,10=1,25=1/1,2,3,16;
 1/10=4,30=1/3;
 99//99;
 Leave Link    1 at Mon Nov 25 04:46:15 2024, MaxMem=   536870912 cpu:               0.3 elap:               0.0
 (Enter /home/szhao/Apps/g16/l101.exe)
 -------------------
 Title Card Required
 -------------------
 Symbolic Z-matrix:
 Charge =  1 Multiplicity = 2
 C                     0.        0.70116   0. 
 C                     0.       -0.70116   0. 
 H                     0.92032   1.258    -0.16411 
 H                    -0.92032   1.258     0.16411 
 H                    -0.92032  -1.258    -0.16411 
 H                     0.92032  -1.258     0.16411 
 
 ITRead=  0  0  0  0  0  0
 MicOpt= -1 -1 -1 -1 -1 -1
 NAtoms=      6 NQM=        6 NQMF=       0 NMMI=      0 NMMIF=      0
                NMic=       0 NMicF=      0.
                    Isotopes and Nuclear Properties:
 (Nuclear quadrupole moments (NQMom) in fm**2, nuclear magnetic moments (NMagM)
  in nuclear magnetons)

  Atom         1           2           3           4           5           6
 IAtWgt=          12          12           1           1           1           1
 AtmWgt=  12.0000000  12.0000000   1.0078250   1.0078250   1.0078250   1.0078250
 NucSpn=           0           0           1           1           1           1
 AtZEff=  -0.0000000  -0.0000000  -0.0000000  -0.0000000  -0.0000000  -0.0000000
 NQMom=    0.0000000   0.0000000   0.0000000   0.0000000   0.0000000   0.0000000
 NMagM=    0.0000000   0.0000000   2.7928460   2.7928460   2.7928460   2.7928460
 AtZNuc=   6.0000000   6.0000000   1.0000000   1.0000000   1.0000000   1.0000000
 Leave Link  101 at Mon Nov 25 04:46:15 2024, MaxMem=   536870912 cpu:               1.2 elap:               0.2
 (Enter /home/szhao/Apps/g16/l103.exe)

 GradGradGradGradGradGradGradGradGradGradGradGradGradGradGradGradGradGrad
 Berny optimization.
 Initialization pass.
 Trust Radius=3.00D-01 FncErr=1.00D-07 GrdErr=1.00D-07 EigMax=2.50D+02 EigMin=1.00D-04
 Number of steps in this run=      2 maximum allowed number of steps=      2.
 GradGradGradGradGradGradGradGradGradGradGradGradGradGradGradGradGradGrad

 Leave Link  103 at Mon Nov 25 04:46:15 2024, MaxMem=   536870912 cpu:               0.1 elap:               0.0
 (Enter /home/szhao/Apps/g16/l202.exe)
                          Input orientation:                          
 ---------------------------------------------------------------------
 Center     Atomic      Atomic             Coordinates (Angstroms)
 Number     Number       Type             X           Y           Z
 ---------------------------------------------------------------------
      1          6           0        0.000000    0.701158    0.000000
      2          6           0        0.000000   -0.701158    0.000000
      3          1           0        0.920317    1.257996   -0.164109
      4          1           0       -0.920317    1.257997    0.164109
      5          1           0       -0.920317   -1.257996   -0.164109
      6          1           0        0.920317   -1.257997    0.164109
 ---------------------------------------------------------------------
                    Distance matrix (angstroms):
                    1          2          3          4          5
     1  C    0.000000
     2  C    1.402316   0.000000
     3  H    1.088110   2.170760   0.000000
     4  H    1.088111   2.170761   1.869669   0.000000
     5  H    2.170760   1.088110   3.117395   2.537311   0.000000
     6  H    2.170761   1.088111   2.537311   3.117396   1.869669
                    6
     6  H    0.000000
 Stoichiometry    C2H4(1+,2)
 Framework group  C2[X(C2H4)]
 Deg. of freedom     7
 Full point group                 C2      NOp   2
 Largest Abelian subgroup         C2      NOp   2
 Largest concise Abelian subgroup C2      NOp   2
                         Standard orientation:                         
 ---------------------------------------------------------------------
 Center     Atomic      Atomic             Coordinates (Angstroms)
 Number     Number       Type             X           Y           Z
 ---------------------------------------------------------------------
      1          6           0       -0.000000    0.701158    0.000000
      2          6           0       -0.000000   -0.701158    0.000000
      3          1           0       -0.920317    1.257996    0.164109
      4          1           0        0.920317    1.257997   -0.164109
      5          1           0        0.920317   -1.257996    0.164109
      6          1           0       -0.920317   -1.257997   -0.164109
 ---------------------------------------------------------------------
 Rotational constants (GHZ):         143.4507422          27.6355694          23.4046093
 Leave Link  202 at Mon Nov 25 04:46:15 2024, MaxMem=   536870912 cpu:               0.0 elap:               0.0
 (Enter /home/szhao/Apps/g16/l301.exe)
 Standard basis: 6-31+G(d,p) (6D, 7F)
 Ernie: Thresh=  0.10000D-02 Tol=  0.10000D-05 Strict=F.
 There are    29 symmetry adapted cartesian basis functions of A   symmetry.
 There are    29 symmetry adapted cartesian basis functions of B   symmetry.
 There are    29 symmetry adapted basis functions of A   symmetry.
 There are    29 symmetry adapted basis functions of B   symmetry.
    58 basis functions,    92 primitive gaussians,    58 cartesian basis functions
     8 alpha electrons        7 beta electrons
       nuclear repulsion energy        32.4300648199 Hartrees.
 IExCor= 4336 DFT=T Ex+Corr=M062X ExCW=0 ScaHFX=  0.540000
 ScaDFX=  1.000000  1.000000  1.000000  1.000000 ScalE2=  1.000000  1.000000
 IRadAn=      7 IRanWt=     -1 IRanGd=            0 ICorTp=0 IEmpDi=  4
 NAtoms=    6 NActive=    6 NUniq=    3 SFac= 4.00D+00 NAtFMM=   60 NAOKFM=F Big=F
 Integral buffers will be    131072 words long.
 Raffenetti 2 integral format.
 Two-electron integral symmetry is turned on.
 Leave Link  301 at Mon Nov 25 04:46:15 2024, MaxMem=   536870912 cpu:               0.3 elap:               0.0
 (Enter /home/szhao/Apps/g16/l302.exe)
 NPDir=0 NMtPBC=     1 NCelOv=     1 NCel=       1 NClECP=     1 NCelD=      1
         NCelK=      1 NCelE2=     1 NClLst=     1 CellRange=     0.0.
 One-electron integrals computed using PRISM.
 One-electron integral symmetry used in STVInt
 NBasis=    58 RedAO= T EigKep=  2.91D-04  NBF=    29    29
 NBsUse=    58 1.00D-06 EigRej= -1.00D+00 NBFU=    29    29
 Precomputing XC quadrature grid using
 IXCGrd= 4 IRadAn=           7 IRanWt=          -1 IRanGd=           0 AccXCQ= 0.00D+00.
 Generated NRdTot=       0 NPtTot=           0 NUsed=           0 NTot=          32
 NSgBfM=    58    58    58    58    58 MxSgAt=     6 MxSgA2=     6.
 Leave Link  302 at Mon Nov 25 04:46:15 2024, MaxMem=   536870912 cpu:               0.9 elap:               0.1
 (Enter /home/szhao/Apps/g16/l303.exe)
 DipDrv:  MaxL=1.
 Leave Link  303 at Mon Nov 25 04:46:15 2024, MaxMem=   536870912 cpu:               0.2 elap:               0.0
 (Enter /home/szhao/Apps/g16/l401.exe)
 ExpMin= 4.38D-02 ExpMax= 3.05D+03 ExpMxC= 4.57D+02 IAcc=3 IRadAn=         7 AccDes= 0.00D+00
 Harris functional with IExCor= 1009 and IRadAn=       7 diagonalized for initial guess.
 HarFok:  IExCor= 1009 AccDes= 0.00D+00 IRadAn=         7 IDoV= 1 UseB2=F ITyADJ=14
 ICtDFT=  3500011 ScaDFX=  1.000000  1.000000  1.000000  1.000000
 FoFCou: FMM=F IPFlag=           0 FMFlag=      100000 FMFlg1=           0
         NFxFlg=           0 DoJE=T BraDBF=F KetDBF=T FulRan=T
         wScrn=  0.000000 ICntrl=       500 IOpCl=  0 I1Cent=   200000004 NGrid=           0
         NMat0=    1 NMatS0=      1 NMatT0=    0 NMatD0=    1 NMtDS0=    0 NMtDT0=    0
 Petite list used in FoFCou.
 Harris En= -78.1816068918539    
 JPrj=0 DoOrth=F DoCkMO=F.
 Initial guess orbital symmetries:
 Alpha Orbitals:
       Occupied  (A) (B) (A) (B) (B) (A) (A) (A)
       Virtual   (B) (A) (B) (B) (A) (A) (A) (B) (A) (B) (B) (B)
                 (B) (A) (A) (B) (A) (B) (B) (A) (A) (B) (A) (B)
                 (A) (B) (B) (A) (A) (A) (B) (A) (A) (B) (B) (B)
                 (A) (B) (B) (B) (A) (A) (A) (B) (A) (B) (B) (A)
                 (A) (B)
 Beta  Orbitals:
       Occupied  (A) (B) (A) (B) (B) (A) (A)
       Virtual   (A) (B) (A) (B) (B) (A) (A) (A) (B) (A) (B) (B)
                 (B) (B) (A) (A) (B) (A) (B) (B) (A) (A) (B) (A)
                 (B) (A) (B) (B) (A) (A) (A) (B) (A) (A) (B) (B)
                 (B) (A) (B) (B) (B) (A) (A) (A) (B) (A) (B) (B)
                 (A) (A) (B)
 The electronic state of the initial guess is 2-A.
 Initial guess <Sx>= 0.0000 <Sy>= 0.0000 <Sz>= 0.5000 <S**2>= 0.7500 S= 0.5000
 Leave Link  401 at Mon Nov 25 04:46:15 2024, MaxMem=   536870912 cpu:               1.6 elap:               0.2
 (Enter /home/szhao/Apps/g16/l502.exe)
 Keep R1 and R2 ints in memory in symmetry-blocked form, NReq=8545780.
 FoFCou: FMM=F IPFlag=           0 FMFlag=           0 FMFlg1=           0
         NFxFlg=           0 DoJE=F BraDBF=F KetDBF=F FulRan=T
         wScrn=  0.000000 ICntrl=       600 IOpCl=  0 I1Cent=           0 NGrid=           0
         NMat0=    1 NMatS0=   1711 NMatT0=    0 NMatD0=    1 NMtDS0=    0 NMtDT0=    0
 Petite list used in FoFCou.
 UHF open shell SCF:
 Using DIIS extrapolation, IDIIS=  1040.
 NGot=   536870912 LenX=   535393084 LenY=   535389279
 Requested convergence on RMS density matrix=1.00D-08 within 128 cycles.
 Requested convergence on MAX density matrix=1.00D-06.
 Requested convergence on             energy=1.00D-06.
 No special actions if energy rises.

 Cycle   1  Pass 1  IDiag  1:
 E= -78.1619736390368    
 DIIS: error= 2.18D-02 at cycle   1 NSaved=   1.
 NSaved= 1 IEnMin= 1 EnMin= -78.1619736390368     IErMin= 1 ErrMin= 2.18D-02
 ErrMax= 2.18D-02  0.00D+00 EMaxC= 1.00D-01 BMatC= 5.08D-02 BMatP= 5.08D-02
 IDIUse=3 WtCom= 7.82D-01 WtEn= 2.18D-01
 Coeff-Com:  0.100D+01
 Coeff-En:   0.100D+01
 Coeff:      0.100D+01
 Gap=     0.359 Goal=   None    Shift=    0.000
 Gap=     0.324 Goal=   None    Shift=    0.000
 GapD=    0.324 DampG=1.000 DampE=0.500 DampFc=0.5000 IDamp=-1.
 Damping current iteration by 5.00D-01
 RMSDP=2.38D-03 MaxDP=2.65D-02              OVMax= 3.44D-02

 Cycle   2  Pass 1  IDiag  1:
 E= -78.1658819752125     Delta-E=       -0.003908336176 Rises=F Damp=T
 DIIS: error= 1.14D-02 at cycle   2 NSaved=   2.
 NSaved= 2 IEnMin= 2 EnMin= -78.1658819752125     IErMin= 2 ErrMin= 1.14D-02
 ErrMax= 1.14D-02  0.00D+00 EMaxC= 1.00D-01 BMatC= 1.20D-02 BMatP= 5.08D-02
 IDIUse=3 WtCom= 8.86D-01 WtEn= 1.14D-01
 Coeff-Com: -0.825D+00 0.182D+01
 Coeff-En:   0.000D+00 0.100D+01
 Coeff:     -0.731D+00 0.173D+01
 Gap=     0.358 Goal=   None    Shift=    0.000
 Gap=     0.317 Goal=   None    Shift=    0.000
 RMSDP=1.24D-03 MaxDP=1.44D-02 DE=-3.91D-03 OVMax= 1.21D-02

 Cycle   3  Pass 1  IDiag  1:
 E= -78.1698812980190     Delta-E=       -0.003999322807 Rises=F Damp=F
 DIIS: error= 1.89D-03 at cycle   3 NSaved=   3.
 NSaved= 3 IEnMin= 3 EnMin= -78.1698812980190     IErMin= 3 ErrMin= 1.89D-03
 ErrMax= 1.89D-03  0.00D+00 EMaxC= 1.00D-01 BMatC= 3.56D-04 BMatP= 1.20D-02
 IDIUse=3 WtCom= 9.81D-01 WtEn= 1.89D-02
 Coeff-Com: -0.248D+00 0.479D+00 0.769D+00
 Coeff-En:   0.000D+00 0.000D+00 0.100D+01
 Coeff:     -0.243D+00 0.470D+00 0.773D+00
 Gap=     0.358 Goal=   None    Shift=    0.000
 Gap=     0.320 Goal=   None    Shift=    0.000
 RMSDP=1.66D-04 MaxDP=2.60D-03 DE=-4.00D-03 OVMax= 8.06D-03

 Cycle   4  Pass 1  IDiag  1:
 E= -78.1700125442648     Delta-E=       -0.000131246246 Rises=F Damp=F
 DIIS: error= 5.86D-04 at cycle   4 NSaved=   4.
 NSaved= 4 IEnMin= 4 EnMin= -78.1700125442648     IErMin= 4 ErrMin= 5.86D-04
 ErrMax= 5.86D-04  0.00D+00 EMaxC= 1.00D-01 BMatC= 1.96D-05 BMatP= 3.56D-04
 IDIUse=3 WtCom= 9.94D-01 WtEn= 5.86D-03
 Coeff-Com:  0.778D-01-0.162D+00-0.100D+00 0.118D+01
 Coeff-En:   0.000D+00 0.000D+00 0.000D+00 0.100D+01
 Coeff:      0.774D-01-0.161D+00-0.996D-01 0.118D+01
 Gap=     0.358 Goal=   None    Shift=    0.000
 Gap=     0.320 Goal=   None    Shift=    0.000
 RMSDP=7.90D-05 MaxDP=9.22D-04 DE=-1.31D-04 OVMax= 6.10D-03

 Cycle   5  Pass 1  IDiag  1:
 E= -78.1700351102846     Delta-E=       -0.000022566020 Rises=F Damp=F
 DIIS: error= 2.90D-04 at cycle   5 NSaved=   5.
 NSaved= 5 IEnMin= 5 EnMin= -78.1700351102846     IErMin= 5 ErrMin= 2.90D-04
 ErrMax= 2.90D-04  0.00D+00 EMaxC= 1.00D-01 BMatC= 2.61D-06 BMatP= 1.96D-05
 IDIUse=3 WtCom= 9.97D-01 WtEn= 2.90D-03
 Coeff-Com:  0.191D-01-0.362D-01-0.667D-01-0.164D+00 0.125D+01
 Coeff-En:   0.000D+00 0.000D+00 0.000D+00 0.000D+00 0.100D+01
 Coeff:      0.190D-01-0.361D-01-0.665D-01-0.163D+00 0.125D+01
 Gap=     0.358 Goal=   None    Shift=    0.000
 Gap=     0.321 Goal=   None    Shift=    0.000
 RMSDP=3.91D-05 MaxDP=5.45D-04 DE=-2.26D-05 OVMax= 3.70D-03

 Cycle   6  Pass 1  IDiag  1:
 E= -78.1700400877749     Delta-E=       -0.000004977490 Rises=F Damp=F
 DIIS: error= 1.06D-04 at cycle   6 NSaved=   6.
 NSaved= 6 IEnMin= 6 EnMin= -78.1700400877749     IErMin= 6 ErrMin= 1.06D-04
 ErrMax= 1.06D-04  0.00D+00 EMaxC= 1.00D-01 BMatC= 3.49D-07 BMatP= 2.61D-06
 IDIUse=3 WtCom= 9.99D-01 WtEn= 1.06D-03
 Coeff-Com: -0.171D-01 0.341D-01 0.443D-01-0.778D-01-0.495D+00 0.151D+01
 Coeff-En:   0.000D+00 0.000D+00 0.000D+00 0.000D+00 0.000D+00 0.100D+01
 Coeff:     -0.171D-01 0.341D-01 0.443D-01-0.777D-01-0.494D+00 0.151D+01
 Gap=     0.358 Goal=   None    Shift=    0.000
 Gap=     0.320 Goal=   None    Shift=    0.000
 RMSDP=1.75D-05 MaxDP=3.13D-04 DE=-4.98D-06 OVMax= 1.75D-03

 Cycle   7  Pass 1  IDiag  1:
 E= -78.1700409261094     Delta-E=       -0.000000838335 Rises=F Damp=F
 DIIS: error= 2.83D-05 at cycle   7 NSaved=   7.
 NSaved= 7 IEnMin= 7 EnMin= -78.1700409261094     IErMin= 7 ErrMin= 2.83D-05
 ErrMax= 2.83D-05  0.00D+00 EMaxC= 1.00D-01 BMatC= 2.57D-08 BMatP= 3.49D-07
 IDIUse=1 WtCom= 1.00D+00 WtEn= 0.00D+00
 Coeff-Com:  0.614D-02-0.125D-01-0.140D-01 0.432D-01 0.146D+00-0.745D+00
 Coeff-Com:  0.158D+01
 Coeff:      0.614D-02-0.125D-01-0.140D-01 0.432D-01 0.146D+00-0.745D+00
 Coeff:      0.158D+01
 Gap=     0.358 Goal=   None    Shift=    0.000
 Gap=     0.320 Goal=   None    Shift=    0.000
 RMSDP=5.30D-06 MaxDP=9.33D-05 DE=-8.38D-07 OVMax= 5.27D-04

 Cycle   8  Pass 1  IDiag  1:
 E= -78.1700409886938     Delta-E=       -0.000000062584 Rises=F Damp=F
 DIIS: error= 4.73D-06 at cycle   8 NSaved=   8.
 NSaved= 8 IEnMin= 8 EnMin= -78.1700409886938     IErMin= 8 ErrMin= 4.73D-06
 ErrMax= 4.73D-06  0.00D+00 EMaxC= 1.00D-01 BMatC= 7.47D-10 BMatP= 2.57D-08
 IDIUse=1 WtCom= 1.00D+00 WtEn= 0.00D+00
 Coeff-Com: -0.121D-02 0.245D-02 0.280D-02-0.114D-01-0.222D-01 0.164D+00
 Coeff-Com: -0.512D+00 0.138D+01
 Coeff:     -0.121D-02 0.245D-02 0.280D-02-0.114D-01-0.222D-01 0.164D+00
 Coeff:     -0.512D+00 0.138D+01
 Gap=     0.358 Goal=   None    Shift=    0.000
 Gap=     0.320 Goal=   None    Shift=    0.000
 RMSDP=8.42D-07 MaxDP=1.41D-05 DE=-6.26D-08 OVMax= 8.33D-05

 Cycle   9  Pass 1  IDiag  1:
 E= -78.1700409901049     Delta-E=       -0.000000001411 Rises=F Damp=F
 DIIS: error= 5.57D-07 at cycle   9 NSaved=   9.
 NSaved= 9 IEnMin= 9 EnMin= -78.1700409901049     IErMin= 9 ErrMin= 5.57D-07
 ErrMax= 5.57D-07  0.00D+00 EMaxC= 1.00D-01 BMatC= 9.39D-12 BMatP= 7.47D-10
 IDIUse=1 WtCom= 1.00D+00 WtEn= 0.00D+00
 Coeff-Com:  0.972D-04-0.195D-03-0.224D-03 0.984D-03 0.101D-02-0.128D-01
 Coeff-Com:  0.529D-01-0.256D+00 0.121D+01
 Coeff:      0.972D-04-0.195D-03-0.224D-03 0.984D-03 0.101D-02-0.128D-01
 Coeff:      0.529D-01-0.256D+00 0.121D+01
 Gap=     0.358 Goal=   None    Shift=    0.000
 Gap=     0.320 Goal=   None    Shift=    0.000
 RMSDP=9.26D-08 MaxDP=1.48D-06 DE=-1.41D-09 OVMax= 8.76D-06

 Cycle  10  Pass 1  IDiag  1:
 E= -78.1700409901211     Delta-E=       -0.000000000016 Rises=F Damp=F
 DIIS: error= 4.44D-08 at cycle  10 NSaved=  10.
 NSaved=10 IEnMin=10 EnMin= -78.1700409901211     IErMin=10 ErrMin= 4.44D-08
 ErrMax= 4.44D-08  0.00D+00 EMaxC= 1.00D-01 BMatC= 1.13D-13 BMatP= 9.39D-12
 IDIUse=1 WtCom= 1.00D+00 WtEn= 0.00D+00
 Coeff-Com: -0.533D-05 0.101D-04 0.985D-05-0.481D-04 0.448D-04 0.401D-03
 Coeff-Com: -0.337D-02 0.262D-01-0.219D+00 0.120D+01
 Coeff:     -0.533D-05 0.101D-04 0.985D-05-0.481D-04 0.448D-04 0.401D-03
 Coeff:     -0.337D-02 0.262D-01-0.219D+00 0.120D+01
 Gap=     0.358 Goal=   None    Shift=    0.000
 Gap=     0.320 Goal=   None    Shift=    0.000
 RMSDP=8.78D-09 MaxDP=9.69D-08 DE=-1.62D-11 OVMax= 6.14D-07

 SCF Done:  E(UM062X) =  -78.1700409901     A.U. after   10 cycles
            NFock= 10  Conv=0.88D-08     -V/T= 2.0088
 <Sx>= 0.0000 <Sy>= 0.0000 <Sz>= 0.5000 <S**2>= 0.7536 S= 0.5018
 <L.S>=  0.00000000000    
 KE= 7.748941014515D+01 PE=-2.407255649099D+02 EE= 5.263604895478D+01
 Annihilation of the first spin contaminant:
 S**2 before annihilation     0.7536,   after     0.7500
 Leave Link  502 at Mon Nov 25 04:46:18 2024, MaxMem=   536870912 cpu:              21.4 elap:               2.7
 (Enter /home/szhao/Apps/g16/l801.exe)
 DoSCS=F DFT=T ScalE2(SS,OS)=  1.000000  1.000000
 Range of M.O.s used for correlation:     1    58
 NBasis=    58 NAE=     8 NBE=     7 NFC=     0 NFV=     0
 NROrb=     58 NOA=     8 NOB=     7 NVA=    50 NVB=    51

 **** Warning!!: The largest alpha MO coefficient is  0.24501485D+02


 **** Warning!!: The largest beta MO coefficient is  0.29035405D+02

 Leave Link  801 at Mon Nov 25 04:46:18 2024, MaxMem=   536870912 cpu:               0.2 elap:               0.0
 (Enter /home/szhao/Apps/g16/l1002.exe)
 Minotr:  UHF open shell wavefunction.
          Direct CPHF calculation.
          Differentiating once with respect to electric field.
                with respect to dipole field.
          Electric field/nuclear overlap derivatives assumed to be zero.
          Using symmetry in CPHF.
          Requested convergence is 1.0D-08 RMS, and 1.0D-07 maximum.
          Secondary convergence is 1.0D-12 RMS, and 1.0D-12 maximum.
          NewPWx=F KeepS1=T KeepF1=T KeepIn=T MapXYZ=F SortEE=F KeepMc=T.
         2699 words used for storage of precomputed grid.
 Keep R1 and R2 ints in memory in symmetry-blocked form, NReq=8499077.
 FoFCou: FMM=F IPFlag=           0 FMFlag=           0 FMFlg1=           0
         NFxFlg=           0 DoJE=F BraDBF=F KetDBF=F FulRan=T
         wScrn=  0.000000 ICntrl=       600 IOpCl=  0 I1Cent=           0 NGrid=           0
         NMat0=    1 NMatS0=   1711 NMatT0=    0 NMatD0=    1 NMtDS0=    0 NMtDT0=    0
 Petite list used in FoFCou.
 Two-electron integral symmetry used by symmetrizing perturbed Fock matrices.
          MDV=     536870912 using IRadAn=       4.
          Solving linear equations simultaneously, MaxMat=       0.
          There are     3 degrees of freedom in the 1st order CPHF.  IDoFFX=0 NUNeed=     3.
      3 vectors produced by pass  0 Test12= 2.52D-14 3.33D-08 XBig12= 2.56D+01 3.50D+00.
 AX will form     3 AO Fock derivatives at one time.
      3 vectors produced by pass  1 Test12= 2.52D-14 3.33D-08 XBig12= 2.86D+00 4.30D-01.
      3 vectors produced by pass  2 Test12= 2.52D-14 3.33D-08 XBig12= 5.38D-01 4.16D-01.
      3 vectors produced by pass  3 Test12= 2.52D-14 3.33D-08 XBig12= 2.09D-02 3.66D-02.
      3 vectors produced by pass  4 Test12= 2.52D-14 3.33D-08 XBig12= 2.33D-04 4.54D-03.
      3 vectors produced by pass  5 Test12= 2.52D-14 3.33D-08 XBig12= 6.39D-06 7.60D-04.
      3 vectors produced by pass  6 Test12= 2.52D-14 3.33D-08 XBig12= 1.88D-07 2.24D-04.
      3 vectors produced by pass  7 Test12= 2.52D-14 3.33D-08 XBig12= 4.88D-09 3.02D-05.
      3 vectors produced by pass  8 Test12= 2.52D-14 3.33D-08 XBig12= 1.19D-10 5.56D-06.
      2 vectors produced by pass  9 Test12= 2.52D-14 3.33D-08 XBig12= 1.77D-12 4.68D-07.
 InvSVY:  IOpt=1 It=  1 EMax= 4.44D-16
 Solved reduced A of dimension    29 with     3 vectors.
 End of Minotr F.D. properties file   721 does not exist.
 End of Minotr F.D. properties file   722 does not exist.
 End of Minotr F.D. properties file   788 does not exist.
 Leave Link 1002 at Mon Nov 25 04:46:20 2024, MaxMem=   536870912 cpu:              15.9 elap:               2.0
 (Enter /home/szhao/Apps/g16/l1101.exe)
 Using compressed storage, NAtomX=     6.
 Will process      7 centers per pass.
 Leave Link 1101 at Mon Nov 25 04:46:20 2024, MaxMem=   536870912 cpu:               0.7 elap:               0.1
 (Enter /home/szhao/Apps/g16/l1102.exe)
 Symmetrizing basis deriv contribution to polar:
 IMax=3 JMax=2 DiffMx= 0.00D+00
 Leave Link 1102 at Mon Nov 25 04:46:20 2024, MaxMem=   536870912 cpu:               0.3 elap:               0.0
 (Enter /home/szhao/Apps/g16/l1110.exe)
 Forming Gx(P) for the SCF density, NAtomX=     6.
 Integral derivatives from FoFJK, PRISM(SPDF).
 Do as many integral derivatives as possible in FoFJK.
 G2DrvN: MDV=     536870356.
 G2DrvN: will do     7 centers at a time, making    1 passes.
 PxScal for G2LodP:  IOpCl= 1 ISclPx=1 IMOff=     1 NMtTot=     4 NTT=    1711 ScalPx= 1.86D+00
 Calling FoFCou, ICntrl=  3107 FMM=F I1Cent=   0 AccDes= 0.00D+00.
 FoFJK:  IHMeth= 1 ICntrl=    3107 DoSepK=F KAlg= 0 I1Cent=           0 FoldK=F
 IRaf=         0 NMat=       1 IRICut=       1 DoRegI=T DoRafI=F ISym2E= 1 IDoP0=0 IntGTp=1.
 FoFCou: FMM=F IPFlag=           0 FMFlag=      100000 FMFlg1=           0
         NFxFlg=           0 DoJE=F BraDBF=F KetDBF=F FulRan=T
         wScrn=  0.000000 ICntrl=      3107 IOpCl=  1 I1Cent=           0 NGrid=           0
         NMat0=    1 NMatS0=      1 NMatT0=    0 NMatD0=    4 NMtDS0=    3 NMtDT0=    0
 Petite list used in FoFCou.
 End of G2Drv F.D. properties file   721 does not exist.
 End of G2Drv F.D. properties file   722 does not exist.
 End of G2Drv F.D. properties file   788 does not exist.
 Leave Link 1110 at Mon Nov 25 04:46:25 2024, MaxMem=   536870912 cpu:              42.2 elap:               5.3
 (Enter /home/szhao/Apps/g16/l1002.exe)
 Minotr:  UHF open shell wavefunction.
          IDoAtm=111111
          Direct CPHF calculation.
          Differentiating once with respect to electric field.
                with respect to dipole field.
          Differentiating once with respect to nuclear coordinates.
          Using symmetry in CPHF.
          Requested convergence is 1.0D-08 RMS, and 1.0D-07 maximum.
          Secondary convergence is 1.0D-12 RMS, and 1.0D-12 maximum.
          NewPWx=T KeepS1=F KeepF1=F KeepIn=T MapXYZ=F SortEE=F KeepMc=T.
         2699 words used for storage of precomputed grid.
 Keep R1 and R2 ints in memory in symmetry-blocked form, NReq=8500943.
 FoFCou: FMM=F IPFlag=           0 FMFlag=           0 FMFlg1=           0
         NFxFlg=           0 DoJE=F BraDBF=F KetDBF=F FulRan=T
         wScrn=  0.000000 ICntrl=       600 IOpCl=  0 I1Cent=           0 NGrid=           0
         NMat0=    1 NMatS0=   1711 NMatT0=    0 NMatD0=    1 NMtDS0=    0 NMtDT0=    0
 Petite list used in FoFCou.
          MDV=     536870912 using IRadAn=       4.
          Solving linear equations simultaneously, MaxMat=       0.
          There are    12 degrees of freedom in the 1st order CPHF.  IDoFFX=4 NUNeed=    12.
 Will reuse    3 saved solutions.
      9 vectors produced by pass  0 Test12= 6.31D-15 8.33D-09 XBig12= 1.06D-01 1.45D-01.
 AX will form     9 AO Fock derivatives at one time.
      9 vectors produced by pass  1 Test12= 6.31D-15 8.33D-09 XBig12= 1.13D-02 4.85D-02.
      9 vectors produced by pass  2 Test12= 6.31D-15 8.33D-09 XBig12= 9.18D-04 1.24D-02.
      9 vectors produced by pass  3 Test12= 6.31D-15 8.33D-09 XBig12= 2.05D-05 1.47D-03.
      9 vectors produced by pass  4 Test12= 6.31D-15 8.33D-09 XBig12= 2.75D-07 1.32D-04.
      9 vectors produced by pass  5 Test12= 6.31D-15 8.33D-09 XBig12= 4.43D-09 1.86D-05.
      9 vectors produced by pass  6 Test12= 6.31D-15 8.33D-09 XBig12= 4.72D-11 2.73D-06.
      4 vectors produced by pass  7 Test12= 6.31D-15 8.33D-09 XBig12= 5.01D-13 2.09D-07.
      1 vectors produced by pass  8 Test12= 6.31D-15 8.33D-09 XBig12= 1.84D-15 1.10D-08.
 InvSVY:  IOpt=1 It=  1 EMax= 1.11D-15
 Solved reduced A of dimension    68 with     9 vectors.
 FullF1:  Do perturbations      1 to      12.
 Isotropic polarizability for W=    0.000000       18.06 Bohr**3.
 FullF1:  Do perturbations      1 to       6.
 End of Minotr F.D. properties file   721 does not exist.
 End of Minotr F.D. properties file   722 does not exist.
 End of Minotr F.D. properties file   788 does not exist.
 Leave Link 1002 at Mon Nov 25 04:46:32 2024, MaxMem=   536870912 cpu:              49.3 elap:               6.2
 (Enter /home/szhao/Apps/g16/l601.exe)
 Copying SCF densities to generalized density rwf, IOpCl= 1 IROHF=0.

 **********************************************************************

            Population analysis using the SCF density.

 **********************************************************************

 Orbital symmetries:
 Alpha Orbitals:
       Occupied  (A) (B) (A) (B) (B) (A) (A) (A)
       Virtual   (B) (A) (B) (B) (A) (A) (A) (B) (A) (B) (B) (B)
                 (B) (A) (A) (B) (A) (B) (B) (A) (A) (B) (A) (B)
                 (B) (A) (B) (A) (A) (A) (A) (B) (B) (A) (B) (B)
                 (A) (B) (B) (B) (A) (A) (A) (B) (A) (B) (B) (A)
                 (A) (B)
 Beta  Orbitals:
       Occupied  (A) (B) (A) (B) (B) (A) (A)
       Virtual   (A) (B) (A) (B) (B) (A) (A) (A) (B) (A) (B) (B)
                 (B) (B) (A) (A) (B) (A) (B) (B) (A) (A) (B) (A)
                 (B) (B) (A) (B) (A) (A) (A) (A) (B) (A) (B) (B)
                 (B) (A) (B) (B) (B) (A) (A) (A) (B) (A) (B) (B)
                 (A) (A) (B)
 The electronic state is 2-A.
 Alpha  occ. eigenvalues --  -10.90381 -10.90300  -1.18569  -0.97646  -0.84551
 Alpha  occ. eigenvalues --   -0.79474  -0.73571  -0.65425
 Alpha virt. eigenvalues --   -0.29612  -0.14356  -0.12502  -0.12167  -0.09936
 Alpha virt. eigenvalues --   -0.07685  -0.06601  -0.04577  -0.01223  -0.00532
 Alpha virt. eigenvalues --   -0.00083   0.04397   0.08778   0.14881   0.36219
 Alpha virt. eigenvalues --    0.40698   0.43016   0.48327   0.48513   0.56994
 Alpha virt. eigenvalues --    0.68388   0.70264   0.74634   0.78013   0.88172
 Alpha virt. eigenvalues --    0.88874   1.13355   1.15549   1.23150   1.60616
 Alpha virt. eigenvalues --    1.64784   1.64806   1.76447   1.77560   1.81129
 Alpha virt. eigenvalues --    2.00180   2.09576   2.17846   2.23222   2.26628
 Alpha virt. eigenvalues --    2.33926   2.40903   2.45327   2.67166   2.93853
 Alpha virt. eigenvalues --    3.04168   3.14656   3.36569   3.89076   4.16103
  Beta  occ. eigenvalues --  -10.90134 -10.90066  -1.14767  -0.95611  -0.83124
  Beta  occ. eigenvalues --   -0.78496  -0.72918
  Beta virt. eigenvalues --   -0.40877  -0.22572  -0.15648  -0.12268  -0.12133
  Beta virt. eigenvalues --   -0.09787  -0.08320  -0.06361  -0.03155  -0.00790
  Beta virt. eigenvalues --   -0.00147   0.00545   0.04709   0.10616   0.15802
  Beta virt. eigenvalues --    0.36777   0.41247   0.45160   0.49422   0.50675
  Beta virt. eigenvalues --    0.58765   0.69180   0.72205   0.76801   0.80246
  Beta virt. eigenvalues --    0.89054   0.90656   1.17783   1.19784   1.26989
  Beta virt. eigenvalues --    1.68133   1.68624   1.69517   1.80735   1.82101
  Beta virt. eigenvalues --    1.84737   2.03165   2.12523   2.21918   2.28063
  Beta virt. eigenvalues --    2.30285   2.36806   2.43591   2.47665   2.70776
  Beta virt. eigenvalues --    2.96820   3.07902   3.18618   3.41826   3.93684
  Beta virt. eigenvalues --    4.20338
          Condensed to atoms (all electrons):
               1          2          3          4          5          6
     1  C    4.846389   0.529168   0.362484   0.362484  -0.012299  -0.012299
     2  C    0.529168   4.846389  -0.012299  -0.012299   0.362484   0.362484
     3  H    0.362484  -0.012299   0.373313  -0.010984   0.001538  -0.002015
     4  H    0.362484  -0.012299  -0.010984   0.373313  -0.002015   0.001537
     5  H   -0.012299   0.362484   0.001538  -0.002015   0.373313  -0.010984
     6  H   -0.012299   0.362484  -0.002015   0.001537  -0.010984   0.373313
          Atomic-Atomic Spin Densities.
               1          2          3          4          5          6
     1  C    0.447892   0.100303  -0.003428  -0.003428  -0.002863  -0.002863
     2  C    0.100303   0.447892  -0.002863  -0.002863  -0.003428  -0.003428
     3  H   -0.003428  -0.002863  -0.009760  -0.001431   0.000158  -0.000483
     4  H   -0.003428  -0.002863  -0.001431  -0.009760  -0.000483   0.000158
     5  H   -0.002863  -0.003428   0.000158  -0.000483  -0.009760  -0.001431
     6  H   -0.002863  -0.003428  -0.000483   0.000158  -0.001431  -0.009760
 Mulliken charges and spin densities:
               1          2
     1  C   -0.075927   0.535614
     2  C   -0.075927   0.535614
     3  H    0.287963  -0.017807
     4  H    0.287964  -0.017807
     5  H    0.287963  -0.017807
     6  H    0.287964  -0.017807
 Sum of Mulliken charges =   1.00000   1.00000
 Mulliken charges and spin densities with hydrogens summed into heavy atoms:
               1          2
     1  C    0.500000   0.500000
     2  C    0.500000   0.500000
 APT charges:
               1
     1  C    0.161142
     2  C    0.161142
     3  H    0.169429
     4  H    0.169429
     5  H    0.169429
     6  H    0.169429
 Sum of APT charges =   1.00000
 APT charges with hydrogens summed into heavy atoms:
               1
     1  C    0.500000
     2  C    0.500000
 Electronic spatial extent (au):  <R**2>=             74.9656
 Charge=              1.0000 electrons
 Dipole moment (field-independent basis, Debye):
    X=             -0.0000    Y=              0.0000    Z=             -0.0000  Tot=              0.0000
 Quadrupole moment (field-independent basis, Debye-Ang):
   XX=             -8.3963   YY=             -5.4002   ZZ=            -11.5027
   XY=              0.0000   XZ=             -0.0000   YZ=             -0.0000
 Traceless Quadrupole moment (field-independent basis, Debye-Ang):
   XX=              0.0368   YY=              3.0329   ZZ=             -3.0696
   XY=              0.0000   XZ=             -0.0000   YZ=             -0.0000
 Octapole moment (field-independent basis, Debye-Ang**2):
  XXX=             -0.0000  YYY=              0.0000  ZZZ=              0.0000  XYY=              0.0000
  XXY=              0.0000  XXZ=             -0.0000  XZZ=              0.0000  YZZ=             -0.0000
  YYZ=             -0.0000  XYZ=             -0.8761
 Hexadecapole moment (field-independent basis, Debye-Ang**3):
 XXXX=            -17.7113 YYYY=            -50.9637 ZZZZ=            -10.9825 XXXY=             -0.0000
 XXXZ=              0.0000 YYYX=              0.0000 YYYZ=              0.0000 ZZZX=             -0.0000
 ZZZY=             -0.0000 XXYY=             -6.3969 XXZZ=             -5.5890 YYZZ=            -11.6868
 XXYZ=              0.0000 YYXZ=              0.0000 ZZXY=             -0.0000
 N-N= 3.243006481988D+01 E-N=-2.407255648170D+02  KE= 7.748941014515D+01
 Symmetry A    KE= 4.088431007903D+01
 Symmetry B    KE= 3.660510006612D+01
 Symmetry A    SP= 1.000000000000D+00
 Symmetry B    SP= 2.616975245677D-14
  Exact polarizability:  17.201   0.000  26.733  -0.000  -0.000  10.235
 Approx polarizability:  17.639   0.000  27.587  -0.000  -0.000  11.511
                          Isotropic Fermi Contact Couplings
        Atom                 a.u.       MegaHertz       Gauss      10(-4) cm-1
     1  C(13)              0.08222      92.43107      32.98171      30.83169
     2  C(13)              0.08222      92.43107      32.98171      30.83169
     3  H(1)              -0.00503     -22.47029      -8.01796      -7.49528
     4  H(1)              -0.00503     -22.47032      -8.01797      -7.49529
     5  H(1)              -0.00503     -22.47029      -8.01796      -7.49528
     6  H(1)              -0.00503     -22.47032      -8.01797      -7.49529
 --------------------------------------------------------
       Center         ----  Spin Dipole Couplings  ----
                      3XX-RR        3YY-RR        3ZZ-RR
 --------------------------------------------------------
     1   Atom       -0.205294     -0.264573      0.469866
     2   Atom       -0.205294     -0.264573      0.469866
     3   Atom        0.008584     -0.002517     -0.006067
     4   Atom        0.008584     -0.002517     -0.006067
     5   Atom        0.008584     -0.002517     -0.006067
     6   Atom        0.008584     -0.002517     -0.006067
 --------------------------------------------------------
                        XY            XZ            YZ
 --------------------------------------------------------
     1   Atom       -0.000000      0.256803     -0.000000
     2   Atom       -0.000000     -0.256803      0.000000
     3   Atom       -0.040820     -0.015719      0.014970
     4   Atom        0.040820     -0.015719     -0.014970
     5   Atom       -0.040820      0.015719     -0.014970
     6   Atom        0.040820      0.015719      0.014970
 --------------------------------------------------------


 ---------------------------------------------------------------------------------
              Anisotropic Spin Dipole Couplings in Principal Axis System
 ---------------------------------------------------------------------------------

       Atom             a.u.   MegaHertz   Gauss  10(-4) cm-1        Axes

              Baa    -0.2919   -39.166   -13.975   -13.064  0.9476 -0.0000 -0.3195
     1 C(13)  Bbb    -0.2646   -35.503   -12.668   -11.843  0.0000  1.0000 -0.0000
              Bcc     0.5564    74.669    26.644    24.907  0.3195 -0.0000  0.9476
 
              Baa    -0.2919   -39.166   -13.975   -13.064  0.9476 -0.0000  0.3195
     2 C(13)  Bbb    -0.2646   -35.503   -12.668   -11.843  0.0000  1.0000  0.0000
              Bcc     0.5564    74.669    26.644    24.907 -0.3195  0.0000  0.9476
 
              Baa    -0.0382   -20.379    -7.272    -6.798  0.6503  0.7589 -0.0354
     3 H(1)   Bbb    -0.0141    -7.520    -2.683    -2.508  0.2863 -0.2016  0.9367
              Bcc     0.0523    27.899     9.955     9.306  0.7037 -0.6192 -0.3484
 
              Baa    -0.0382   -20.379    -7.272    -6.798 -0.6503  0.7589  0.0354
     4 H(1)   Bbb    -0.0141    -7.520    -2.683    -2.508  0.2863  0.2016  0.9367
              Bcc     0.0523    27.899     9.955     9.306  0.7037  0.6193 -0.3484
 
              Baa    -0.0382   -20.379    -7.272    -6.798  0.6503  0.7589  0.0354
     5 H(1)   Bbb    -0.0141    -7.520    -2.683    -2.508 -0.2863  0.2016  0.9367
              Bcc     0.0523    27.899     9.955     9.306  0.7037 -0.6192  0.3484
 
              Baa    -0.0382   -20.379    -7.272    -6.798 -0.6503  0.7589 -0.0354
     6 H(1)   Bbb    -0.0141    -7.520    -2.683    -2.508 -0.2863 -0.2016  0.9367
              Bcc     0.0523    27.899     9.955     9.306  0.7037  0.6193  0.3484
 

 ---------------------------------------------------------------------------------

 No NMR shielding tensors so no spin-rotation constants.
 Leave Link  601 at Mon Nov 25 04:46:32 2024, MaxMem=   536870912 cpu:               1.4 elap:               0.2
 (Enter /home/szhao/Apps/g16/l701.exe)
 ... and contract with generalized density number  0.
 Compute integral second derivatives.
 Leave Link  701 at Mon Nov 25 04:46:32 2024, MaxMem=   536870912 cpu:               1.0 elap:               0.1
 (Enter /home/szhao/Apps/g16/l702.exe)
 L702 exits ... SP integral derivatives will be done elsewhere.
 Leave Link  702 at Mon Nov 25 04:46:32 2024, MaxMem=   536870912 cpu:               0.2 elap:               0.0
 (Enter /home/szhao/Apps/g16/l703.exe)
 Integral derivatives from FoFJK, PRISM(SPDF).
 Compute integral second derivatives, UseDBF=F ICtDFT=           0.
 Calling FoFJK, ICntrl=    100127 FMM=F ISym2X=1 I1Cent= 0 IOpClX= 1 NMat=1 NMatS=1 NMatT=0.
 FoFJK:  IHMeth= 1 ICntrl=  100127 DoSepK=F KAlg= 0 I1Cent=           0 FoldK=F
 IRaf=         0 NMat=       1 IRICut=       1 DoRegI=T DoRafI=F ISym2E= 1 IDoP0=0 IntGTp=1.
 FoFCou: FMM=F IPFlag=           0 FMFlag=      100000 FMFlg1=         800
         NFxFlg=           0 DoJE=F BraDBF=F KetDBF=F FulRan=T
         wScrn=  0.000000 ICntrl=    100127 IOpCl=  1 I1Cent=           0 NGrid=           0
         NMat0=    1 NMatS0=      1 NMatT0=    0 NMatD0=    1 NMtDS0=    0 NMtDT0=    0
 Petite list used in FoFCou.
 Leave Link  703 at Mon Nov 25 04:46:37 2024, MaxMem=   536870912 cpu:              35.9 elap:               4.5
 (Enter /home/szhao/Apps/g16/l716.exe)
 Dipole        =-5.20957882D-17 3.60008210D-16-2.35655693D-08
 Polarizability= 1.72008975D+01 6.61801391D-06 2.67329053D+01
                -3.33066907D-15-1.13624388D-15 1.02349099D+01
 HyperPolar    = 4.28624534D-11-6.75218949D-11 1.56570248D-10
                 9.95068319D-10-2.91989360D-06-3.98268897D+00
                -8.52393681D-06-1.33024474D-10 7.33223933D-10
                 5.07467510D-06
 Full mass-weighted force constant matrix:
 Low frequencies ---  -97.4427  -70.7880  -52.1235   -0.0006    0.0007    0.0013
 Low frequencies ---  418.6311  819.1812  951.2710
 Diagonal vibrational polarizability:
        0.4281538       0.7231286       1.6256559
 Diagonal vibrational hyperpolarizability:
        0.0000000      -0.0000000       0.0000762
 Harmonic frequencies (cm**-1), IR intensities (KM/Mole), Raman scattering
 activities (A**4/AMU), depolarization ratios for plane and unpolarized
 incident light, reduced masses (AMU), force constants (mDyne/A),
 and normal coordinates:
                      1                      2                      3
                      A                      B                      A
 Frequencies --    418.6311               819.1810               951.2699
 Red. masses --      1.0285                 1.0463                 1.1622
 Frc consts  --      0.1062                 0.4137                 0.6196
 IR Inten    --      0.0000                 5.3598                50.1783
 Raman Activ --      1.0538                 0.1102                 0.3861
 Depolar (P) --      0.4153                 0.7500                 0.7500
 Depolar (U) --      0.5869                 0.8571                 0.8571
  Atom  AN      X      Y      Z        X      Y      Z        X      Y      Z
     1   6     0.00  -0.03  -0.00    -0.04  -0.00   0.02     0.03   0.00  -0.08
     2   6    -0.00   0.03  -0.00    -0.04  -0.00  -0.02    -0.03  -0.00  -0.08
     3   1     0.09  -0.01   0.49     0.23   0.44   0.00     0.02  -0.16   0.47
     4   1    -0.09  -0.01  -0.49     0.23  -0.44   0.00     0.02   0.16   0.47
     5   1    -0.09   0.01   0.49     0.23   0.44  -0.00    -0.02   0.16   0.47
     6   1     0.09   0.01  -0.49     0.23  -0.44  -0.00    -0.02  -0.16   0.47
                      4                      5                      6
                      B                      A                      A
 Frequencies --   1106.9454              1228.2047              1301.5920
 Red. masses --      1.4810                 1.4614                 1.7995
 Frc consts  --      1.0692                 1.2988                 1.7962
 IR Inten    --      0.0755                 7.2537                 0.0000
 Raman Activ --      0.0010                 1.0275                40.4779
 Depolar (P) --      0.7500                 0.7500                 0.3167
 Depolar (U) --      0.8571                 0.8571                 0.4811
  Atom  AN      X      Y      Z        X      Y      Z        X      Y      Z
     1   6     0.01  -0.00   0.15     0.14   0.00   0.03     0.00   0.19   0.00
     2   6     0.01  -0.00  -0.15    -0.14  -0.00   0.03    -0.00  -0.19   0.00
     3   1    -0.08   0.02  -0.48    -0.15  -0.44  -0.17     0.15   0.46   0.06
     4   1    -0.08  -0.02  -0.48    -0.15   0.44  -0.17    -0.15   0.46  -0.06
     5   1    -0.08   0.02   0.48     0.15   0.44  -0.17    -0.15  -0.46   0.06
     6   1    -0.08  -0.02   0.48     0.15  -0.44  -0.17     0.15  -0.46  -0.06
                      7                      8                      9
                      B                      A                      B
 Frequencies --   1463.9190              1568.6295              3170.2381
 Red. masses --      1.1120                 1.6935                 1.0477
 Frc consts  --      1.4041                 2.4552                 6.2040
 IR Inten    --     41.0837                 0.0000                77.3913
 Raman Activ --      0.0241                 5.5029                 3.3734
 Depolar (P) --      0.7500                 0.0364                 0.7500
 Depolar (U) --      0.8571                 0.0702                 0.8571
  Atom  AN      X      Y      Z        X      Y      Z        X      Y      Z
     1   6     0.00  -0.07  -0.00    -0.00   0.18   0.00    -0.00  -0.04   0.00
     2   6     0.00  -0.07   0.00     0.00  -0.18   0.00    -0.00  -0.04  -0.00
     3   1     0.28   0.41  -0.05    -0.31  -0.35   0.11    -0.42   0.25   0.08
     4   1    -0.28   0.41   0.05     0.31  -0.35  -0.11     0.42   0.25  -0.08
     5   1     0.28   0.41   0.05     0.31   0.35   0.11    -0.42   0.25  -0.08
     6   1    -0.28   0.41  -0.05    -0.31   0.35  -0.11     0.42   0.25   0.08
                     10                     11                     12
                      A                      A                      B
 Frequencies --   3172.3224              3279.0748              3293.5200
 Red. masses --      1.0621                 1.1249                 1.1204
 Frc consts  --      6.2975                 7.1263                 7.1606
 IR Inten    --      0.0000                 1.5980                85.2721
 Raman Activ --    157.5964                75.9931                 1.8415
 Depolar (P) --      0.0846                 0.7500                 0.7500
 Depolar (U) --      0.1559                 0.8571                 0.8571
  Atom  AN      X      Y      Z        X      Y      Z        X      Y      Z
     1   6    -0.00  -0.05   0.00    -0.07   0.00   0.01    -0.07   0.00   0.01
     2   6     0.00   0.05   0.00     0.07  -0.00   0.01    -0.07   0.00  -0.01
     3   1    -0.43   0.25   0.07     0.42  -0.25  -0.07     0.42  -0.26  -0.07
     4   1     0.43   0.25  -0.07     0.42   0.25  -0.07     0.42   0.26  -0.07
     5   1     0.43  -0.25   0.07    -0.42   0.25  -0.07     0.42  -0.26   0.07
     6   1    -0.43  -0.25  -0.07    -0.42  -0.25  -0.07     0.42   0.26   0.07

 -------------------
 - Thermochemistry -
 -------------------
 Temperature   298.150 Kelvin.  Pressure   1.00000 Atm.
 Atom     1 has atomic number  6 and mass  12.00000
 Atom     2 has atomic number  6 and mass  12.00000
 Atom     3 has atomic number  1 and mass   1.00783
 Atom     4 has atomic number  1 and mass   1.00783
 Atom     5 has atomic number  1 and mass   1.00783
 Atom     6 has atomic number  1 and mass   1.00783
 Molecular mass:    28.03130 amu.
 Principal axes and moments of inertia in atomic units:
                           1         2         3
     Eigenvalues --    12.58091  65.30501  77.11050
           X            0.00000   1.00000   0.00000
           Y            1.00000  -0.00000   0.00000
           Z           -0.00000   0.00000   1.00000
 This molecule is an asymmetric top.
 Rotational symmetry number  2.
 Rotational temperatures (Kelvin)      6.88455     1.32630     1.12324
 Rotational constants (GHZ):         143.45074    27.63557    23.40461
 Zero-point vibrational energy     130234.6 (Joules/Mol)
                                   31.12682 (Kcal/Mol)
 Warning -- explicit consideration of   1 degrees of freedom as
           vibrations may cause significant error
 Vibrational temperatures:    602.32  1178.62  1368.67  1592.65  1767.11
          (Kelvin)           1872.70  2106.25  2256.91  4561.27  4564.26
                             4717.86  4738.64
 
 Zero-point correction=                           0.049604 (Hartree/Particle)
 Thermal correction to Energy=                    0.052905
 Thermal correction to Enthalpy=                  0.053849
 Thermal correction to Gibbs Free Energy=         0.027211
 Sum of electronic and zero-point Energies=            -78.120437
 Sum of electronic and thermal Energies=               -78.117136
 Sum of electronic and thermal Enthalpies=             -78.116192
 Sum of electronic and thermal Free Energies=          -78.142830
 
                     E (Thermal)             CV                S
                      KCal/Mol        Cal/Mol-Kelvin    Cal/Mol-Kelvin
 Total                   33.199              9.197             56.065
 Electronic               0.000              0.000              1.377
 Translational            0.889              2.981             35.927
 Rotational               0.889              2.981             17.411
 Vibrational             31.421              3.236              1.350
 Vibration     1          0.781              1.430              0.897
                       Q            Log10(Q)             Ln(Q)
 Total Bot       0.304668D-12        -12.516173        -28.819552
 Total V=0       0.199502D+11         10.299947         23.716504
 Vib (Bot)       0.183306D-22        -22.736823        -52.353470
 Vib (Bot)    1  0.419875D+00         -0.376880         -0.867799
 Vib (V=0)       0.120032D+01          0.079296          0.182587
 Vib (V=0)    1  0.115291D+01          0.061796          0.142291
 Electronic      0.200000D+01          0.301030          0.693147
 Translational   0.583336D+07          6.765919         15.579104
 Rotational      0.142463D+04          3.153702          7.261667
 
                                                         Title Card Required
                                                             IR Spectrum
 
     33  33                                                             1   1     1  1    1                                          
     22  11                                                             5   4     3  2    1     9    8              4                
     97  77                                                             6   6     0  2    0     5    1              1                
     49  20                                                             9   4     2  8    7     1    9              9                
 
     XX   X                                                                 X        X    X     X    X                               
     X    X                                                                 X        X          X                                    
     X    X                                                                 X                   X                                    
     X    X                                                                 X                   X                                    
     X    X                                                                 X                   X                                    
     X    X                                                                 X                   X                                    
     X    X                                                                 X                   X                                    
     X    X                                                                 X                   X                                    
     X    X                                                                 X                   X                                    
     X    X                                                                 X                   X                                    
     X    X                                                                                     X                                    
     X    X                                                                                     X                                    
     X    X                                                                                                                          
     X    X                                                                                                                          
     X    X                                                                                                                          
     X    X                                                                                                                          
     X    X                                                                                                                          
     X    X                                                                                                                          
     X                                                                                                                               
     X                                                                                                                               
 
 
                                                         Title Card Required
                                                            Raman Spectrum
 
     33  33                                                             1   1     1  1    1                                          
     22  11                                                             5   4     3  2    1     9    8              4                
     97  77                                                             6   6     0  2    0     5    1              1                
     49  20                                                             9   4     2  8    7     1    9              9                
 
     XX  XX                                                             X         X  X          X    X              X                
      X  X                                                                        X                                                  
      X  X                                                                        X                                                  
      X  X                                                                        X                                                  
      X  X                                                                        X                                                  
      X  X                                                                                                                           
      X  X                                                                                                                           
      X  X                                                                                                                           
      X  X                                                                                                                           
      X  X                                                                                                                           
         X                                                                                                                           
         X                                                                                                                           
         X                                                                                                                           
         X                                                                                                                           
         X                                                                                                                           
         X                                                                                                                           
         X                                                                                                                           
         X                                                                                                                           
         X                                                                                                                           
         X                                                                                                                           
 
 ***** Axes restored to original set *****
 -------------------------------------------------------------------
 Center     Atomic                   Forces (Hartrees/Bohr)
 Number     Number              X              Y              Z
 -------------------------------------------------------------------
      1        6          -0.000000183    0.001922613    0.000000054
      2        6           0.000000183   -0.001922613    0.000000054
      3        1           0.000689226    0.000421769   -0.000079674
      4        1          -0.000688949    0.000421530    0.000079620
      5        1          -0.000689226   -0.000421769   -0.000079674
      6        1           0.000688949   -0.000421530    0.000079620
 -------------------------------------------------------------------
 Cartesian Forces:  Max     0.001922613 RMS     0.000746428
 Z-matrix is all fixed cartesians, so copy forces.
 Force constants in Cartesian coordinates: 
                1             2             3             4             5 
      1  0.653228D+00
      2  0.000000D+00  0.704616D+00
      3 -0.710275D-01  0.000000D+00  0.143040D+00
      4 -0.116820D+00  0.000000D+00 -0.703492D-02  0.653228D+00
      5  0.000000D+00 -0.415469D+00  0.000000D+00  0.000000D+00  0.704616D+00
      6  0.703492D-02  0.000000D+00 -0.668169D-01  0.710275D-01  0.000000D+00
      7 -0.277071D+00 -0.128840D+00  0.389082D-01  0.886672D-02  0.432405D-02
      8 -0.123738D+00 -0.130596D+00  0.249704D-01 -0.266986D-01 -0.139774D-01
      9  0.366780D-01  0.851629D-02 -0.498149D-01  0.468163D-02  0.136899D-01
     10 -0.277070D+00  0.128839D+00  0.389080D-01  0.886672D-02 -0.432406D-02
     11  0.123738D+00 -0.130596D+00 -0.249704D-01  0.266986D-01 -0.139774D-01
     12  0.366778D-01 -0.851622D-02 -0.498150D-01  0.468160D-02 -0.136899D-01
     13  0.886672D-02  0.432405D-02  0.123153D-03 -0.277071D+00 -0.128840D+00
     14 -0.266986D-01 -0.139774D-01 -0.370371D-02 -0.123738D+00 -0.130596D+00
     15 -0.468163D-02 -0.136899D-01  0.117033D-01 -0.366780D-01 -0.851629D-02
     16  0.886672D-02 -0.432406D-02  0.123155D-03 -0.277070D+00  0.128839D+00
     17  0.266986D-01 -0.139774D-01  0.370369D-02  0.123738D+00 -0.130596D+00
     18 -0.468160D-02  0.136899D-01  0.117032D-01 -0.366778D-01  0.851622D-02
                6             7             8             9            10 
      6  0.143040D+00
      7 -0.123153D-03  0.277718D+00
      8  0.370371D-02  0.135907D+00  0.134562D+00
      9  0.117033D-01 -0.442906D-01 -0.242194D-01  0.250796D-01
     10 -0.123155D-03 -0.103572D-01  0.126915D-01  0.421833D-02  0.277717D+00
     11 -0.370369D-02 -0.126915D-01  0.127573D-01  0.371795D-02 -0.135906D+00
     12  0.117032D-01  0.421833D-02 -0.371796D-02  0.128209D-01 -0.442905D-01
     13 -0.389082D-01 -0.864716D-04  0.156958D-02 -0.201566D-02  0.930384D-03
     14 -0.249704D-01  0.156958D-02 -0.359225D-02 -0.483980D-03  0.268966D-03
     15 -0.498149D-01  0.201566D-02  0.483980D-03  0.184625D-02 -0.728351D-03
     16 -0.389080D-01  0.930384D-03  0.268966D-03  0.728351D-03 -0.864732D-04
     17  0.249704D-01 -0.268965D-03  0.846220D-03 -0.122075D-02 -0.156958D-02
     18 -0.498150D-01 -0.728353D-03 -0.122074D-02 -0.163512D-02  0.201566D-02
               11            12            13            14            15 
     11  0.134562D+00
     12  0.242193D-01  0.250797D-01
     13 -0.268965D-03  0.728353D-03  0.277718D+00
     14  0.846220D-03  0.122074D-02  0.135907D+00  0.134562D+00
     15  0.122075D-02 -0.163512D-02  0.442906D-01  0.242194D-01  0.250796D-01
     16 -0.156958D-02 -0.201566D-02 -0.103572D-01  0.126915D-01 -0.421833D-02
     17 -0.359224D-02  0.483986D-03 -0.126915D-01  0.127573D-01 -0.371795D-02
     18 -0.483986D-03  0.184625D-02 -0.421833D-02  0.371796D-02  0.128209D-01
               16            17            18 
     16  0.277717D+00
     17 -0.135906D+00  0.134562D+00
     18  0.442905D-01 -0.242193D-01  0.250797D-01
 Leave Link  716 at Mon Nov 25 04:46:37 2024, MaxMem=   536870912 cpu:               0.3 elap:               0.0
 (Enter /home/szhao/Apps/g16/l103.exe)

 GradGradGradGradGradGradGradGradGradGradGradGradGradGradGradGradGradGrad
 Berny optimization.
 Search for a local minimum.
 Step number   1 out of a maximum of    2
 All quantities printed in internal units (Hartrees-Bohrs-Radians)
 Second derivative matrix not updated -- analytic derivatives used.
 The second derivative matrix:
                          X1        Y1        Z1        X2        Y2
           X1           0.65323
           Y1           0.00000   0.70462
           Z1          -0.07103  -0.00000   0.14304
           X2          -0.11682  -0.00000  -0.00703   0.65323
           Y2          -0.00000  -0.41547  -0.00000   0.00000   0.70462
           Z2           0.00703   0.00000  -0.06682   0.07103   0.00000
           X3          -0.27707  -0.12884   0.03891   0.00887   0.00432
           Y3          -0.12374  -0.13060   0.02497  -0.02670  -0.01398
           Z3           0.03668   0.00852  -0.04981   0.00468   0.01369
           X4          -0.27707   0.12884   0.03891   0.00887  -0.00432
           Y4           0.12374  -0.13060  -0.02497   0.02670  -0.01398
           Z4           0.03668  -0.00852  -0.04982   0.00468  -0.01369
           X5           0.00887   0.00432   0.00012  -0.27707  -0.12884
           Y5          -0.02670  -0.01398  -0.00370  -0.12374  -0.13060
           Z5          -0.00468  -0.01369   0.01170  -0.03668  -0.00852
           X6           0.00887  -0.00432   0.00012  -0.27707   0.12884
           Y6           0.02670  -0.01398   0.00370   0.12374  -0.13060
           Z6          -0.00468   0.01369   0.01170  -0.03668   0.00852
                          Z2        X3        Y3        Z3        X4
           Z2           0.14304
           X3          -0.00012   0.27772
           Y3           0.00370   0.13591   0.13456
           Z3           0.01170  -0.04429  -0.02422   0.02508
           X4          -0.00012  -0.01036   0.01269   0.00422   0.27772
           Y4          -0.00370  -0.01269   0.01276   0.00372  -0.13591
           Z4           0.01170   0.00422  -0.00372   0.01282  -0.04429
           X5          -0.03891  -0.00009   0.00157  -0.00202   0.00093
           Y5          -0.02497   0.00157  -0.00359  -0.00048   0.00027
           Z5          -0.04981   0.00202   0.00048   0.00185  -0.00073
           X6          -0.03891   0.00093   0.00027   0.00073  -0.00009
           Y6           0.02497  -0.00027   0.00085  -0.00122  -0.00157
           Z6          -0.04982  -0.00073  -0.00122  -0.00164   0.00202
                          Y4        Z4        X5        Y5        Z5
           Y4           0.13456
           Z4           0.02422   0.02508
           X5          -0.00027   0.00073   0.27772
           Y5           0.00085   0.00122   0.13591   0.13456
           Z5           0.00122  -0.00164   0.04429   0.02422   0.02508
           X6          -0.00157  -0.00202  -0.01036   0.01269  -0.00422
           Y6          -0.00359   0.00048  -0.01269   0.01276  -0.00372
           Z6          -0.00048   0.00185  -0.00422   0.00372   0.01282
                          X6        Y6        Z6
           X6           0.27772
           Y6          -0.13591   0.13456
           Z6           0.04429  -0.02422   0.02508
 ITU=  0
     Eigenvalues ---    0.00681   0.02948   0.06823   0.07667   0.12565
     Eigenvalues ---    0.13979   0.19147   0.29699   0.52833   0.77292
     Eigenvalues ---    0.94774   1.19451
 Angle between quadratic step and forces=  73.44 degrees.
 ClnCor:  largest displacement from symmetrization is 6.74D-15 for atom     5.
 Linear search not attempted -- first point.
 ClnCor:  largest displacement from symmetrization is 5.29D-23 for atom     1.
 B after Tr=    -0.000000    0.000000   -0.000000
         Rot=    1.000000    0.000000    0.000000    0.000000 Ang=   0.00 deg.
 Variable       Old X    -DE/DX   Delta X   Delta X   Delta X     New X
                                 (Linear)    (Quad)   (Total)
    X1        0.00000  -0.00000   0.00000   0.00000   0.00000   0.00000
    Y1        1.32500   0.00192   0.00000   0.00378   0.00378   1.32878
    Z1        0.00000   0.00000   0.00000  -0.00000  -0.00000  -0.00000
    X2        0.00000   0.00000   0.00000  -0.00000  -0.00000  -0.00000
    Y2       -1.32500  -0.00192   0.00000  -0.00378  -0.00378  -1.32878
    Z2        0.00000   0.00000   0.00000  -0.00000  -0.00000  -0.00000
    X3        1.73915   0.00069   0.00000   0.00499   0.00499   1.74413
    Y3        2.37727   0.00042   0.00000   0.00357   0.00357   2.38084
    Z3       -0.31012  -0.00008   0.00000   0.01495   0.01495  -0.29517
    X4       -1.73915  -0.00069   0.00000  -0.00499  -0.00499  -1.74413
    Y4        2.37727   0.00042   0.00000   0.00357   0.00357   2.38084
    Z4        0.31012   0.00008   0.00000  -0.01495  -0.01495   0.29517
    X5       -1.73915  -0.00069   0.00000  -0.00499  -0.00499  -1.74413
    Y5       -2.37727  -0.00042   0.00000  -0.00357  -0.00357  -2.38084
    Z5       -0.31012  -0.00008   0.00000   0.01495   0.01495  -0.29517
    X6        1.73915   0.00069   0.00000   0.00499   0.00499   1.74413
    Y6       -2.37727  -0.00042   0.00000  -0.00357  -0.00357  -2.38084
    Z6        0.31012   0.00008   0.00000  -0.01495  -0.01495   0.29517
         Item               Value     Threshold  Converged?
 Maximum Force            0.001923     0.000450     NO 
 RMS     Force            0.000746     0.000300     NO 
 Maximum Displacement     0.014948     0.001800     NO 
 RMS     Displacement     0.007721     0.001200     NO 
 Predicted change in Energy=-1.477867D-05
 GradGradGradGradGradGradGradGradGradGradGradGradGradGradGradGradGradGrad

 Leave Link  103 at Mon Nov 25 04:46:37 2024, MaxMem=   536870912 cpu:               0.1 elap:               0.0
 (Enter /home/szhao/Apps/g16/l9999.exe)

 ----------------------------------------------------------------------

 Electric dipole moment (input orientation):
 (Debye = 10**-18 statcoulomb cm , SI units = C m)
                  (au)            (Debye)         (10**-30 SI)
   Tot        0.000000D+00      0.000000D+00      0.000000D+00
   x          0.000000D+00      0.000000D+00      0.000000D+00
   y          0.000000D+00      0.000000D+00      0.000000D+00
   z          0.000000D+00      0.000000D+00      0.000000D+00

 Dipole polarizability, Alpha (input orientation).
 (esu units = cm**3 , SI units = C**2 m**2 J**-1)
 Alpha(0;0):
               (au)            (10**-24 esu)      (10**-40 SI)
   iso        0.180562D+02      0.267566D+01      0.297707D+01
   aniso      0.143452D+02      0.212574D+01      0.236520D+01
   xx         0.172009D+02      0.254891D+01      0.283604D+01
   yx         0.000000D+00      0.000000D+00      0.000000D+00
   yy         0.267329D+02      0.396141D+01      0.440766D+01
   zx         0.000000D+00      0.000000D+00      0.000000D+00
   zy         0.000000D+00      0.000000D+00      0.000000D+00
   zz         0.102349D+02      0.151666D+01      0.168751D+01

 First dipole hyperpolarizability, Beta (input orientation).
 ||, _|_  parallel and perpendicular components, (z) with respect to z axis,
 vector components x,y,z.  Values do not include the 1/n! factor of 1/2.
 (esu units = statvolt**-1 cm**4 , SI units = C**3 m**3 J**-2)
 Beta(0;0,0):
               (au)            (10**-30 esu)      (10**-50 SI)
   || (z)     0.000000D+00      0.000000D+00      0.000000D+00
   _|_(z)     0.000000D+00      0.000000D+00      0.000000D+00
   x          0.000000D+00      0.000000D+00      0.000000D+00
   y          0.000000D+00      0.000000D+00      0.000000D+00
   z          0.191075D-04      0.165074D-06      0.612654D-07
   ||         0.000000D+00      0.000000D+00      0.000000D+00
   xxx        0.000000D+00      0.000000D+00      0.000000D+00
   xxy        0.000000D+00      0.000000D+00      0.000000D+00
   yxy        0.000000D+00      0.000000D+00      0.000000D+00
   yyy        0.000000D+00      0.000000D+00      0.000000D+00
   xxz        0.000000D+00      0.000000D+00      0.000000D+00
   yxz       -0.398269D+01     -0.344073D-01     -0.127699D-01
   yyz        0.000000D+00      0.000000D+00      0.000000D+00
   zxz        0.000000D+00      0.000000D+00      0.000000D+00
   zyz        0.000000D+00      0.000000D+00      0.000000D+00
   zzz        0.000000D+00      0.000000D+00      0.000000D+00

 ----------------------------------------------------------------------

 Dipole orientation:
     6          0.00000000          1.32499659          0.00000002
     6          0.00000000         -1.32499659         -0.00000002
     1          1.73914708          2.37726791         -0.31012102
     1         -1.73914708          2.37726979          0.31012110
     1         -1.73914708         -2.37726790         -0.31012110
     1          1.73914708         -2.37726980          0.31012103

 Electric dipole moment (dipole orientation):
 (Debye = 10**-18 statcoulomb cm , SI units = C m)
                  (au)            (Debye)         (10**-30 SI)
   Tot        0.000000D+00      0.000000D+00      0.000000D+00
   x          0.000000D+00      0.000000D+00      0.000000D+00
   y          0.000000D+00      0.000000D+00      0.000000D+00
   z          0.000000D+00      0.000000D+00      0.000000D+00

 Dipole polarizability, Alpha (dipole orientation).
 (esu units = cm**3 , SI units = C**2 m**2 J**-1)
 Alpha(0;0):
               (au)            (10**-24 esu)      (10**-40 SI)
   iso        0.180562D+02      0.267566D+01      0.297707D+01
   aniso      0.143452D+02      0.212574D+01      0.236520D+01
   xx         0.172009D+02      0.254891D+01      0.283604D+01
   yx         0.000000D+00      0.000000D+00      0.000000D+00
   yy         0.267329D+02      0.396141D+01      0.440766D+01
   zx         0.000000D+00      0.000000D+00      0.000000D+00
   zy         0.000000D+00      0.000000D+00      0.000000D+00
   zz         0.102349D+02      0.151666D+01      0.168751D+01

 First dipole hyperpolarizability, Beta (dipole orientation).
 ||, _|_  parallel and perpendicular components, (z) with respect to z axis,
 vector components x,y,z.  Values do not include the 1/n! factor of 1/2.
 (esu units = statvolt**-1 cm**4 , SI units = C**3 m**3 J**-2)
 Beta(0;0,0):
               (au)            (10**-30 esu)      (10**-50 SI)
   || (z)     0.000000D+00      0.000000D+00      0.000000D+00
   _|_(z)     0.000000D+00      0.000000D+00      0.000000D+00
   x          0.000000D+00      0.000000D+00      0.000000D+00
   y          0.000000D+00      0.000000D+00      0.000000D+00
   z          0.191075D-04      0.165074D-06      0.612654D-07
   ||         0.000000D+00      0.000000D+00      0.000000D+00
   xxx        0.000000D+00      0.000000D+00      0.000000D+00
   xxy        0.000000D+00      0.000000D+00      0.000000D+00
   yxy        0.000000D+00      0.000000D+00      0.000000D+00
   yyy        0.000000D+00      0.000000D+00      0.000000D+00
   xxz        0.000000D+00      0.000000D+00      0.000000D+00
   yxz       -0.398269D+01     -0.344073D-01     -0.127699D-01
   yyz        0.000000D+00      0.000000D+00      0.000000D+00
   zxz        0.000000D+00      0.000000D+00      0.000000D+00
   zyz        0.000000D+00      0.000000D+00      0.000000D+00
   zzz        0.000000D+00      0.000000D+00      0.000000D+00

 ----------------------------------------------------------------------
 1\1\GINC-NODE01\Freq\UM062X\6-31+G(d,p)\C2H4(1+,2)\SZHAO\25-Nov-2024\0
 \\#p UM062X/6-31+G** freq=raman int=superfine\\Title Card Required\\1,
 2\C,0.,0.701158,0.\C,0.,-0.701158,0.\H,0.920317,1.257996,-0.164109\H,-
 0.920317,1.257997,0.164109\H,-0.920317,-1.257996,-0.164109\H,0.920317,
 -1.257997,0.164109\\Version=ES64L-G16RevA.03\State=2-A\HF=-78.170041\S
 2=0.753643\S2-1=0.\S2A=0.75001\RMSD=8.776e-09\RMSF=7.464e-04\ZeroPoint
 =0.0496037\Thermal=0.0529052\Dipole=0.,0.,0.\DipoleDeriv=0.1569348,0.,
 -0.0147166,0.,0.1266133,0.,0.0427452,0.,0.1998787,0.1569348,0.,0.01471
 66,0.,0.1266133,0.,-0.0427452,0.,0.1998787,0.1715325,0.0628984,-0.0005
 524,0.0400569,0.1866931,-0.0062736,-0.0171066,-0.0111486,0.1500606,0.1
 715327,-0.0628985,-0.0005524,-0.0400568,0.1866934,0.0062735,-0.0171066
 ,0.0111486,0.1500607,0.1715325,0.0628984,0.0005524,0.0400569,0.1866931
 ,0.0062736,0.0171066,0.0111486,0.1500606,0.1715327,-0.0628985,0.000552
 4,-0.0400568,0.1866934,-0.0062735,0.0171066,-0.0111486,0.1500607\Polar
 =17.2008975,-0.0000066,26.7329053,0.,0.,10.2349099\PolarDeriv=-0.00000
 16,-2.3067575,0.0000037,0.0000007,0.724363,-0.0000003,-3.2026823,0.000
 004,8.2644596,0.6199238,-0.0000004,1.3838053,0.0000005,0.7130166,0.,0.
 0000003,3.8825779,-0.0000004,0.0000016,2.3067575,-0.0000037,0.0000007,
 0.724363,0.0000003,3.2026823,-0.000004,-8.2644596,0.6199238,-0.0000004
 ,-1.3838053,0.0000005,0.7130166,0.,-0.0000003,-3.8825779,-0.0000004,4.
 6109674,2.9395507,2.173301,-0.4555661,-0.3621815,0.8132176,1.8799029,1
 .7685529,3.6546217,-0.3099617,-0.2917131,0.2439594,-0.5883558,-0.35650
 82,-0.9305789,1.0820174,0.6913617,-0.6865935,-4.6109668,2.9395536,-2.1
 733045,0.4555654,-0.3621816,-0.8132179,1.8799045,-1.7685573,3.6546299,
 -0.3099614,0.2917135,0.243961,0.5883553,-0.3565085,0.9305788,-1.082018
 1,0.6913636,0.6865938,-4.6109674,-2.9395507,-2.173301,-0.4555661,-0.36
 21815,-0.8132176,-1.8799029,-1.7685529,-3.6546217,-0.3099617,-0.291713
 1,-0.2439594,-0.5883558,-0.3565082,-0.9305789,-1.0820174,-0.6913617,-0
 .6865935,4.6109668,-2.9395536,2.1733045,0.4555654,-0.3621816,0.8132179
 ,-1.8799045,1.7685573,-3.6546299,-0.3099614,0.2917135,-0.243961,0.5883
 553,-0.3565085,0.9305788,1.0820181,-0.6913636,0.6865938\HyperPolar=0.,
 0.,0.,0.,0.0000029,-3.982689,0.0000085,0.,0.,-0.0000051\Quadrupole=0.0
 273345,2.25486,-2.2821945,-0.0000027,0.,0.\PG=C02 [X(C2H4)]\NImag=0\\0
 .65322820,0.00000044,0.70461572,-0.07102753,-0.00000005,0.14304029,-0.
 11682026,0.,-0.00703492,0.65322820,0.,-0.41546906,-0.00000001,0.000000
 44,0.70461572,0.00703492,0.00000001,-0.06681690,0.07102753,0.00000005,
 0.14304029,-0.27707114,-0.12883983,0.03890816,0.00886672,0.00432405,-0
 .00012315,0.27771773,-0.12373808,-0.13059592,0.02497043,-0.02669863,-0
 .01397741,0.00370371,0.13590664,0.13456202,0.03667800,0.00851629,-0.04
 981490,0.00468163,0.01368992,0.01170327,-0.04429065,-0.02421942,0.0250
 7956,-0.27707023,0.12883940,0.03890798,0.00886672,-0.00432406,-0.00012
 315,-0.01035722,0.01269152,0.00421833,0.27771682,0.12373769,-0.1305959
 2,-0.02497036,0.02669858,-0.01397739,-0.00370369,-0.01269149,0.0127573
 3,0.00371795,-0.13590624,0.13456198,0.03667784,-0.00851622,-0.04981500
 ,0.00468160,-0.01368990,0.01170324,0.00421833,-0.00371796,0.01282094,-
 0.04429046,0.02421934,0.02507969,0.00886672,0.00432405,0.00012315,-0.2
 7707114,-0.12883983,-0.03890816,-0.00008647,0.00156958,-0.00201566,0.0
 0093038,-0.00026896,0.00072835,0.27771773,-0.02669863,-0.01397741,-0.0
 0370371,-0.12373808,-0.13059592,-0.02497043,0.00156958,-0.00359225,-0.
 00048398,0.00026897,0.00084622,0.00122074,0.13590664,0.13456202,-0.004
 68163,-0.01368992,0.01170327,-0.03667800,-0.00851629,-0.04981490,0.002
 01566,0.00048398,0.00184625,-0.00072835,0.00122075,-0.00163512,0.04429
 065,0.02421942,0.02507956,0.00886672,-0.00432406,0.00012315,-0.2770702
 3,0.12883940,-0.03890798,0.00093038,0.00026897,0.00072835,-0.00008647,
 -0.00156958,-0.00201566,-0.01035722,0.01269152,-0.00421833,0.27771682,
 0.02669858,-0.01397739,0.00370369,0.12373769,-0.13059592,0.02497036,-0
 .00026896,0.00084622,-0.00122075,-0.00156958,-0.00359224,0.00048399,-0
 .01269149,0.01275733,-0.00371795,-0.13590624,0.13456198,-0.00468160,0.
 01368990,0.01170324,-0.03667784,0.00851622,-0.04981500,-0.00072835,-0.
 00122074,-0.00163512,0.00201566,-0.00048399,0.00184625,-0.00421833,0.0
 0371796,0.01282094,0.04429046,-0.02421934,0.02507969\\0.00000018,-0.00
 192261,-0.00000005,-0.00000018,0.00192261,-0.00000005,-0.00068923,-0.0
 0042177,0.00007967,0.00068895,-0.00042153,-0.00007962,0.00068923,0.000
 42177,0.00007967,-0.00068895,0.00042153,-0.00007962\\\@


 THE MOST SERIOUS THREAT TO THE SURVIVAL OF MANKIND IS NOT NOW
 IGNORANCE IN THE TRADITIONAL SENSE,
 BUT A MORALLY NEUTRAL, AN INSENSITIVE OR INHIBITED HUMAN INTELLIGENCE.

                     -- MARGO JEFFERSON IN NEWSWEEK, SEPTEMBER 2, 1974
 Job cpu time:       0 days  0 hours  2 minutes 54.3 seconds.
 Elapsed time:       0 days  0 hours  0 minutes 21.9 seconds.
 File lengths (MBytes):  RWF=      7 Int=      0 D2E=      0 Chk=      1 Scr=      1
 Normal termination of Gaussian 16 at Mon Nov 25 04:46:37 2024.
