Title Card Required                                                     
FOpt      UM062X                                                      6-311+G(d,p)        
Number of atoms                            I                6
Info1-9                                    I   N=           9
          15          15           0           0           0         110
           2          18        -502
Full Title                                 C   N=           2
Title Card Required     
Route                                      C   N=           6
#p opt UM062X/6-311+G** nosymm int=superfine SCF=NoVarAcc SC
F=tight     
Charge                                     I                1
Multiplicity                               I                2
Number of electrons                        I               15
Number of alpha electrons                  I                8
Number of beta electrons                   I                7
Number of basis functions                  I               68
Number of independent functions            I               68
Number of point charges in /Mol/           I                0
Number of translation vectors              I                0
Atomic numbers                             I   N=           6
           6           6           1           1           1           1
Nuclear charges                            R   N=           6
  6.00000000E+00  6.00000000E+00  1.00000000E+00  1.00000000E+00  1.00000000E+00
  1.00000000E+00
Current cartesian coordinates              R   N=          18
 -5.86954037E+00  0.00000000E+00  0.00000000E+00  5.86954037E+00  0.00000000E+00
  0.00000000E+00 -6.93344829E+00 -1.77873343E+00 -1.51755594E-09 -6.93332831E+00
  1.77880394E+00 -2.43343614E-09  6.93344830E+00  1.77873342E+00  1.14863515E-09
  6.93332831E+00 -1.77880393E+00  2.32728735E-10
Number of symbols in /Mol/                 I                0
Force Field                                I                0
Atom Types                                 C   N=           6
                                                            
            
Int Atom Types                             I   N=           6
           0           0           0           0           0           0
MM charges                                 R   N=           6
  0.00000000E+00  0.00000000E+00  0.00000000E+00  0.00000000E+00  0.00000000E+00
  0.00000000E+00
Integer atomic weights                     I   N=           6
          12          12           1           1           1           1
Real atomic weights                        R   N=           6
  1.20000000E+01  1.20000000E+01  1.00782504E+00  1.00782504E+00  1.00782504E+00
  1.00782504E+00
Atom fragment info                         I   N=           6
           0           0           0           0           0           0
Atom residue num                           I   N=           6
           0           0           0           0           0           0
Nuclear spins                              I   N=           6
           0           0           1           1           1           1
Nuclear ZEff                               R   N=           6
 -3.60000000E+00 -3.60000000E+00 -1.00000000E+00 -1.00000000E+00 -1.00000000E+00
 -1.00000000E+00
Nuclear ZNuc                               R   N=           6
  6.00000000E+00  6.00000000E+00  1.00000000E+00  1.00000000E+00  1.00000000E+00
  1.00000000E+00
Nuclear QMom                               R   N=           6
  0.00000000E+00  0.00000000E+00  0.00000000E+00  0.00000000E+00  0.00000000E+00
  0.00000000E+00
Nuclear GFac                               R   N=           6
  0.00000000E+00  0.00000000E+00  2.79284600E+00  2.79284600E+00  2.79284600E+00
  2.79284600E+00
MicOpt                                     I   N=           6
          -2          -2          -1          -1          -1          -1
Number of residues                         I                0
Number of secondary structures             I                0
Redundant internal dimensions              I   N=           4
          20          10           6           4
Redundant internal coordinate indices      I   N=          80
           1          -1           0           0           1          -2
           0           0           1          -3           0           0
           2          -1           0           0           2          -2
           0           0           2          -3           0           0
           1           3           0           0           1           4
           0           0           2           5           0           0
           2           6           0           0           2           1
           3           0           2           1           4           0
           3           1           4           0           1           2
           5           0           1           2           6           0
           5           2           6           0           3           1
           2           5           3           1           2           6
           4           1           2           5           4           1
           2           6
Redundant internal coordinates             R   N=          20
 -5.86954037E+00  0.00000000E+00  0.00000000E+00  5.86954037E+00  0.00000000E+00
  0.00000000E+00  2.07262941E+00  2.07262834E+00  2.07262941E+00  2.07262833E+00
  2.10983725E+00  2.10977011E+00  2.06357795E+00  2.10983726E+00  2.10977011E+00
  2.06357794E+00  3.14159265E+00 -0.00000000E+00  0.00000000E+00  3.14159265E+00
ZRed-IntVec                                I   N=          20
          -1          -1          -1          -1          -1          -1
           0           0           0           0           0           0
           0           0           0           0           0           0
           0           0
ZRed-FPVec                                 R   N=          20
  0.00000000E+00  0.00000000E+00  0.00000000E+00  0.00000000E+00  0.00000000E+00
  0.00000000E+00  0.00000000E+00  0.00000000E+00  0.00000000E+00  0.00000000E+00
  0.00000000E+00  0.00000000E+00  0.00000000E+00  0.00000000E+00  0.00000000E+00
  0.00000000E+00  0.00000000E+00  0.00000000E+00  0.00000000E+00  0.00000000E+00
ZRed-Constraint1                           R   N=          20
 -5.86954037E+00  0.00000000E+00  0.00000000E+00  5.86954037E+00  0.00000000E+00
  0.00000000E+00  2.05067934E+00  2.05048469E+00  2.05067934E+00  2.05048469E+00
  1.98162443E+00  1.98155420E+00  2.32000667E+00  1.98162443E+00  1.98155420E+00
  2.32000667E+00  3.14159265E+00  0.00000000E+00  0.00000000E+00  3.14159265E+00
ZRed-Constraint2                           R   N=          20
 -5.86954037E+00  0.00000000E+00  0.00000000E+00  5.86954037E+00  0.00000000E+00
  0.00000000E+00  0.00000000E+00  0.00000000E+00  0.00000000E+00  0.00000000E+00
  0.00000000E+00  0.00000000E+00  0.00000000E+00  0.00000000E+00  0.00000000E+00
  0.00000000E+00  0.00000000E+00  0.00000000E+00  0.00000000E+00  0.00000000E+00
Number of contracted shells                I               28
Number of primitive shells                 I               50
Pure/Cartesian d shells                    I                0
Pure/Cartesian f shells                    I                0
Highest angular momentum                   I                2
Largest degree of contraction              I                6
Shell types                                I   N=          28
           0          -1          -1          -1          -1          -2
           0          -1          -1          -1          -1          -2
           0           0           0           1           0           0
           0           1           0           0           0           1
           0           0           0           1
Number of primitives per shell             I   N=          28
           6           3           1           1           1           1
           6           3           1           1           1           1
           3           1           1           1           3           1
           1           1           3           1           1           1
           3           1           1           1
Shell to atom map                          I   N=          28
           1           1           1           1           1           1
           2           2           2           2           2           2
           3           3           3           3           4           4
           4           4           5           5           5           5
           6           6           6           6
Primitive exponents                        R   N=          50
  4.56324000E+03  6.82024000E+02  1.54973000E+02  4.44553000E+01  1.30290000E+01
  1.82773000E+00  2.09642000E+01  4.80331000E+00  1.45933000E+00  4.83456000E-01
  1.45585000E-01  4.38000000E-02  6.26000000E-01  4.56324000E+03  6.82024000E+02
  1.54973000E+02  4.44553000E+01  1.30290000E+01  1.82773000E+00  2.09642000E+01
  4.80331000E+00  1.45933000E+00  4.83456000E-01  1.45585000E-01  4.38000000E-02
  6.26000000E-01  3.38650000E+01  5.09479000E+00  1.15879000E+00  3.25840000E-01
  1.02741000E-01  7.50000000E-01  3.38650000E+01  5.09479000E+00  1.15879000E+00
  3.25840000E-01  1.02741000E-01  7.50000000E-01  3.38650000E+01  5.09479000E+00
  1.15879000E+00  3.25840000E-01  1.02741000E-01  7.50000000E-01  3.38650000E+01
  5.09479000E+00  1.15879000E+00  3.25840000E-01  1.02741000E-01  7.50000000E-01
Contraction coefficients                   R   N=          50
  1.96665025E-03  1.52306019E-02  7.61269097E-02  2.60801033E-01  6.16462078E-01
  2.21006028E-01  1.14660081E-01  9.19999648E-01 -3.03068213E-03  1.00000000E+00
  1.00000000E+00  1.00000000E+00  1.00000000E+00  1.96665025E-03  1.52306019E-02
  7.61269097E-02  2.60801033E-01  6.16462078E-01  2.21006028E-01  1.14660081E-01
  9.19999648E-01 -3.03068213E-03  1.00000000E+00  1.00000000E+00  1.00000000E+00
  1.00000000E+00  2.54938145E-02  1.90373109E-01  8.52161486E-01  1.00000000E+00
  1.00000000E+00  1.00000000E+00  2.54938145E-02  1.90373109E-01  8.52161486E-01
  1.00000000E+00  1.00000000E+00  1.00000000E+00  2.54938145E-02  1.90373109E-01
  8.52161486E-01  1.00000000E+00  1.00000000E+00  1.00000000E+00  2.54938145E-02
  1.90373109E-01  8.52161486E-01  1.00000000E+00  1.00000000E+00  1.00000000E+00
P(S=P) Contraction coefficients            R   N=          50
  0.00000000E+00  0.00000000E+00  0.00000000E+00  0.00000000E+00  0.00000000E+00
  0.00000000E+00  4.02486927E-02  2.37593957E-01  8.15853851E-01  1.00000000E+00
  1.00000000E+00  1.00000000E+00  0.00000000E+00  0.00000000E+00  0.00000000E+00
  0.00000000E+00  0.00000000E+00  0.00000000E+00  0.00000000E+00  4.02486927E-02
  2.37593957E-01  8.15853851E-01  1.00000000E+00  1.00000000E+00  1.00000000E+00
  0.00000000E+00  0.00000000E+00  0.00000000E+00  0.00000000E+00  0.00000000E+00
  0.00000000E+00  0.00000000E+00  0.00000000E+00  0.00000000E+00  0.00000000E+00
  0.00000000E+00  0.00000000E+00  0.00000000E+00  0.00000000E+00  0.00000000E+00
  0.00000000E+00  0.00000000E+00  0.00000000E+00  0.00000000E+00  0.00000000E+00
  0.00000000E+00  0.00000000E+00  0.00000000E+00  0.00000000E+00  0.00000000E+00
Coordinates of each shell                  R   N=          84
 -5.86954037E+00  0.00000000E+00  0.00000000E+00 -5.86954037E+00  0.00000000E+00
  0.00000000E+00 -5.86954037E+00  0.00000000E+00  0.00000000E+00 -5.86954037E+00
  0.00000000E+00  0.00000000E+00 -5.86954037E+00  0.00000000E+00  0.00000000E+00
 -5.86954037E+00  0.00000000E+00  0.00000000E+00  5.86954037E+00  0.00000000E+00
  0.00000000E+00  5.86954037E+00  0.00000000E+00  0.00000000E+00  5.86954037E+00
  0.00000000E+00  0.00000000E+00  5.86954037E+00  0.00000000E+00  0.00000000E+00
  5.86954037E+00  0.00000000E+00  0.00000000E+00  5.86954037E+00  0.00000000E+00
  0.00000000E+00 -6.93344829E+00 -1.77873343E+00 -1.51755594E-09 -6.93344829E+00
 -1.77873343E+00 -1.51755594E-09 -6.93344829E+00 -1.77873343E+00 -1.51755594E-09
 -6.93344829E+00 -1.77873343E+00 -1.51755594E-09 -6.93332831E+00  1.77880394E+00
 -2.43343614E-09 -6.93332831E+00  1.77880394E+00 -2.43343614E-09 -6.93332831E+00
  1.77880394E+00 -2.43343614E-09 -6.93332831E+00  1.77880394E+00 -2.43343614E-09
  6.93344830E+00  1.77873342E+00  1.14863515E-09  6.93344830E+00  1.77873342E+00
  1.14863515E-09  6.93344830E+00  1.77873342E+00  1.14863515E-09  6.93344830E+00
  1.77873342E+00  1.14863515E-09  6.93332831E+00 -1.77880393E+00  2.32728735E-10
  6.93332831E+00 -1.77880393E+00  2.32728735E-10  6.93332831E+00 -1.77880393E+00
  2.32728735E-10  6.93332831E+00 -1.77880393E+00  2.32728735E-10
Num ILSW                                   I              100
ILSW                                       I   N=         100
           1           0           0           1           2           0
           0           0           0           0        4336          -1
           7           0           0           0           2           0
           0           0           0           0           1           0
           1           1           0           0           0           0
           0           0      100000           0          -1           0
           0           0           0           0           0           0
           0           0           0           1           0           0
           0 -2000000000           1           0           0           0
           0           0           4          52           0           0
           0           0          55           0           0           0
           0           0           0           6           0           1
           0           0           0           0           0           0
           0           0           0           0           0           0
           0           0           0           0           0           0
           0           0           0           0           0           0
           0           0           0           0
Num RLSW                                   I               52
RLSW                                       R   N=          52
  1.00000000E+00  1.00000000E+00  1.00000000E+00  1.00000000E+00  5.40000000E-01
  0.00000000E+00  0.00000000E+00  1.00000000E+00  0.00000000E+00  0.00000000E+00
  0.00000000E+00  0.00000000E+00  1.00000000E+00  0.00000000E+00  0.00000000E+00
  0.00000000E+00  0.00000000E+00  1.00000000E+00  0.00000000E+00  0.00000000E+00
  0.00000000E+00  0.00000000E+00  1.00000000E+00  0.00000000E+00  0.00000000E+00
  0.00000000E+00  0.00000000E+00  1.00000000E+00  0.00000000E+00  0.00000000E+00
  0.00000000E+00  0.00000000E+00  1.00000000E+00  0.00000000E+00  0.00000000E+00
  0.00000000E+00  0.00000000E+00  0.00000000E+00  1.00000000E+00  1.00000000E+00
  0.00000000E+00  1.00000000E+00  0.00000000E+00  0.00000000E+00  0.00000000E+00
  0.00000000E+00  0.00000000E+00  0.00000000E+00  0.00000000E+00  0.00000000E+00
  0.00000000E+00  0.00000000E+00
MxBond                                     I                3
NBond                                      I   N=           6
           3           3           1           1           1           1
IBond                                      I   N=          18
           2           3           4           1           5           6
           1           0           0           1           0           0
           2           0           0           2           0           0
RBond                                      R   N=          18
  1.00000000E-01  1.00000000E+00  1.00000000E+00  1.00000000E-01  1.00000000E+00
  1.00000000E+00  1.00000000E+00  0.00000000E+00  0.00000000E+00  1.00000000E+00
  0.00000000E+00  0.00000000E+00  1.00000000E+00  0.00000000E+00  0.00000000E+00
  1.00000000E+00  0.00000000E+00  0.00000000E+00
Virial Ratio                               R      2.003565807688491E+00
SCF Energy                                 R     -7.789580918204040E+01
Total Energy                               R     -7.789580918204040E+01
S**2                                       R      7.594857858725383E-01
S**2 after annihilation                    R      7.500103898498612E-01
RMS Force                                  R      1.095224732820314E-05
RMS Density                                R      4.148765964512395E-09
Job Status                                 I                1
Nuclear derivative order                   I                1
External E-field                           R   N=          35
  0.00000000E+00  0.00000000E+00  0.00000000E+00  0.00000000E+00  0.00000000E+00
  0.00000000E+00  0.00000000E+00  0.00000000E+00  0.00000000E+00  0.00000000E+00
  0.00000000E+00  0.00000000E+00  0.00000000E+00  0.00000000E+00  0.00000000E+00
  0.00000000E+00  0.00000000E+00  0.00000000E+00  0.00000000E+00  0.00000000E+00
  0.00000000E+00  0.00000000E+00  0.00000000E+00  0.00000000E+00  0.00000000E+00
  0.00000000E+00  0.00000000E+00  0.00000000E+00  0.00000000E+00  0.00000000E+00
  0.00000000E+00  0.00000000E+00  0.00000000E+00  0.00000000E+00  0.00000000E+00
IOpCl                                      I                1
IROHF                                      I                0
Alpha Orbital Energies                     R   N=          68
 -1.08661623E+01 -1.08661620E+01 -9.81546179E-01 -9.81542752E-01 -7.27862611E-01
 -7.27860295E-01 -5.56992167E-01 -5.56650449E-01 -2.98801059E-01 -2.98680890E-01
 -1.11027228E-01 -1.02756429E-01 -7.18703310E-02 -6.93137485E-02 -5.72557631E-02
 -5.14657804E-02 -3.84297174E-02 -1.01026633E-02  1.73098142E-02  1.76642364E-02
  2.45419403E-02  3.33015631E-02  2.78066793E-01  2.91047198E-01  2.94421664E-01
  2.99929935E-01  3.96793762E-01  4.05305091E-01  4.08072134E-01  4.39742455E-01
  4.44137605E-01  4.49525072E-01  5.24628426E-01  5.38261421E-01  8.65353168E-01
  8.65353173E-01  9.58632964E-01  9.60963988E-01  1.00582858E+00  1.00606084E+00
  1.24686208E+00  1.24746516E+00  1.32119769E+00  1.32210651E+00  1.48940786E+00
  1.50137054E+00  1.59399388E+00  1.59463517E+00  1.73313107E+00  1.73313107E+00
  1.84730131E+00  1.85160824E+00  2.18721372E+00  2.20860664E+00  2.27360577E+00
  2.27390341E+00  2.29122554E+00  2.29373338E+00  2.42670159E+00  2.42944791E+00
  2.51086959E+00  2.51835904E+00  2.71001216E+00  2.74035303E+00  3.47541975E+00
  3.47586119E+00  2.35251438E+01  2.35263895E+01
Beta Orbital Energies                      R   N=          68
 -1.08588394E+01 -1.08588368E+01 -9.60267594E-01 -9.59888726E-01 -7.17829950E-01
 -7.17820262E-01 -4.26138766E-01 -3.74139857E-01 -2.82605359E-01 -2.82351559E-01
 -1.10818757E-01 -1.05334073E-01 -7.42251091E-02 -6.13114213E-02 -5.77573082E-02
 -5.55057237E-02 -4.28192468E-02 -9.16226853E-03  1.83860578E-02  2.29738458E-02
  2.69662723E-02  3.84948094E-02  2.76503890E-01  2.88520271E-01  2.91617214E-01
  2.96365572E-01  3.97729854E-01  4.08687273E-01  4.29374620E-01  4.51754419E-01
  4.60662539E-01  4.61860769E-01  5.36591580E-01  5.52520435E-01  8.78117006E-01
  8.78117175E-01  9.82791391E-01  9.84521292E-01  1.02494148E+00  1.02499724E+00
  1.25711493E+00  1.25762446E+00  1.33306239E+00  1.33386452E+00  1.50218698E+00
  1.51409736E+00  1.59919640E+00  1.59982216E+00  1.74094443E+00  1.74094615E+00
  1.85797795E+00  1.86197948E+00  2.19991199E+00  2.22011573E+00  2.28853083E+00
  2.28991038E+00  2.32061808E+00  2.32287916E+00  2.44011774E+00  2.44248091E+00
  2.52517741E+00  2.53255076E+00  2.74555259E+00  2.77432075E+00  3.50323261E+00
  3.50361232E+00  2.35303769E+01  2.35316344E+01
Alpha MO coefficients                      R   N=        4624
  4.01618431E-01  3.30389748E-01 -5.91064438E-04  2.06668535E-08 -5.76797233E-13
  8.00714326E-03 -1.34497698E-03  4.83512052E-08 -2.74955171E-12 -2.63883759E-03
  4.38967361E-05  4.85287402E-10  3.26955508E-13 -4.40778024E-04  5.34060804E-04
 -1.08336451E-08  7.25196439E-13 -7.93921184E-04  1.33497642E-12 -5.46883584E-13
 -6.39422609E-04  4.09867289E-08 -3.96196337E-01 -3.25929260E-01 -5.83241425E-04
  2.03993839E-08 -2.15758877E-13 -7.89931545E-03 -1.32615425E-03  4.76420315E-08
 -8.98250809E-13  2.60435921E-03  4.19941979E-05  5.62796085E-10  1.09159124E-13
  4.32335568E-04  5.28653289E-04 -1.05910849E-08  2.22101292E-13  7.83133311E-04
 -4.63437951E-13 -5.39106961E-13  6.30687870E-04 -4.04368732E-08  2.21706923E-04
 -2.10216500E-03  1.65089792E-03 -7.30105165E-04 -1.15590692E-03 -1.04062754E-12
  2.21704774E-04 -2.10216719E-03  1.65088316E-03 -7.30029770E-04  1.15595923E-03
 -1.61752958E-12 -2.18677927E-04  2.07337444E-03 -1.62778112E-03 -7.20170664E-04
 -1.14019258E-03 -7.51676800E-13 -2.18675790E-04  2.07337648E-03 -1.62776617E-03
 -7.20096291E-04  1.14024416E-03 -1.82079225E-13  3.96196356E-01  3.25931110E-01
 -5.71555072E-04  1.95377627E-08 -5.68284965E-13  7.87892052E-03 -1.37572735E-03
  5.18623315E-08 -2.72943300E-12 -2.51878258E-03  1.39679246E-04 -5.70579579E-09
  3.16123914E-13 -6.18151942E-04  3.94224179E-04 -1.77748470E-08  7.81394418E-13
 -7.88313183E-04  1.32710257E-12 -5.42619165E-13 -6.38304358E-04  4.01703084E-08
  4.01618450E-01  3.30391573E-01  5.79535878E-04 -1.98168484E-08  2.26348389E-13
  7.98702373E-03  1.39388088E-03 -5.25149065E-08  8.89256616E-13 -2.55441630E-03
 -1.40262975E-04  5.69867690E-09 -4.32716918E-14 -6.24085794E-04 -4.01446586E-04
  1.79204755E-08 -3.35485173E-13 -7.99031139E-04  4.74961667E-13  5.50465685E-13
 -6.46936249E-04  4.07235959E-08  2.21348849E-04 -2.10395512E-03  1.68957967E-03
 -7.25960963E-04 -1.14831404E-03 -1.03433368E-12  2.21347948E-04 -2.10396616E-03
  1.68959363E-03 -7.25886283E-04  1.14836705E-03 -1.60743343E-12  2.24341783E-04
 -2.13233287E-03  1.71186218E-03  7.35817310E-04  1.16391876E-03  7.65580445E-13
  2.24340852E-04 -2.13234394E-03  1.71187595E-03  7.35741612E-04 -1.16397247E-03
  1.84542423E-13 -7.92210842E-02 -1.28455935E-01 -3.48347871E-02  1.25072733E-06
 -6.77877609E-11  3.62554196E-01 -5.06409884E-02  1.81449821E-06 -9.69572722E-11
  2.32493437E-01 -1.98910981E-02  7.14517303E-07 -4.12359562E-11  4.86716242E-04
 -4.27490869E-03  3.66101662E-08 -4.85496257E-12 -5.33907997E-03  9.45142779E-12
 -3.20278696E-12 -3.35894308E-03  2.05201693E-07  7.91838189E-02  1.28395504E-01
 -3.48183604E-02  1.25013873E-06 -2.27452897E-11 -3.62383529E-01 -5.06174035E-02
  1.81366543E-06 -3.19869197E-11 -2.32384559E-01 -1.98810557E-02  7.14149690E-07
 -1.41896234E-11 -4.85451671E-04 -4.27387904E-03  3.65473827E-08 -6.98962676E-13
  5.33658531E-03 -3.72063887E-12 -3.20007486E-12  3.35738665E-03 -2.05102086E-07
  7.76822173E-02  9.28513873E-02 -4.53118877E-03  5.53875913E-03  1.32561186E-02
  7.37757655E-12  7.76823699E-02  9.28514492E-02 -4.53093772E-03  5.53787644E-03
 -1.32564917E-02  1.41532595E-11 -7.76456808E-02 -9.28076370E-02  4.52878077E-03
  5.53612341E-03  1.32498604E-02  7.12932545E-12 -7.76458333E-02 -9.28076988E-02
  4.52852967E-03  5.53524113E-03 -1.32502332E-02  3.58968765E-13 -7.91862020E-02
 -1.28410957E-01 -3.49071114E-02  1.25588430E-06 -6.77784198E-11  3.62653715E-01
 -5.01180353E-02  1.77548106E-06 -9.67559957E-11  2.31358359E-01 -2.13404286E-02
  7.83050635E-07 -4.13290994E-11  2.68788687E-03 -2.18747670E-03  1.33501732E-07
 -5.45135864E-12 -5.30100785E-03  9.39823568E-12 -3.17330905E-12 -3.30704211E-03
  2.10879531E-07 -7.92234660E-02 -1.28471380E-01  3.49234977E-02 -1.25647503E-06
  2.27266381E-11  3.62824252E-01  5.01418566E-02 -1.77633733E-06  3.21278640E-11
  2.31467718E-01  2.13497851E-02 -7.83387606E-07  1.36549812E-11  2.68811566E-03
  2.18948778E-03 -1.33518977E-07  1.77577290E-12 -5.30351926E-03  3.70052208E-12
  3.17373377E-12 -3.30862196E-03  2.10975689E-07  7.76385713E-02  9.29672111E-02
 -5.11687407E-03  5.60090527E-03  1.32984457E-02  7.43048204E-12  7.76387125E-02
  9.29673843E-02 -5.11699721E-03  5.60002444E-03 -1.32988331E-02  1.42272700E-11
  7.76751118E-02  9.30108867E-02 -5.11900532E-03 -5.60351066E-03 -1.33046811E-02
 -7.15471630E-12  7.76752530E-02  9.30110600E-02 -5.11912833E-03 -5.60262941E-03
  1.33050687E-02 -3.56702581E-13  4.16669176E-08  7.01848917E-08  5.29160038E-06
  1.58306244E-01 -4.08077343E-11 -2.13947438E-07  7.87496684E-06  2.35195132E-01
 -6.05064598E-11 -3.11805431E-07  3.96937357E-06  1.16881961E-01 -3.02412002E-11
 -6.14255271E-08 -7.06863646E-08 -2.31316759E-03  7.21245594E-13 -3.62882105E-09
  6.36077161E-12 -4.50599641E-11 -1.68425644E-06 -2.49859957E-02 -4.16190487E-08
 -7.01042492E-08  5.28536389E-06  1.58119777E-01  4.07577193E-11  2.13703969E-07
  7.86567854E-06  2.34917998E-01  6.04361096E-11  3.11433492E-07  3.96470805E-06
  1.16744359E-01  3.01991517E-11  6.14251469E-08 -7.06039067E-08 -2.30967857E-03
 -7.06413674E-13  3.62629894E-09  6.35585775E-12  1.53926815E-11  1.68227110E-06
  2.49565256E-02 -1.05407553E-01 -1.50953498E-01 -3.75109085E-02 -8.30434747E-03
 -7.54637225E-03 -1.31233494E-11  1.05407521E-01  1.50953440E-01  3.75110781E-02
  8.30384162E-03 -7.54690999E-03  1.70088841E-11  1.05283364E-01  1.50775918E-01
  3.74658922E-02 -8.29457548E-03 -7.53750305E-03 -7.20954222E-12 -1.05283332E-01
 -1.50775861E-01 -3.74660617E-02  8.29407022E-03 -7.53804015E-03  3.32057077E-12
 -4.14203358E-08 -6.97777661E-08 -5.28739627E-06 -1.58112134E-01  4.07552585E-11
  2.10664642E-07 -7.87518651E-06 -2.34992388E-01  6.04694646E-11  3.21179560E-07
 -3.95610877E-06 -1.16678663E-01  3.01331793E-11  6.62159975E-10  6.98441681E-08
  2.95891583E-03 -7.74747558E-13  2.23646127E-09 -6.36157747E-12  4.50665288E-11
  1.68355540E-06  2.49891224E-02 -4.14703974E-08 -6.98620898E-08  5.29362857E-06
  1.58298610E-01  4.08022453E-11  2.10921634E-07  7.88446191E-06  2.35269434E-01
  6.05409529E-11  3.21553705E-07  3.96078450E-06  1.16816343E-01  3.01625886E-11
  7.34954041E-10 -6.99273115E-08 -2.96164021E-03 -7.60898336E-13  2.24085300E-09
  6.37187240E-12  1.54303842E-11  1.68553948E-06  2.50185547E-02  1.05304543E-01
  1.50576412E-01  3.81719764E-02  8.28607416E-03  7.52039375E-03  1.30971293E-11
 -1.05304507E-01 -1.50576374E-01 -3.81720893E-02 -8.28557108E-03  7.52093203E-03
 -1.69661994E-11  1.05428707E-01  1.50754227E-01  3.82161622E-02 -8.29585626E-03
 -7.52928279E-03 -7.20615291E-12 -1.05428671E-01 -1.50754189E-01 -3.82162752E-02
  8.29535257E-03 -7.52982171E-03  3.32311587E-12 -3.16227958E-02 -5.33293889E-02
  1.89035741E-01 -6.34102922E-06  2.79872439E-10  1.70201436E-01  2.84928401E-01
 -9.55791817E-06  4.18741100E-10  2.01546546E-01  2.29941446E-01 -7.56964936E-06
  3.33344831E-10  1.03098627E-02  1.19943803E-02 -2.36932350E-07  1.61974504E-11
  1.28683351E-02 -4.76360808E-11  4.17863437E-12 -5.63809205E-03  3.90216805E-07
 -3.16225964E-02 -5.33290528E-02 -1.89034548E-01  6.34098898E-06 -1.04584655E-10
  1.70200364E-01 -2.84926607E-01  9.55785738E-06 -1.57500338E-10  2.01545269E-01
 -2.29939984E-01  7.56960031E-06 -1.24733197E-10  1.03098168E-02 -1.19943196E-02
  2.36930023E-07 -7.68343851E-12  1.28682543E-02 -1.61822041E-11 -4.17932317E-12
 -5.63805621E-03  3.90214481E-07 -4.73887481E-02 -7.63096396E-02 -2.80821669E-02
  8.20029269E-03 -8.96605683E-03  1.30612312E-11 -4.73887441E-02 -7.63095998E-02
 -2.80825913E-02  8.20090041E-03  8.96550360E-03  8.50824624E-12 -4.73884497E-02
 -7.63091568E-02 -2.80819968E-02 -8.20024141E-03  8.96599997E-03 -1.87649283E-12
 -4.73884457E-02 -7.63091170E-02 -2.80824212E-02 -8.20084914E-03 -8.96544675E-03
 -6.44538029E-12 -3.17028439E-02 -5.34544750E-02  1.89402598E-01 -6.34888202E-06
  2.80536943E-10  1.70362422E-01  2.84714886E-01 -9.51986632E-06  4.19288622E-10
  2.03102244E-01  2.32165604E-01 -7.65535296E-06  3.34920715E-10  7.38676437E-03
  9.69674527E-03 -3.55091039E-07  1.66713325E-11  1.28395877E-02 -4.76444469E-11
  4.14190558E-12 -5.73019470E-03  3.83763704E-07  3.17030433E-02  5.34548113E-02
  1.89403788E-01 -6.34892171E-06  1.04875691E-10 -1.70363495E-01  2.84716680E-01
 -9.51992567E-06  1.57537343E-10 -2.03103516E-01  2.32167052E-01 -7.65539981E-06
  1.26025572E-10 -7.38682982E-03  9.69682105E-03 -3.55092454E-07  6.68928455E-12
 -1.28396689E-02  1.61879386E-11  4.14241055E-12  5.73023045E-03 -3.83766250E-07
 -4.74032303E-02 -7.66873750E-02 -2.70518924E-02  8.13151824E-03 -9.03382190E-03
  1.30261139E-11 -4.74032035E-02 -7.66874408E-02 -2.70518855E-02  8.13212470E-03
  9.03328296E-03  8.43875555E-12  4.74035288E-02  7.66878557E-02  2.70520695E-02
  8.13156982E-03 -9.03387840E-03  1.82585263E-12  4.74035020E-02  7.66879215E-02
  2.70520626E-02  8.13217628E-03  9.03333945E-03  6.42766257E-12 -1.05921784E-11
 -1.71322718E-11 -2.89936733E-10  4.74146046E-11  1.84515976E-01  4.79542009E-11
 -4.69225211E-10  7.67924434E-11  2.96155877E-01  8.44127781E-11 -5.02229917E-10
  8.15119951E-11  3.17493503E-01 -2.31579370E-12 -1.16834328E-10  1.85339294E-11
  7.17991136E-02 -3.10414543E-11 -9.48423311E-03  3.33677505E-07  1.62167331E-11
 -2.79795304E-12  2.13259722E-12  3.42430212E-12 -1.07908832E-10 -4.73989150E-11
  1.84512352E-01 -9.13218843E-12 -1.73456696E-10 -7.67816113E-11  2.96150056E-01
 -2.04374365E-11 -1.86482056E-10 -8.14977018E-11  3.17487278E-01 -6.41553755E-12
 -4.52619416E-11 -1.86669340E-11  7.17976870E-02  9.82627245E-12  9.48404636E-03
 -3.33671125E-07 -6.12450662E-12 -2.79898969E-12 -1.40449219E-11 -2.33411416E-11
 -1.27771793E-11 -2.72007078E-11  1.97037592E-12  1.63795698E-02 -1.40007790E-11
 -2.39396552E-11 -1.20835948E-11 -2.74094073E-11  6.85756579E-12  1.63795853E-02
  3.75943425E-12  5.75077533E-12  7.65785068E-12 -1.00238278E-11 -4.87954426E-12
  1.63792477E-02  3.79487917E-12  5.18359632E-12  8.09318505E-12 -9.79268894E-12
 -3.95566238E-12  1.63792632E-02  1.08949283E-11  1.76590004E-11  2.89205669E-10
 -4.74292576E-11 -1.84681240E-01 -4.98010761E-11  4.68254857E-10 -7.69370007E-11
 -2.96595049E-01 -8.61496376E-11  5.01964607E-10 -8.16579498E-11 -3.17267501E-01
  3.31585971E-12  1.15183778E-10 -1.80783868E-11 -7.27579915E-02  3.10015966E-11
  9.52591232E-03 -3.33940419E-07 -1.60763771E-11  2.83897919E-12  2.90456999E-12
  4.75788014E-12 -1.05542727E-10 -4.74160903E-11  1.84684860E-01 -1.38828946E-11
 -1.69657108E-10 -7.69254038E-11  2.96600860E-01 -2.42975576E-11 -1.85190343E-10