 Entering Gaussian System, Link 0=g16
 Initial command:
 /home/szhao/Apps/g16/l1.exe "/home/szhao/tmp/Gau-120240.inp" -scrdir="/home/szhao/tmp/"
 Default is to use a total of  16 processors:
                               16 via shared-memory
                                1 via Linda
 Entering Link 1 = /home/szhao/Apps/g16/l1.exe PID=    120242.
  
 Copyright (c) 1988,1990,1992,1993,1995,1998,2003,2009,2016,
            Gaussian, Inc.  All Rights Reserved.
  
 This is part of the Gaussian(R) 16 program.  It is based on
 the Gaussian(R) 09 system (copyright 2009, Gaussian, Inc.),
 the Gaussian(R) 03 system (copyright 2003, Gaussian, Inc.),
 the Gaussian(R) 98 system (copyright 1998, Gaussian, Inc.),
 the Gaussian(R) 94 system (copyright 1995, Gaussian, Inc.),
 the Gaussian 92(TM) system (copyright 1992, Gaussian, Inc.),
 the Gaussian 90(TM) system (copyright 1990, Gaussian, Inc.),
 the Gaussian 88(TM) system (copyright 1988, Gaussian, Inc.),
 the Gaussian 86(TM) system (copyright 1986, Carnegie Mellon
 University), and the Gaussian 82(TM) system (copyright 1983,
 Carnegie Mellon University). Gaussian is a federally registered
 trademark of Gaussian, Inc.
  
 This software contains proprietary and confidential information,
 including trade secrets, belonging to Gaussian, Inc.
  
 This software is provided under written license and may be
 used, copied, transmitted, or stored only in accord with that
 written license.
  
 The following legend is applicable only to US Government
 contracts under FAR:
  
                    RESTRICTED RIGHTS LEGEND
  
 Use, reproduction and disclosure by the US Government is
 subject to restrictions as set forth in subparagraphs (a)
 and (c) of the Commercial Computer Software - Restricted
 Rights clause in FAR 52.227-19.
  
 Gaussian, Inc.
 340 Quinnipiac St., Bldg. 40, Wallingford CT 06492
  
  
 ---------------------------------------------------------------
 Warning -- This program may not be used in any manner that
 competes with the business of Gaussian, Inc. or will provide
 assistance to any competitor of Gaussian, Inc.  The licensee
 of this program is prohibited from giving any competitor of
 Gaussian, Inc. access to this program.  By using this program,
 the user acknowledges that Gaussian, Inc. is engaged in the
 business of creating and licensing software in the field of
 computational chemistry and represents and warrants to the
 licensee that it is not a competitor of Gaussian, Inc. and that
 it will not use this program in any manner prohibited above.
 ---------------------------------------------------------------
  

 Cite this work as:
 Gaussian 16, Revision A.03,
 M. J. Frisch, G. W. Trucks, H. B. Schlegel, G. E. Scuseria, 
 M. A. Robb, J. R. Cheeseman, G. Scalmani, V. Barone, 
 G. A. Petersson, H. Nakatsuji, X. Li, M. Caricato, A. V. Marenich, 
 J. Bloino, B. G. Janesko, R. Gomperts, B. Mennucci, H. P. Hratchian, 
 J. V. Ortiz, A. F. Izmaylov, J. L. Sonnenberg, D. Williams-Young, 
 F. Ding, F. Lipparini, F. Egidi, J. Goings, B. Peng, A. Petrone, 
 T. Henderson, D. Ranasinghe, V. G. Zakrzewski, J. Gao, N. Rega, 
 G. Zheng, W. Liang, M. Hada, M. Ehara, K. Toyota, R. Fukuda, 
 J. Hasegawa, M. Ishida, T. Nakajima, Y. Honda, O. Kitao, H. Nakai, 
 T. Vreven, K. Throssell, J. A. Montgomery, Jr., J. E. Peralta, 
 F. Ogliaro, M. J. Bearpark, J. J. Heyd, E. N. Brothers, K. N. Kudin, 
 V. N. Staroverov, T. A. Keith, R. Kobayashi, J. Normand, 
 K. Raghavachari, A. P. Rendell, J. C. Burant, S. S. Iyengar, 
 J. Tomasi, M. Cossi, J. M. Millam, M. Klene, C. Adamo, R. Cammi, 
 J. W. Ochterski, R. L. Martin, K. Morokuma, O. Farkas, 
 J. B. Foresman, and D. J. Fox, Gaussian, Inc., Wallingford CT, 2016.
 
 ******************************************
 Gaussian 16:  ES64L-G16RevA.03 25-Dec-2016
                15-May-2025 
 ******************************************
 %chk=opt.chk
 %mem=4GB
 %nprocshared=8
 Will use up to    8 processors via shared memory.
 --------------------------------------------
 #p opt UM062X/6-311+G** nosymm int=superfine
 --------------------------------------------
 1/18=20,19=15,26=5,38=1/1,3;
 2/9=110,12=2,15=1,17=6,18=5,40=1/2;
 3/5=4,6=6,7=111,11=2,25=1,30=1,71=1,74=-55,75=-7,116=2/1,2,3;
 4//1;
 5/5=2,38=5/2;
 6/7=2,8=2,9=2,10=2,28=1/1;
 7/30=1/1,2,3,16;
 1/18=20,19=15,26=5/3(2);
 2/9=110,15=1/2;
 99//99;
 2/9=110,15=1/2;
 3/5=4,6=6,7=111,11=2,25=1,30=1,71=1,74=-55,75=-7,116=2/1,2,3;
 4/5=5,16=3,69=1/1;
 5/5=2,38=5/2;
 7/30=1/1,2,3,16;
 1/18=20,19=15,26=5/3(-5);
 2/9=110,15=1/2;
 6/7=2,8=2,9=2,10=2,19=2,28=1/1;
 99/9=1/99;
 Leave Link    1 at Thu May 15 14:47:45 2025, MaxMem=   536870912 cpu:               0.3 elap:               0.0
 (Enter /home/szhao/Apps/g16/l101.exe)
 -------------------
 Title Card Required
 -------------------
 Symbolic Z-matrix:
 Charge =  0 Multiplicity = 1
 N                    -1   -1.53654   0.        0. 
 N                    -1    1.53654   0.        0. 
 H                    0    -1.85239  -0.96125   0. 
 H                    0     1.85239   0.82259  -0.49735 
 H                    0    -1.92918   0.46934   0.80975 
 H                    0     1.92918   0.01733   0.93577 
 
 Add virtual bond connecting atoms N2         and N1         Dist= 5.81D+00.
 ITRead=  2  2  0  0  0  0
 MicOpt= -2 -2 -1 -1 -1 -1
 NAtoms=      6 NQM=        4 NQMF=       2 NMMI=      0 NMMIF=      0
                NMic=       0 NMicF=      0.
                    Isotopes and Nuclear Properties:
 (Nuclear quadrupole moments (NQMom) in fm**2, nuclear magnetic moments (NMagM)
  in nuclear magnetons)

  Atom         1           2           3           4           5           6
 IAtWgt=          14          14           1           1           1           1
 AtmWgt=  14.0030740  14.0030740   1.0078250   1.0078250   1.0078250   1.0078250
 NucSpn=           2           2           1           1           1           1
 AtZEff=  -0.0000000  -0.0000000  -0.0000000  -0.0000000  -0.0000000  -0.0000000
 NQMom=    2.0440000   2.0440000   0.0000000   0.0000000   0.0000000   0.0000000
 NMagM=    0.4037610   0.4037610   2.7928460   2.7928460   2.7928460   2.7928460
 AtZNuc=   7.0000000   7.0000000   1.0000000   1.0000000   1.0000000   1.0000000
 Leave Link  101 at Thu May 15 14:47:45 2025, MaxMem=   536870912 cpu:               1.9 elap:               0.3
 (Enter /home/szhao/Apps/g16/l103.exe)

 GradGradGradGradGradGradGradGradGradGradGradGradGradGradGradGradGradGrad
 Berny optimization.
 Initialization pass.
                           ----------------------------
                           !    Initial Parameters    !
                           ! (Angstroms and Degrees)  !
 --------------------------                            --------------------------
 ! Name  Definition              Value          Derivative Info.                !
 --------------------------------------------------------------------------------
 ! X1    R(1,-1)                -1.5365         Frozen                          !
 ! Y1    R(1,-2)                 0.0            Frozen                          !
 ! Z1    R(1,-3)                 0.0            Frozen                          !
 ! X2    R(2,-1)                 1.5365         Frozen                          !
 ! Y2    R(2,-2)                 0.0            Frozen                          !
 ! Z2    R(2,-3)                 0.0            Frozen                          !
 ! R1    R(1,3)                  1.0118         estimate D2E/DX2                !
 ! R2    R(1,5)                  1.015          estimate D2E/DX2                !
 ! R3    R(2,4)                  1.0118         estimate D2E/DX2                !
 ! R4    R(2,6)                  1.015          estimate D2E/DX2                !
 ! A1    A(2,1,3)              108.1896         estimate D2E/DX2                !
 ! A2    A(2,1,5)              112.759          estimate D2E/DX2                !
 ! A3    A(3,1,5)              108.5753         estimate D2E/DX2                !
 ! A4    A(1,2,4)              108.1895         estimate D2E/DX2                !
 ! A5    A(1,2,6)              112.7589         estimate D2E/DX2                !
 ! A6    A(4,2,6)              108.5754         estimate D2E/DX2                !
 ! D1    D(3,1,2,4)            148.842          estimate D2E/DX2                !
 ! D2    D(3,1,2,6)            -91.0611         estimate D2E/DX2                !
 ! D3    D(5,1,2,4)            -91.0611         estimate D2E/DX2                !
 ! D4    D(5,1,2,6)             29.0358         estimate D2E/DX2                !
 --------------------------------------------------------------------------------
 Trust Radius=3.00D-01 FncErr=1.00D-07 GrdErr=1.00D-07 EigMax=2.50D+02 EigMin=1.00D-04
 Number of steps in this run=     30 maximum allowed number of steps=    100.
 GradGradGradGradGradGradGradGradGradGradGradGradGradGradGradGradGradGrad

 Leave Link  103 at Thu May 15 14:47:45 2025, MaxMem=   536870912 cpu:               0.1 elap:               0.0
 (Enter /home/szhao/Apps/g16/l202.exe)
                          Input orientation:                          
 ---------------------------------------------------------------------
 Center     Atomic      Atomic             Coordinates (Angstroms)
 Number     Number       Type             X           Y           Z
 ---------------------------------------------------------------------
      1          7           0       -1.536540    0.000000    0.000000
      2          7           0        1.536540    0.000000    0.000000
      3          1           0       -1.852390   -0.961252    0.000000
      4          1           0        1.852388    0.822586   -0.497352
      5          1           0       -1.929182    0.469337    0.809750
      6          1           0        1.929180    0.017333    0.935772
 ---------------------------------------------------------------------
                    Distance matrix (angstroms):
                    1          2          3          4          5
     1  N    0.000000
     2  N    3.073080   0.000000
     3  H    1.011814   3.522620   0.000000
     4  H    3.522618   1.011813   4.141838   0.000000
     5  H    1.014957   3.589874   1.645654   4.016661   0.000000
     6  H    3.589873   1.014956   4.016662   1.645653   3.886791
                    6
     6  H    0.000000
 Symmetry turned off by external request.
 Stoichiometry    H4N2
 Framework group  C1[X(H4N2)]
 Deg. of freedom    12
 Full point group                 C1      NOp   1
 Rotational constants (GHZ):         144.6964756           6.1364142           6.1348435
 Leave Link  202 at Thu May 15 14:47:45 2025, MaxMem=   536870912 cpu:               0.0 elap:               0.0
 (Enter /home/szhao/Apps/g16/l301.exe)
 Standard basis: 6-311+G(d,p) (5D, 7F)
 Ernie: Thresh=  0.10000D-02 Tol=  0.10000D-05 Strict=F.
    68 basis functions,   104 primitive gaussians,    70 cartesian basis functions
     9 alpha electrons        9 beta electrons
       nuclear repulsion energy        28.3963313851 Hartrees.
 IExCor= 4336 DFT=T Ex+Corr=M062X ExCW=0 ScaHFX=  0.540000
 ScaDFX=  1.000000  1.000000  1.000000  1.000000 ScalE2=  1.000000  1.000000
 IRadAn=      7 IRanWt=     -1 IRanGd=            0 ICorTp=0 IEmpDi=  4
 NAtoms=    6 NActive=    6 NUniq=    6 SFac= 1.00D+00 NAtFMM=   60 NAOKFM=F Big=F
 Integral buffers will be    131072 words long.
 Raffenetti 2 integral format.
 Two-electron integral symmetry is turned off.
 Leave Link  301 at Thu May 15 14:47:45 2025, MaxMem=   536870912 cpu:               0.3 elap:               0.0
 (Enter /home/szhao/Apps/g16/l302.exe)
 NPDir=0 NMtPBC=     1 NCelOv=     1 NCel=       1 NClECP=     1 NCelD=      1
         NCelK=      1 NCelE2=     1 NClLst=     1 CellRange=     0.0.
 One-electron integrals computed using PRISM.
 NBasis=    68 RedAO= T EigKep=  4.59D-03  NBF=    68
 NBsUse=    68 1.00D-06 EigRej= -1.00D+00 NBFU=    68
 Precomputing XC quadrature grid using
 IXCGrd= 4 IRadAn=           7 IRanWt=          -1 IRanGd=           0 AccXCQ= 0.00D+00.
 Generated NRdTot=       0 NPtTot=           0 NUsed=           0 NTot=          32
 NSgBfM=    70    70    70    70    70 MxSgAt=     6 MxSgA2=     6.
 Leave Link  302 at Thu May 15 14:47:46 2025, MaxMem=   536870912 cpu:               1.0 elap:               0.1
 (Enter /home/szhao/Apps/g16/l303.exe)
 DipDrv:  MaxL=1.
 Leave Link  303 at Thu May 15 14:47:46 2025, MaxMem=   536870912 cpu:               0.2 elap:               0.0
 (Enter /home/szhao/Apps/g16/l401.exe)
 ExpMin= 6.39D-02 ExpMax= 6.29D+03 ExpMxC= 9.49D+02 IAcc=3 IRadAn=         7 AccDes= 0.00D+00
 Harris functional with IExCor= 1009 and IRadAn=       7 diagonalized for initial guess.
 HarFok:  IExCor= 1009 AccDes= 0.00D+00 IRadAn=         7 IDoV= 1 UseB2=F ITyADJ=14
 ICtDFT=  3500011 ScaDFX=  1.000000  1.000000  1.000000  1.000000
 FoFCou: FMM=F IPFlag=           0 FMFlag=      100000 FMFlg1=           0
         NFxFlg=           0 DoJE=T BraDBF=F KetDBF=T FulRan=T
         wScrn=  0.000000 ICntrl=       500 IOpCl=  0 I1Cent=   200000004 NGrid=           0
         NMat0=    1 NMatS0=      1 NMatT0=    0 NMatD0=    1 NMtDS0=    0 NMtDT0=    0
 Symmetry not used in FoFCou.
 Harris En= -111.637613008431    
 JPrj=0 DoOrth=F DoCkMO=F.
 Initial guess <Sx>= 0.0000 <Sy>= 0.0000 <Sz>= 0.0000 <S**2>=-0.0000 S=-0.0000
 Leave Link  401 at Thu May 15 14:47:46 2025, MaxMem=   536870912 cpu:               2.1 elap:               0.3
 (Enter /home/szhao/Apps/g16/l502.exe)
 Keep R1 and R2 ints in memory in canonical form, NReq=12681614.
 FoFCou: FMM=F IPFlag=           0 FMFlag=           0 FMFlg1=           0
         NFxFlg=           0 DoJE=F BraDBF=F KetDBF=F FulRan=T
         wScrn=  0.000000 ICntrl=       600 IOpCl=  0 I1Cent=           0 NGrid=           0
         NMat0=    1 NMatS0=   2346 NMatT0=    0 NMatD0=    1 NMtDS0=    0 NMtDT0=    0
 Symmetry not used in FoFCou.
 Two-electron integral symmetry not used.
 UHF open shell SCF:
 Using DIIS extrapolation, IDIIS=  1040.
 NGot=   536870912 LenX=   531353794 LenY=   531348453
 Requested convergence on RMS density matrix=1.00D-08 within 128 cycles.
 Requested convergence on MAX density matrix=1.00D-06.
 Requested convergence on             energy=1.00D-06.
 No special actions if energy rises.
 Integral accuracy reduced to 1.0D-05 until final iterations.

 Cycle   1  Pass 0  IDiag  1:
 E= -111.584819360457    
 DIIS: error= 3.57D-02 at cycle   1 NSaved=   1.
 NSaved= 1 IEnMin= 1 EnMin= -111.584819360457     IErMin= 1 ErrMin= 3.57D-02
 ErrMax= 3.57D-02  0.00D+00 EMaxC= 1.00D-01 BMatC= 3.18D-01 BMatP= 3.18D-01
 IDIUse=3 WtCom= 6.43D-01 WtEn= 3.57D-01
 Coeff-Com:  0.100D+01
 Coeff-En:   0.100D+01
 Coeff:      0.100D+01
 Gap=     0.126 Goal=   None    Shift=    0.000
 Gap=     0.126 Goal=   None    Shift=    0.000
 GapD=    0.126 DampG=1.000 DampE=0.500 DampFc=0.5000 IDamp=-1.
 Damping current iteration by 5.00D-01
 RMSDP=3.97D-03 MaxDP=5.93D-02              OVMax= 1.45D-01

 Cycle   2  Pass 0  IDiag  1:
 E= -111.612168751204     Delta-E=       -0.027349390747 Rises=F Damp=T
 DIIS: error= 1.38D-02 at cycle   2 NSaved=   2.
 NSaved= 2 IEnMin= 2 EnMin= -111.612168751204     IErMin= 2 ErrMin= 1.38D-02
 ErrMax= 1.38D-02  0.00D+00 EMaxC= 1.00D-01 BMatC= 2.40D-02 BMatP= 3.18D-01
 IDIUse=3 WtCom= 8.62D-01 WtEn= 1.38D-01
 Coeff-Com: -0.890D-01 0.109D+01
 Coeff-En:   0.000D+00 0.100D+01
 Coeff:     -0.767D-01 0.108D+01
 Gap=     0.123 Goal=   None    Shift=    0.000
 Gap=     0.123 Goal=   None    Shift=    0.000
 RMSDP=7.38D-04 MaxDP=1.38D-02 DE=-2.73D-02 OVMax= 6.76D-02

 Cycle   3  Pass 0  IDiag  1:
 E= -111.639754740013     Delta-E=       -0.027585988809 Rises=F Damp=F
 DIIS: error= 2.76D-03 at cycle   3 NSaved=   3.
 NSaved= 3 IEnMin= 3 EnMin= -111.639754740013     IErMin= 3 ErrMin= 2.76D-03
 ErrMax= 2.76D-03  0.00D+00 EMaxC= 1.00D-01 BMatC= 1.38D-03 BMatP= 2.40D-02
 IDIUse=3 WtCom= 9.72D-01 WtEn= 2.76D-02
 Coeff-Com: -0.673D-01 0.150D+00 0.917D+00
 Coeff-En:   0.000D+00 0.000D+00 0.100D+01
 Coeff:     -0.654D-01 0.146D+00 0.920D+00
 Gap=     0.122 Goal=   None    Shift=    0.000
 Gap=     0.122 Goal=   None    Shift=    0.000
 RMSDP=2.14D-04 MaxDP=2.15D-03 DE=-2.76D-02 OVMax= 1.08D-02

 Cycle   4  Pass 0  IDiag  1:
 E= -111.640153098138     Delta-E=       -0.000398358125 Rises=F Damp=F
 DIIS: error= 4.33D-04 at cycle   4 NSaved=   4.
 NSaved= 4 IEnMin= 4 EnMin= -111.640153098138     IErMin= 4 ErrMin= 4.33D-04
 ErrMax= 4.33D-04  0.00D+00 EMaxC= 1.00D-01 BMatC= 3.63D-05 BMatP= 1.38D-03
 IDIUse=3 WtCom= 9.96D-01 WtEn= 4.33D-03
 Coeff-Com:  0.178D-02-0.754D-02 0.619D-01 0.944D+00
 Coeff-En:   0.000D+00 0.000D+00 0.000D+00 0.100D+01
 Coeff:      0.177D-02-0.750D-02 0.617D-01 0.944D+00
 Gap=     0.122 Goal=   None    Shift=    0.000
 Gap=     0.122 Goal=   None    Shift=    0.000
 RMSDP=8.60D-05 MaxDP=6.64D-04 DE=-3.98D-04 OVMax= 6.10D-03

 Cycle   5  Pass 0  IDiag  1:
 E= -111.640187404840     Delta-E=       -0.000034306702 Rises=F Damp=F
 DIIS: error= 3.14D-04 at cycle   5 NSaved=   5.
 NSaved= 5 IEnMin= 5 EnMin= -111.640187404840     IErMin= 5 ErrMin= 3.14D-04
 ErrMax= 3.14D-04  0.00D+00 EMaxC= 1.00D-01 BMatC= 1.37D-05 BMatP= 3.63D-05
 IDIUse=3 WtCom= 9.97D-01 WtEn= 3.14D-03
 Coeff-Com:  0.570D-02-0.131D-01-0.425D-01 0.222D+00 0.828D+00
 Coeff-En:   0.000D+00 0.000D+00 0.000D+00 0.000D+00 0.100D+01
 Coeff:      0.568D-02-0.131D-01-0.424D-01 0.221D+00 0.829D+00
 Gap=     0.123 Goal=   None    Shift=    0.000
 Gap=     0.123 Goal=   None    Shift=    0.000
 RMSDP=7.14D-05 MaxDP=1.03D-03 DE=-3.43D-05 OVMax= 5.00D-03

 Cycle   6  Pass 0  IDiag  1:
 E= -111.640173982934     Delta-E=        0.000013421906 Rises=F Damp=F
 DIIS: error= 8.12D-04 at cycle   6 NSaved=   6.
 NSaved= 6 IEnMin= 5 EnMin= -111.640187404840     IErMin= 5 ErrMin= 3.14D-04
 ErrMax= 8.12D-04  0.00D+00 EMaxC= 1.00D-01 BMatC= 1.08D-04 BMatP= 1.37D-05
 IDIUse=3 WtCom= 9.97D-01 WtEn= 3.14D-03
 Coeff-Com:  0.623D-02-0.119D-01-0.955D-01-0.357D+00 0.114D+01 0.314D+00
 Coeff-En:   0.000D+00 0.000D+00 0.000D+00 0.000D+00 0.700D+00 0.300D+00
 Coeff:      0.621D-02-0.119D-01-0.952D-01-0.356D+00 0.114D+01 0.314D+00
 Gap=     0.123 Goal=   None    Shift=    0.000
 Gap=     0.123 Goal=   None    Shift=    0.000
 RMSDP=6.19D-05 MaxDP=8.75D-04 DE= 1.34D-05 OVMax= 4.15D-03

 Cycle   7  Pass 0  IDiag  1:
 E= -111.640211544126     Delta-E=       -0.000037561192 Rises=F Damp=F
 DIIS: error= 1.25D-04 at cycle   7 NSaved=   7.
 NSaved= 7 IEnMin= 7 EnMin= -111.640211544126     IErMin= 7 ErrMin= 1.25D-04
 ErrMax= 1.25D-04  0.00D+00 EMaxC= 1.00D-01 BMatC= 1.40D-06 BMatP= 1.37D-05
 IDIUse=3 WtCom= 9.99D-01 WtEn= 1.25D-03
 Coeff-Com: -0.461D-02 0.987D-02 0.419D-01 0.950D-02-0.728D+00-0.118D+00
 Coeff-Com:  0.179D+01
 Coeff-En:   0.000D+00 0.000D+00 0.000D+00 0.000D+00 0.000D+00 0.000D+00
 Coeff-En:   0.100D+01
 Coeff:     -0.461D-02 0.985D-02 0.418D-01 0.949D-02-0.727D+00-0.118D+00
 Coeff:      0.179D+01
 Gap=     0.123 Goal=   None    Shift=    0.000
 Gap=     0.123 Goal=   None    Shift=    0.000
 RMSDP=5.89D-05 MaxDP=3.92D-04 DE=-3.76D-05 OVMax= 4.83D-03

 Cycle   8  Pass 0  IDiag  1:
 E= -111.640215794634     Delta-E=       -0.000004250509 Rises=F Damp=F
 DIIS: error= 1.07D-05 at cycle   8 NSaved=   8.
 NSaved= 8 IEnMin= 8 EnMin= -111.640215794634     IErMin= 8 ErrMin= 1.07D-05
 ErrMax= 1.07D-05  0.00D+00 EMaxC= 1.00D-01 BMatC= 3.36D-08 BMatP= 1.40D-06
 IDIUse=1 WtCom= 1.00D+00 WtEn= 0.00D+00
 Coeff-Com: -0.958D-03 0.205D-02 0.112D-01 0.363D-01-0.162D+00-0.331D-01
 Coeff-Com:  0.264D+00 0.883D+00
 Coeff:     -0.958D-03 0.205D-02 0.112D-01 0.363D-01-0.162D+00-0.331D-01
 Coeff:      0.264D+00 0.883D+00
 Gap=     0.123 Goal=   None    Shift=    0.000
 Gap=     0.123 Goal=   None    Shift=    0.000
 RMSDP=2.56D-06 MaxDP=2.10D-05 DE=-4.25D-06 OVMax= 1.03D-04

 Initial convergence to 1.0D-05 achieved.  Increase integral accuracy.
 Cycle   9  Pass 1  IDiag  1:
 E= -111.640215594932     Delta-E=        0.000000199702 Rises=F Damp=F
 DIIS: error= 3.90D-06 at cycle   1 NSaved=   1.
 NSaved= 1 IEnMin= 1 EnMin= -111.640215594932     IErMin= 1 ErrMin= 3.90D-06
 ErrMax= 3.90D-06  0.00D+00 EMaxC= 1.00D-01 BMatC= 3.29D-09 BMatP= 3.29D-09
 IDIUse=1 WtCom= 1.00D+00 WtEn= 0.00D+00
 Coeff-Com:  0.100D+01
 Coeff:      0.100D+01
 Gap=     0.123 Goal=   None    Shift=    0.000
 Gap=     0.123 Goal=   None    Shift=    0.000
 RMSDP=2.56D-06 MaxDP=2.10D-05 DE= 2.00D-07 OVMax= 5.12D-05

 Cycle  10  Pass 1  IDiag  1:
 E= -111.640215598078     Delta-E=       -0.000000003146 Rises=F Damp=F
 DIIS: error= 2.94D-06 at cycle   2 NSaved=   2.
 NSaved= 2 IEnMin= 2 EnMin= -111.640215598078     IErMin= 2 ErrMin= 2.94D-06
 ErrMax= 2.94D-06  0.00D+00 EMaxC= 1.00D-01 BMatC= 5.13D-10 BMatP= 3.29D-09
 IDIUse=1 WtCom= 1.00D+00 WtEn= 0.00D+00
 Coeff-Com: -0.250D-01 0.102D+01
 Coeff:     -0.250D-01 0.102D+01
 Gap=     0.123 Goal=   None    Shift=    0.000
 Gap=     0.123 Goal=   None    Shift=    0.000
 RMSDP=4.95D-07 MaxDP=4.36D-06 DE=-3.15D-09 OVMax= 3.81D-05

 Cycle  11  Pass 1  IDiag  1:
 E= -111.640215599007     Delta-E=       -0.000000000929 Rises=F Damp=F
 DIIS: error= 1.93D-06 at cycle   3 NSaved=   3.
 NSaved= 3 IEnMin= 3 EnMin= -111.640215599007     IErMin= 3 ErrMin= 1.93D-06
 ErrMax= 1.93D-06  0.00D+00 EMaxC= 1.00D-01 BMatC= 9.19D-10 BMatP= 5.13D-10
 IDIUse=1 WtCom= 1.00D+00 WtEn= 0.00D+00
 Coeff-Com: -0.131D+00 0.717D+00 0.414D+00
 Coeff:     -0.131D+00 0.717D+00 0.414D+00
 Gap=     0.123 Goal=   None    Shift=    0.000
 Gap=     0.123 Goal=   None    Shift=    0.000
 RMSDP=2.92D-07 MaxDP=4.07D-06 DE=-9.29D-10 OVMax= 2.26D-05

 Cycle  12  Pass 1  IDiag  1:
 E= -111.640215599151     Delta-E=       -0.000000000144 Rises=F Damp=F
 DIIS: error= 2.67D-06 at cycle   4 NSaved=   4.
 NSaved= 4 IEnMin= 4 EnMin= -111.640215599151     IErMin= 3 ErrMin= 1.93D-06
 ErrMax= 2.67D-06  0.00D+00 EMaxC= 1.00D-01 BMatC= 1.29D-09 BMatP= 5.13D-10
 IDIUse=1 WtCom= 1.00D+00 WtEn= 0.00D+00
 Coeff-Com: -0.225D+00 0.212D+00 0.587D+00 0.426D+00
 Coeff:     -0.225D+00 0.212D+00 0.587D+00 0.426D+00
 Gap=     0.123 Goal=   None    Shift=    0.000
 Gap=     0.123 Goal=   None    Shift=    0.000
 RMSDP=3.17D-07 MaxDP=3.56D-06 DE=-1.44D-10 OVMax= 2.13D-05

 Cycle  13  Pass 1  IDiag  1:
 E= -111.640215599757     Delta-E=       -0.000000000606 Rises=F Damp=F
 DIIS: error= 7.74D-07 at cycle   5 NSaved=   5.
 NSaved= 5 IEnMin= 5 EnMin= -111.640215599757     IErMin= 5 ErrMin= 7.74D-07
 ErrMax= 7.74D-07  0.00D+00 EMaxC= 1.00D-01 BMatC= 9.40D-11 BMatP= 5.13D-10
 IDIUse=1 WtCom= 1.00D+00 WtEn= 0.00D+00
 Coeff-Com: -0.650D-01-0.150D+00-0.706D-01 0.163D+00 0.112D+01
 Coeff:     -0.650D-01-0.150D+00-0.706D-01 0.163D+00 0.112D+01
 Gap=     0.123 Goal=   None    Shift=    0.000
 Gap=     0.123 Goal=   None    Shift=    0.000
 RMSDP=2.80D-07 MaxDP=2.12D-06 DE=-6.06D-10 OVMax= 2.27D-05

 Cycle  14  Pass 1  IDiag  1:
 E= -111.640215599921     Delta-E=       -0.000000000164 Rises=F Damp=F
 DIIS: error= 2.41D-07 at cycle   6 NSaved=   6.
 NSaved= 6 IEnMin= 6 EnMin= -111.640215599921     IErMin= 6 ErrMin= 2.41D-07
 ErrMax= 2.41D-07  0.00D+00 EMaxC= 1.00D-01 BMatC= 1.20D-11 BMatP= 9.40D-11
 IDIUse=1 WtCom= 1.00D+00 WtEn= 0.00D+00
 Coeff-Com:  0.391D-01-0.155D-01-0.220D+00-0.115D+00 0.297D+00 0.101D+01
 Coeff:      0.391D-01-0.155D-01-0.220D+00-0.115D+00 0.297D+00 0.101D+01
 Gap=     0.123 Goal=   None    Shift=    0.000
 Gap=     0.123 Goal=   None    Shift=    0.000
 RMSDP=9.72D-08 MaxDP=5.53D-07 DE=-1.64D-10 OVMax= 7.84D-06

 Cycle  15  Pass 1  IDiag  1:
 E= -111.640215599938     Delta-E=       -0.000000000017 Rises=F Damp=F
 DIIS: error= 4.58D-08 at cycle   7 NSaved=   7.
 NSaved= 7 IEnMin= 7 EnMin= -111.640215599938     IErMin= 7 ErrMin= 4.58D-08
 ErrMax= 4.58D-08  0.00D+00 EMaxC= 1.00D-01 BMatC= 5.74D-13 BMatP= 1.20D-11
 IDIUse=1 WtCom= 1.00D+00 WtEn= 0.00D+00
 Coeff-Com: -0.299D-03 0.238D-01 0.865D-02-0.213D-01-0.936D-01-0.100D+00
 Coeff-Com:  0.118D+01
 Coeff:     -0.299D-03 0.238D-01 0.865D-02-0.213D-01-0.936D-01-0.100D+00
 Coeff:      0.118D+01
 Gap=     0.123 Goal=   None    Shift=    0.000
 Gap=     0.123 Goal=   None    Shift=    0.000
 RMSDP=2.33D-08 MaxDP=1.62D-07 DE=-1.71D-11 OVMax= 1.80D-06

 Cycle  16  Pass 1  IDiag  1:
 E= -111.640215599939     Delta-E=       -0.000000000001 Rises=F Damp=F
 DIIS: error= 1.39D-08 at cycle   8 NSaved=   8.
 NSaved= 8 IEnMin= 8 EnMin= -111.640215599939     IErMin= 8 ErrMin= 1.39D-08
 ErrMax= 1.39D-08  0.00D+00 EMaxC= 1.00D-01 BMatC= 2.88D-14 BMatP= 5.74D-13
 IDIUse=1 WtCom= 1.00D+00 WtEn= 0.00D+00
 Coeff-Com: -0.912D-03 0.272D-02 0.186D-02 0.272D-02-0.126D-01-0.211D-01
 Coeff-Com:  0.924D-01 0.935D+00
 Coeff:     -0.912D-03 0.272D-02 0.186D-02 0.272D-02-0.126D-01-0.211D-01
 Coeff:      0.924D-01 0.935D+00
 Gap=     0.123 Goal=   None    Shift=    0.000
 Gap=     0.123 Goal=   None    Shift=    0.000
 RMSDP=1.08D-09 MaxDP=1.15D-08 DE=-7.39D-13 OVMax= 7.17D-08

 SCF Done:  E(UM062X) =  -111.640215600     A.U. after   16 cycles
            NFock= 16  Conv=0.11D-08     -V/T= 2.0039
 <Sx>= 0.0000 <Sy>= 0.0000 <Sz>= 0.0000 <S**2>=-0.0000 S=-0.0000
 <L.S>=  0.00000000000    
 KE= 1.112030712193D+02 PE=-3.180512871411D+02 EE= 6.681166893675D+01
 Annihilation of the first spin contaminant:
 S**2 before annihilation    -0.0000,   after     0.0000
 Leave Link  502 at Thu May 15 14:47:50 2025, MaxMem=   536870912 cpu:              35.2 elap:               4.5
 (Enter /home/szhao/Apps/g16/l601.exe)
 Copying SCF densities to generalized density rwf, IOpCl= 1 IROHF=0.

 **********************************************************************

            Population analysis using the SCF density.

 **********************************************************************

 Alpha  occ. eigenvalues --  -14.78934 -14.78933  -0.94359  -0.93840  -0.55575
 Alpha  occ. eigenvalues --   -0.55574  -0.39283  -0.37557  -0.28379
 Alpha virt. eigenvalues --   -0.16072   0.04687   0.06463   0.10722   0.11007
 Alpha virt. eigenvalues --    0.14871   0.14940   0.16149   0.18710   0.18965
 Alpha virt. eigenvalues --    0.21027   0.23927   0.26051   0.53986   0.55201
 Alpha virt. eigenvalues --    0.59185   0.60263   0.76234   0.76589   0.76867
 Alpha virt. eigenvalues --    0.79787   0.80302   0.86391   0.94062   1.09778
 Alpha virt. eigenvalues --    1.24259   1.24320   1.29698   1.29892   1.41889
 Alpha virt. eigenvalues --    1.52618   1.62127   1.62146   1.94325   1.95926
 Alpha virt. eigenvalues --    1.99207   1.99589   2.34668   2.34817   2.43202
 Alpha virt. eigenvalues --    2.43212   2.44699   2.48145   2.50151   2.50866
 Alpha virt. eigenvalues --    2.68761   2.68915   2.90693   2.91319   3.08015
 Alpha virt. eigenvalues --    3.08238   3.84220   3.89727   4.18779   4.29517
 Alpha virt. eigenvalues --    4.73169   4.73210  35.54504  35.54951
  Beta  occ. eigenvalues --  -14.78934 -14.78933  -0.94359  -0.93840  -0.55575
  Beta  occ. eigenvalues --   -0.55574  -0.39283  -0.37557  -0.28379
  Beta virt. eigenvalues --   -0.16072   0.04687   0.06463   0.10722   0.11007
  Beta virt. eigenvalues --    0.14871   0.14940   0.16149   0.18710   0.18965
  Beta virt. eigenvalues --    0.21027   0.23927   0.26051   0.53986   0.55201
  Beta virt. eigenvalues --    0.59185   0.60263   0.76234   0.76589   0.76867
  Beta virt. eigenvalues --    0.79787   0.80302   0.86391   0.94062   1.09778
  Beta virt. eigenvalues --    1.24259   1.24320   1.29698   1.29892   1.41889
  Beta virt. eigenvalues --    1.52618   1.62127   1.62146   1.94325   1.95926
  Beta virt. eigenvalues --    1.99207   1.99589   2.34668   2.34817   2.43202
  Beta virt. eigenvalues --    2.43212   2.44699   2.48145   2.50151   2.50866
  Beta virt. eigenvalues --    2.68761   2.68915   2.90693   2.91319   3.08015
  Beta virt. eigenvalues --    3.08238   3.84220   3.89727   4.18779   4.29517
  Beta virt. eigenvalues --    4.73169   4.73210  35.54504  35.54951
          Condensed to atoms (all electrons):
               1          2          3          4          5          6
     1  N    6.742444   0.084845   0.331984  -0.001135   0.320049  -0.005963
     2  N    0.084845   6.742443  -0.001135   0.331986  -0.005963   0.320050
     3  H    0.331984  -0.001135   0.465594  -0.000039  -0.035005   0.000093
     4  H   -0.001135   0.331986  -0.000039   0.465594   0.000093  -0.035006
     5  H    0.320049  -0.005963  -0.035005   0.000093   0.486549   0.000561
     6  H   -0.005963   0.320050   0.000093  -0.035006   0.000561   0.486550
          Atomic-Atomic Spin Densities.
               1          2          3          4          5          6
     1  N   -0.000000  -0.000000  -0.000000  -0.000000  -0.000000   0.000000
     2  N   -0.000000   0.000000   0.000000  -0.000000   0.000000  -0.000000
     3  H   -0.000000   0.000000   0.000000  -0.000000  -0.000000   0.000000
     4  H   -0.000000  -0.000000  -0.000000  -0.000000   0.000000   0.000000
     5  H   -0.000000   0.000000  -0.000000   0.000000  -0.000000  -0.000000
     6  H    0.000000  -0.000000   0.000000   0.000000  -0.000000  -0.000000
 Mulliken charges and spin densities:
               1          2
     1  N   -0.472224  -0.000000
     2  N   -0.472226   0.000000
     3  H    0.238509  -0.000000
     4  H    0.238508  -0.000000
     5  H    0.233717  -0.000000
     6  H    0.233716  -0.000000
 Sum of Mulliken charges =  -0.00000  -0.00000
 Mulliken charges and spin densities with hydrogens summed into heavy atoms:
               1          2
     1  N    0.000002  -0.000000
     2  N   -0.000002   0.000000
 Electronic spatial extent (au):  <R**2>=            207.1025
 Charge=             -0.0000 electrons
 Dipole moment (field-independent basis, Debye):
    X=             -0.0000    Y=              0.5701    Z=              2.0446  Tot=              2.1226
 Quadrupole moment (field-independent basis, Debye-Ang):
   XX=             -7.1195   YY=            -13.2674   ZZ=            -13.4042
   XY=              4.0204   XZ=             -1.1209   YZ=             -0.0413
 Traceless Quadrupole moment (field-independent basis, Debye-Ang):
   XX=              4.1441   YY=             -2.0037   ZZ=             -2.1405
   XY=              4.0204   XZ=             -1.1209   YZ=             -0.0413
 Octapole moment (field-independent basis, Debye-Ang**2):
  XXX=             -0.0002  YYY=             -0.8997  ZZZ=             -0.1746  XYY=             -2.2077
  XXY=              1.7660  XXZ=              6.3342  XZZ=              2.2077  YZZ=              0.5990
  YYZ=             -0.9042  XYZ=             -3.6514
 Hexadecapole moment (field-independent basis, Debye-Ang**3):
 XXXX=           -197.7267 YYYY=            -20.3224 ZZZZ=            -20.9350 XXXY=              8.2172
 XXXZ=             -2.2910 YYYX=              0.6891 YYYZ=             -0.3652 ZZZX=              1.3901
 ZZZY=              0.1801 XXYY=            -36.5073 XXZZ=            -36.3990 YYZZ=             -7.0670
 XXYZ=              0.0327 YYXZ=             -1.2077 ZZXY=             -1.3430
 N-N= 2.839633138506D+01 E-N=-3.180512871578D+02  KE= 1.112030712193D+02
                          Isotropic Fermi Contact Couplings
        Atom                 a.u.       MegaHertz       Gauss      10(-4) cm-1
     1  N(14)              0.00000       0.00000       0.00000       0.00000
     2  N(14)              0.00000       0.00000       0.00000       0.00000
     3  H(1)               0.00000       0.00000       0.00000       0.00000
     4  H(1)              -0.00000      -0.00000      -0.00000      -0.00000
     5  H(1)               0.00000       0.00000       0.00000       0.00000
     6  H(1)              -0.00000      -0.00000      -0.00000      -0.00000
 --------------------------------------------------------
       Center         ----  Spin Dipole Couplings  ----
                      3XX-RR        3YY-RR        3ZZ-RR
 --------------------------------------------------------
     1   Atom        0.000000      0.000000      0.000000
     2   Atom        0.000000      0.000000      0.000000
     3   Atom        0.000000      0.000000      0.000000
     4   Atom        0.000000      0.000000      0.000000
     5   Atom        0.000000      0.000000      0.000000
     6   Atom        0.000000      0.000000      0.000000
 --------------------------------------------------------
                        XY            XZ            YZ
 --------------------------------------------------------
     1   Atom        0.000000      0.000000      0.000000
     2   Atom        0.000000      0.000000      0.000000
     3   Atom        0.000000      0.000000      0.000000
     4   Atom        0.000000      0.000000      0.000000
     5   Atom        0.000000      0.000000      0.000000
     6   Atom        0.000000      0.000000      0.000000
 --------------------------------------------------------


 ---------------------------------------------------------------------------------
              Anisotropic Spin Dipole Couplings in Principal Axis System
 ---------------------------------------------------------------------------------

       Atom             a.u.   MegaHertz   Gauss  10(-4) cm-1        Axes

              Baa     0.0000     0.000     0.000     0.000  1.0000  0.0000  0.0000
     1 N(14)  Bbb     0.0000     0.000     0.000     0.000 -0.0000  1.0000  0.0000
              Bcc     0.0000     0.000     0.000     0.000  0.0000  0.0000  1.0000
 
              Baa     0.0000     0.000     0.000     0.000  1.0000  0.0000  0.0000
     2 N(14)  Bbb     0.0000     0.000     0.000     0.000 -0.0000  1.0000  0.0000
              Bcc     0.0000     0.000     0.000     0.000  0.0000  0.0000  1.0000
 
              Baa     0.0000     0.000     0.000     0.000  1.0000  0.0000  0.0000
     3 H(1)   Bbb     0.0000     0.000     0.000     0.000 -0.0000  1.0000  0.0000
              Bcc     0.0000     0.000     0.000     0.000  0.0000  0.0000  1.0000
 
              Baa     0.0000     0.000     0.000     0.000  1.0000  0.0000  0.0000
     4 H(1)   Bbb     0.0000     0.000     0.000     0.000 -0.0000  1.0000  0.0000
              Bcc     0.0000     0.000     0.000     0.000  0.0000  0.0000  1.0000
 
              Baa     0.0000     0.000     0.000     0.000  1.0000  0.0000  0.0000
     5 H(1)   Bbb     0.0000     0.000     0.000     0.000 -0.0000  1.0000  0.0000
              Bcc     0.0000     0.000     0.000     0.000  0.0000  0.0000  1.0000
 
              Baa     0.0000     0.000     0.000     0.000  1.0000  0.0000  0.0000
     6 H(1)   Bbb     0.0000     0.000     0.000     0.000 -0.0000  1.0000  0.0000
              Bcc     0.0000     0.000     0.000     0.000  0.0000  0.0000  1.0000
 

 ---------------------------------------------------------------------------------

 No NMR shielding tensors so no spin-rotation constants.
 Leave Link  601 at Thu May 15 14:47:51 2025, MaxMem=   536870912 cpu:               0.7 elap:               0.1
 (Enter /home/szhao/Apps/g16/l701.exe)
 ... and contract with generalized density number  0.
 Compute integral first derivatives.
 Leave Link  701 at Thu May 15 14:47:51 2025, MaxMem=   536870912 cpu:               0.8 elap:               0.1
 (Enter /home/szhao/Apps/g16/l702.exe)
 L702 exits ... SP integral derivatives will be done elsewhere.
 Leave Link  702 at Thu May 15 14:47:51 2025, MaxMem=   536870912 cpu:               0.2 elap:               0.0
 (Enter /home/szhao/Apps/g16/l703.exe)
 Integral derivatives from FoFJK, PRISM(SPDF).
 Compute integral first derivatives, UseDBF=F ICtDFT=           0.
 Calling FoFJK, ICntrl=      2127 FMM=F ISym2X=0 I1Cent= 0 IOpClX= 1 NMat=1 NMatS=1 NMatT=0.
 FoFJK:  IHMeth= 1 ICntrl=    2127 DoSepK=F KAlg= 0 I1Cent=           0 FoldK=F
 IRaf=         0 NMat=       1 IRICut=       1 DoRegI=T DoRafI=F ISym2E= 0 IDoP0=0 IntGTp=1.
 FoFCou: FMM=F IPFlag=           0 FMFlag=      100000 FMFlg1=         800
         NFxFlg=           0 DoJE=F BraDBF=F KetDBF=F FulRan=T
         wScrn=  0.000000 ICntrl=      2127 IOpCl=  1 I1Cent=           0 NGrid=           0
         NMat0=    1 NMatS0=      1 NMatT0=    0 NMatD0=    1 NMtDS0=    0 NMtDT0=    0
 Symmetry not used in FoFCou.
 Leave Link  703 at Thu May 15 14:47:51 2025, MaxMem=   536870912 cpu:               5.2 elap:               0.7
 (Enter /home/szhao/Apps/g16/l716.exe)
 Dipole        =-1.48215699D-05 2.24282348D-01 8.04425084D-01
 -------------------------------------------------------------------
 Center     Atomic                   Forces (Hartrees/Bohr)
 Number     Number              X              Y              Z
 -------------------------------------------------------------------
      1        7          -0.000000000   -0.000000000   -0.000000000
      2        7          -0.000000000   -0.000000000   -0.000000000
      3        1           0.004785015   -0.012565374    0.009053217
      4        1          -0.004782129    0.015439039    0.001258810
      5        1           0.002106302   -0.002522644    0.012470467
      6        1          -0.002105567    0.008613889    0.009364866
 -------------------------------------------------------------------
 Cartesian Forces:  Max     0.015439039 RMS     0.006904946
 Leave Link  716 at Thu May 15 14:47:51 2025, MaxMem=   536870912 cpu:               0.2 elap:               0.0
 (Enter /home/szhao/Apps/g16/l103.exe)

 GradGradGradGradGradGradGradGradGradGradGradGradGradGradGradGradGradGrad
 Berny optimization.
 FormGI is forming the generalized inverse of G from B-inverse, IUseBI=4.
 Internal  Forces:  Max     0.030822080 RMS     0.013674005
 Search for a local minimum.
 Step number   1 out of a maximum of   30
 All quantities printed in internal units (Hartrees-Bohrs-Radians)
 RMS Force = .10666D-01 SwitMx=.10000D-02 MixMth= 1
 Mixed Optimization -- RFO/linear search
 Second derivative matrix not updated -- first step.
 The second derivative matrix:
                          X1        Y1        Z1        X2        Y2
           X1           0.50000
           Y1           0.00000   0.50000
           Z1           0.00000   0.00000   0.50000
           X2           0.00000   0.00000   0.00000   0.50000
           Y2           0.00000   0.00000   0.00000   0.00000   0.50000
           Z2           0.00000   0.00000   0.00000   0.00000   0.00000
           R1           0.00000   0.00000   0.00000   0.00000   0.00000
           R2           0.00000   0.00000   0.00000   0.00000   0.00000
           R3           0.00000   0.00000   0.00000   0.00000   0.00000
           R4           0.00000   0.00000   0.00000   0.00000   0.00000
           A1           0.00000   0.00000   0.00000   0.00000   0.00000
           A2           0.00000   0.00000   0.00000   0.00000   0.00000
           A3           0.00000   0.00000   0.00000   0.00000   0.00000
           A4           0.00000   0.00000   0.00000   0.00000   0.00000
           A5           0.00000   0.00000   0.00000   0.00000   0.00000
           A6           0.00000   0.00000   0.00000   0.00000   0.00000
           D1           0.00000   0.00000   0.00000   0.00000   0.00000
           D2           0.00000   0.00000   0.00000   0.00000   0.00000
           D3           0.00000   0.00000   0.00000   0.00000   0.00000
           D4           0.00000   0.00000   0.00000   0.00000   0.00000
                          Z2        R1        R2        R3        R4
           Z2           0.50000
           R1           0.00000   0.45670
           R2           0.00000   0.00000   0.45152
           R3           0.00000   0.00000   0.00000   0.45670
           R4           0.00000   0.00000   0.00000   0.00000   0.45153
           A1           0.00000   0.00000   0.00000   0.00000   0.00000
           A2           0.00000   0.00000   0.00000   0.00000   0.00000
           A3           0.00000   0.00000   0.00000   0.00000   0.00000
           A4           0.00000   0.00000   0.00000   0.00000   0.00000
           A5           0.00000   0.00000   0.00000   0.00000   0.00000
           A6           0.00000   0.00000   0.00000   0.00000   0.00000
           D1           0.00000   0.00000   0.00000   0.00000   0.00000
           D2           0.00000   0.00000   0.00000   0.00000   0.00000
           D3           0.00000   0.00000   0.00000   0.00000   0.00000
           D4           0.00000   0.00000   0.00000   0.00000   0.00000
                          A1        A2        A3        A4        A5
           A1           0.16000
           A2           0.00000   0.16000
           A3           0.00000   0.00000   0.16000
           A4           0.00000   0.00000   0.00000   0.16000
           A5           0.00000   0.00000   0.00000   0.00000   0.16000
           A6           0.00000   0.00000   0.00000   0.00000   0.00000
           D1           0.00000   0.00000   0.00000   0.00000   0.00000
           D2           0.00000   0.00000   0.00000   0.00000   0.00000
           D3           0.00000   0.00000   0.00000   0.00000   0.00000
           D4           0.00000   0.00000   0.00000   0.00000   0.00000
                          A6        D1        D2        D3        D4
           A6           0.16000
           D1           0.00000   0.00230
           D2           0.00000   0.00000   0.00230
           D3           0.00000   0.00000   0.00000   0.00230
           D4           0.00000   0.00000   0.00000   0.00000   0.00230
 ITU=  0
     Eigenvalues ---    0.00230   0.04857   0.04857   0.16000   0.16000
     Eigenvalues ---    0.16000   0.16000   0.45152   0.45153   0.45670
     Eigenvalues ---    0.456701000.000001000.000001000.000001000.00000
     Eigenvalues --- 1000.000001000.000001000.000001000.000001000.00000
 RFO step:  Lambda=-1.53285516D-02 EMin= 2.30000000D-03
 Linear search not attempted -- first point.
 Iteration  1 RMS(Cart)=  0.12537542 RMS(Int)=  0.02078182
 Iteration  2 RMS(Cart)=  0.02493321 RMS(Int)=  0.00979755
 Iteration  3 RMS(Cart)=  0.00081877 RMS(Int)=  0.00978073
 Iteration  4 RMS(Cart)=  0.00002075 RMS(Int)=  0.00978073
 Iteration  5 RMS(Cart)=  0.00000057 RMS(Int)=  0.00978073
 ITry= 1 IFail=0 DXMaxC= 2.61D-01 DCOld= 1.00D+10 DXMaxT= 3.00D-01 DXLimC= 3.00D+00 Rises=F
 Variable       Old X    -DE/DX   Delta X   Delta X   Delta X     New X
                                 (Linear)    (Quad)   (Total)
    X1       -2.90364   0.00689   0.00000   0.00000   0.00000  -2.90364
    Y1        0.00000  -0.02185   0.00000   0.00000   0.00000   0.00000
    Z1        0.00000   0.02341   0.00000   0.00000   0.00000   0.00000
    X2        2.90364  -0.00689   0.00000   0.00000   0.00000   2.90364
    Y2        0.00000   0.03082   0.00000   0.00000   0.00000   0.00000
    Z2        0.00000   0.00874   0.00000   0.00000   0.00000   0.00000
    R1        1.91205   0.01044   0.00000   0.02213   0.02213   1.93418
    R2        1.91799   0.00797   0.00000   0.01707   0.01707   1.93506
    R3        1.91205   0.01044   0.00000   0.02212   0.02212   1.93417
    R4        1.91799   0.00797   0.00000   0.01706   0.01706   1.93505
    A1        1.88826  -0.01580   0.00000  -0.13548  -0.14280   1.74546
    A2        1.96802  -0.01043   0.00000  -0.10133  -0.10683   1.86119
    A3        1.89500   0.00072   0.00000  -0.07986  -0.10153   1.79347
    A4        1.88826  -0.01580   0.00000  -0.13548  -0.14280   1.74546
    A5        1.96801  -0.01043   0.00000  -0.10136  -0.10686   1.86116
    A6        1.89500   0.00072   0.00000  -0.07995  -0.10162   1.79338
    D1        2.59778   0.01665   0.00000   0.27630   0.25622   2.85400
    D2       -1.58932   0.00038   0.00000   0.02169   0.02169  -1.56763
    D3       -1.58932   0.00039   0.00000   0.02180   0.02180  -1.56752
    D4        0.50677  -0.01588   0.00000  -0.23281  -0.21273   0.29404
         Item               Value     Threshold  Converged?
 Maximum Force            0.016649     0.000450     NO 
 RMS     Force            0.010666     0.000300     NO 
 Maximum Displacement     0.260751     0.001800     NO 
 RMS     Displacement     0.145691     0.001200     NO 
 Predicted change in Energy=-7.766470D-03
 Lowest energy point so far.  Saving SCF results.
 GradGradGradGradGradGradGradGradGradGradGradGradGradGradGradGradGradGrad

 Leave Link  103 at Thu May 15 14:47:51 2025, MaxMem=   536870912 cpu:               0.0 elap:               0.0
 (Enter /home/szhao/Apps/g16/l202.exe)
                          Input orientation:                          
 ---------------------------------------------------------------------
 Center     Atomic      Atomic             Coordinates (Angstroms)
 Number     Number       Type             X           Y           Z
 ---------------------------------------------------------------------
      1          7           0       -1.536540    0.000000    0.000000
      2          7           0        1.536540    0.000000    0.000000
      3          1           0       -1.714407   -0.999214    0.132408
      4          1           0        1.714405    0.920616   -0.410388
      5          1           0       -1.829734    0.402399    0.894799
      6          1           0        1.829705    0.125800    0.973025
 ---------------------------------------------------------------------
                    Distance matrix (angstroms):
                    1          2          3          4          5
     1  N    0.000000
     2  N    3.073080   0.000000
     3  H    1.023522   3.403618   0.000000
     4  H    3.403615   1.023517   3.967004   0.000000
     5  H    1.023989   3.506336   1.599706   3.812215   0.000000
     6  H    3.506310   1.023987   3.812220   1.599643   3.670712
                    6
     6  H    0.000000
 Symmetry turned off by external request.
 Stoichiometry    H4N2
 Framework group  C1[X(H4N2)]
 Deg. of freedom    12
 Full point group                 C1      NOp   1
 Rotational constants (GHZ):         133.3169171           6.2578954           6.2515052
 Leave Link  202 at Thu May 15 14:47:51 2025, MaxMem=   536870912 cpu:               0.1 elap:               0.0
 (Enter /home/szhao/Apps/g16/l301.exe)
 Standard basis: 6-311+G(d,p) (5D, 7F)
 Ernie: Thresh=  0.10000D-02 Tol=  0.10000D-05 Strict=F.
    68 basis functions,   104 primitive gaussians,    70 cartesian basis functions
     9 alpha electrons        9 beta electrons
       nuclear repulsion energy        28.4171831137 Hartrees.
 IExCor= 4336 DFT=T Ex+Corr=M062X ExCW=0 ScaHFX=  0.540000
 ScaDFX=  1.000000  1.000000  1.000000  1.000000 ScalE2=  1.000000  1.000000
 IRadAn=      7 IRanWt=     -1 IRanGd=            0 ICorTp=0 IEmpDi=  4
 NAtoms=    6 NActive=    6 NUniq=    6 SFac= 1.00D+00 NAtFMM=   60 NAOKFM=F Big=F
 Integral buffers will be    131072 words long.
 Raffenetti 2 integral format.
 Two-electron integral symmetry is turned off.
 Leave Link  301 at Thu May 15 14:47:51 2025, MaxMem=   536870912 cpu:               0.2 elap:               0.0
 (Enter /home/szhao/Apps/g16/l302.exe)
 NPDir=0 NMtPBC=     1 NCelOv=     1 NCel=       1 NClECP=     1 NCelD=      1
         NCelK=      1 NCelE2=     1 NClLst=     1 CellRange=     0.0.
 One-electron integrals computed using PRISM.
 NBasis=    68 RedAO= T EigKep=  2.96D-03  NBF=    68
 NBsUse=    68 1.00D-06 EigRej= -1.00D+00 NBFU=    68
 Precomputing XC quadrature grid using
 IXCGrd= 4 IRadAn=           7 IRanWt=          -1 IRanGd=           0 AccXCQ= 0.00D+00.
 Generated NRdTot=       0 NPtTot=           0 NUsed=           0 NTot=          32
 NSgBfM=    70    70    70    70    70 MxSgAt=     6 MxSgA2=     6.
 Leave Link  302 at Thu May 15 14:47:52 2025, MaxMem=   536870912 cpu:               0.8 elap:               0.1
 (Enter /home/szhao/Apps/g16/l303.exe)
 DipDrv:  MaxL=1.
 Leave Link  303 at Thu May 15 14:47:52 2025, MaxMem=   536870912 cpu:               0.2 elap:               0.0
 (Enter /home/szhao/Apps/g16/l401.exe)
 Initial guess from the checkpoint file:  "opt.chk"
 B after Tr=    -0.000003    0.010187    0.036005
         Rot=    0.999962    0.001831   -0.002303   -0.008207 Ang=   1.00 deg.
 Guess basis will be translated and rotated to current coordinates.
 JPrj=2 DoOrth=T DoCkMO=T.
 Initial guess <Sx>= 0.0000 <Sy>= 0.0000 <Sz>= 0.0000 <S**2>= 0.0000 S= 0.0000
 Generating alternative initial guess.
 ExpMin= 6.39D-02 ExpMax= 6.29D+03 ExpMxC= 9.49D+02 IAcc=3 IRadAn=         5 AccDes= 0.00D+00
 Harris functional with IExCor= 1009 and IRadAn=       5 diagonalized for initial guess.
 HarFok:  IExCor= 1009 AccDes= 0.00D+00 IRadAn=         5 IDoV= 1 UseB2=F ITyADJ=14
 ICtDFT=  3500011 ScaDFX=  1.000000  1.000000  1.000000  1.000000
 FoFCou: FMM=F IPFlag=           0 FMFlag=      100000 FMFlg1=           0
         NFxFlg=           0 DoJE=T BraDBF=F KetDBF=T FulRan=T
         wScrn=  0.000000 ICntrl=       500 IOpCl=  0 I1Cent=   200000004 NGrid=           0
         NMat0=    1 NMatS0=      1 NMatT0=    0 NMatD0=    1 NMtDS0=    0 NMtDT0=    0
 Symmetry not used in FoFCou.
 Harris En= -111.643789751324    
 Leave Link  401 at Thu May 15 14:47:52 2025, MaxMem=   536870912 cpu:               1.5 elap:               0.2
 (Enter /home/szhao/Apps/g16/l502.exe)
 Keep R1 and R2 ints in memory in canonical form, NReq=12681614.
 FoFCou: FMM=F IPFlag=           0 FMFlag=           0 FMFlg1=           0
         NFxFlg=           0 DoJE=F BraDBF=F KetDBF=F FulRan=T
         wScrn=  0.000000 ICntrl=       600 IOpCl=  0 I1Cent=           0 NGrid=           0
         NMat0=    1 NMatS0=   2346 NMatT0=    0 NMatD0=    1 NMtDS0=    0 NMtDT0=    0
 Symmetry not used in FoFCou.
 Two-electron integral symmetry not used.
 UHF open shell SCF:
 Using DIIS extrapolation, IDIIS=  1040.
 NGot=   536870912 LenX=   531353794 LenY=   531348453
 Requested convergence on RMS density matrix=1.00D-08 within 128 cycles.
 Requested convergence on MAX density matrix=1.00D-06.
 Requested convergence on             energy=1.00D-06.
 No special actions if energy rises.
 Integral accuracy reduced to 1.0D-05 until final iterations.

 Cycle   1  Pass 0  IDiag  1:
 E= -111.639796052450    
 DIIS: error= 1.16D-02 at cycle   1 NSaved=   1.
 NSaved= 1 IEnMin= 1 EnMin= -111.639796052450     IErMin= 1 ErrMin= 1.16D-02
 ErrMax= 1.16D-02  0.00D+00 EMaxC= 1.00D-01 BMatC= 2.44D-02 BMatP= 2.44D-02
 IDIUse=3 WtCom= 8.84D-01 WtEn= 1.16D-01
 Coeff-Com:  0.100D+01
 Coeff-En:   0.100D+01
 Coeff:      0.100D+01
 Recover alternate guess density for next cycle.
 RMSDP=2.96D-03 MaxDP=1.83D-02              OVMax= 0.00D+00

 Cycle   2  Pass 0  IDiag  1:
 E= -111.601989086803     Delta-E=        0.037806965647 Rises=F Damp=F
 Switch densities from cycles 1 and 2 for lowest energy.
 DIIS: error= 4.02D-02 at cycle   2 NSaved=   2.
 NSaved= 2 IEnMin= 1 EnMin= -111.639796052450     IErMin= 1 ErrMin= 1.16D-02
 ErrMax= 4.02D-02  0.00D+00 EMaxC= 1.00D+00 BMatC= 2.93D-01 BMatP= 2.44D-02
 IDIUse=1 WtCom= 1.00D+00 WtEn= 0.00D+00
 Coeff-Com:  0.946D+00 0.536D-01
 Coeff:      0.946D+00 0.536D-01
 Gap=     0.129 Goal=   None    Shift=    0.000
 Gap=     0.129 Goal=   None    Shift=    0.000
 RMSDP=1.74D-03 MaxDP=1.54D-02 DE= 3.78D-02 OVMax= 8.94D-02

 Cycle   3  Pass 0  IDiag  1:
 E= -111.650168973021     Delta-E=       -0.048179886218 Rises=F Damp=F
 DIIS: error= 2.88D-03 at cycle   3 NSaved=   3.
 NSaved= 3 IEnMin= 3 EnMin= -111.650168973021     IErMin= 3 ErrMin= 2.88D-03
 ErrMax= 2.88D-03  0.00D+00 EMaxC= 1.00D+00 BMatC= 2.52D-03 BMatP= 2.44D-02
 IDIUse=1 WtCom= 1.00D+00 WtEn= 0.00D+00
 Coeff-Com: -0.105D+00 0.711D-01 0.103D+01
 Coeff:     -0.105D+00 0.711D-01 0.103D+01
 Gap=     0.130 Goal=   None    Shift=    0.000
 Gap=     0.130 Goal=   None    Shift=    0.000
 RMSDP=6.23D-04 MaxDP=4.98D-03 DE=-4.82D-02 OVMax= 4.12D-02

 Cycle   4  Pass 0  IDiag  1:
 E= -111.651841527266     Delta-E=       -0.001672554245 Rises=F Damp=F
 DIIS: error= 1.38D-03 at cycle   4 NSaved=   4.
 NSaved= 4 IEnMin= 4 EnMin= -111.651841527266     IErMin= 4 ErrMin= 1.38D-03
 ErrMax= 1.38D-03  0.00D+00 EMaxC= 1.00D+00 BMatC= 2.64D-04 BMatP= 2.52D-03
 IDIUse=1 WtCom= 1.00D+00 WtEn= 0.00D+00
 Coeff-Com: -0.364D-01-0.573D-02 0.111D+00 0.931D+00
 Coeff:     -0.364D-01-0.573D-02 0.111D+00 0.931D+00
 Gap=     0.132 Goal=   None    Shift=    0.000
 Gap=     0.132 Goal=   None    Shift=    0.000
 RMSDP=2.28D-04 MaxDP=1.32D-03 DE=-1.67D-03 OVMax= 1.80D-02

 Cycle   5  Pass 0  IDiag  1:
 E= -111.652148175805     Delta-E=       -0.000306648539 Rises=F Damp=F
 DIIS: error= 8.91D-04 at cycle   5 NSaved=   5.
 NSaved= 5 IEnMin= 5 EnMin= -111.652148175805     IErMin= 5 ErrMin= 8.91D-04
 ErrMax= 8.91D-04  0.00D+00 EMaxC= 1.00D+00 BMatC= 5.88D-05 BMatP= 2.64D-04
 IDIUse=1 WtCom= 1.00D+00 WtEn= 0.00D+00
 Coeff-Com:  0.268D-01-0.636D-03-0.237D+00-0.596D+00 0.181D+01
 Coeff:      0.268D-01-0.636D-03-0.237D+00-0.596D+00 0.181D+01
 Gap=     0.133 Goal=   None    Shift=    0.000
 Gap=     0.133 Goal=   None    Shift=    0.000
 RMSDP=2.93D-04 MaxDP=1.99D-03 DE=-3.07D-04 OVMax= 2.41D-02

 Cycle   6  Pass 0  IDiag  1:
 E= -111.652312376027     Delta-E=       -0.000164200223 Rises=F Damp=F
 DIIS: error= 1.42D-04 at cycle   6 NSaved=   6.
 NSaved= 6 IEnMin= 6 EnMin= -111.652312376027     IErMin= 6 ErrMin= 1.42D-04
 ErrMax= 1.42D-04  0.00D+00 EMaxC= 1.00D+00 BMatC= 4.19D-06 BMatP= 5.88D-05
 IDIUse=1 WtCom= 1.00D+00 WtEn= 0.00D+00
 Coeff-Com:  0.435D-02 0.101D-02-0.171D-01-0.144D+00 0.174D+00 0.982D+00
 Coeff:      0.435D-02 0.101D-02-0.171D-01-0.144D+00 0.174D+00 0.982D+00
 Gap=     0.133 Goal=   None    Shift=    0.000
 Gap=     0.133 Goal=   None    Shift=    0.000
 RMSDP=5.12D-05 MaxDP=5.83D-04 DE=-1.64D-04 OVMax= 3.27D-03

 Cycle   7  Pass 0  IDiag  1:
 E= -111.652308513808     Delta-E=        0.000003862220 Rises=F Damp=F
 DIIS: error= 4.94D-04 at cycle   7 NSaved=   7.
 NSaved= 7 IEnMin= 6 EnMin= -111.652312376027     IErMin= 6 ErrMin= 1.42D-04
 ErrMax= 4.94D-04  0.00D+00 EMaxC= 1.00D+00 BMatC= 3.06D-05 BMatP= 4.19D-06
 IDIUse=1 WtCom= 1.00D+00 WtEn= 0.00D+00
 Coeff-Com: -0.553D-03 0.107D-02 0.255D-01-0.344D-01-0.148D+00 0.927D+00
 Coeff-Com:  0.229D+00
 Coeff:     -0.553D-03 0.107D-02 0.255D-01-0.344D-01-0.148D+00 0.927D+00
 Coeff:      0.229D+00
 Gap=     0.133 Goal=   None    Shift=    0.000
 Gap=     0.133 Goal=   None    Shift=    0.000
 RMSDP=2.59D-05 MaxDP=4.25D-04 DE= 3.86D-06 OVMax= 2.32D-03

 Cycle   8  Pass 0  IDiag  1:
 E= -111.652317140433     Delta-E=       -0.000008626625 Rises=F Damp=F
 DIIS: error= 4.97D-05 at cycle   8 NSaved=   8.
 NSaved= 8 IEnMin= 8 EnMin= -111.652317140433     IErMin= 8 ErrMin= 4.97D-05
 ErrMax= 4.97D-05  0.00D+00 EMaxC= 1.00D+00 BMatC= 3.57D-07 BMatP= 4.19D-06
 IDIUse=1 WtCom= 1.00D+00 WtEn= 0.00D+00
 Coeff-Com: -0.116D-02-0.371D-05 0.117D-01 0.215D-01-0.782D-01 0.156D-01
 Coeff-Com:  0.991D-01 0.931D+00
 Coeff:     -0.116D-02-0.371D-05 0.117D-01 0.215D-01-0.782D-01 0.156D-01
 Coeff:      0.991D-01 0.931D+00
 Gap=     0.133 Goal=   None    Shift=    0.000
 Gap=     0.133 Goal=   None    Shift=    0.000
 RMSDP=6.62D-06 MaxDP=6.13D-05 DE=-8.63D-06 OVMax= 3.06D-04

 Initial convergence to 1.0D-05 achieved.  Increase integral accuracy.
 Cycle   9  Pass 1  IDiag  1:
 E= -111.652317644816     Delta-E=       -0.000000504383 Rises=F Damp=F
 DIIS: error= 3.76D-06 at cycle   1 NSaved=   1.
 NSaved= 1 IEnMin= 1 EnMin= -111.652317644816     IErMin= 1 ErrMin= 3.76D-06
 ErrMax= 3.76D-06  0.00D+00 EMaxC= 1.00D+00 BMatC= 2.96D-09 BMatP= 2.96D-09
 IDIUse=1 WtCom= 1.00D+00 WtEn= 0.00D+00
 Coeff-Com:  0.100D+01
 Coeff:      0.100D+01
 Gap=     0.133 Goal=   None    Shift=    0.000
 Gap=     0.133 Goal=   None    Shift=    0.000
 RMSDP=6.62D-06 MaxDP=6.13D-05 DE=-5.04D-07 OVMax= 3.58D-05

 Cycle  10  Pass 1  IDiag  1:
 E= -111.652317647640     Delta-E=       -0.000000002824 Rises=F Damp=F
 DIIS: error= 2.17D-06 at cycle   2 NSaved=   2.
 NSaved= 2 IEnMin= 2 EnMin= -111.652317647640     IErMin= 2 ErrMin= 2.17D-06
 ErrMax= 2.17D-06  0.00D+00 EMaxC= 1.00D+00 BMatC= 4.42D-10 BMatP= 2.96D-09
 IDIUse=1 WtCom= 1.00D+00 WtEn= 0.00D+00
 Coeff-Com: -0.118D+00 0.112D+01
 Coeff:     -0.118D+00 0.112D+01
 Gap=     0.133 Goal=   None    Shift=    0.000
 Gap=     0.133 Goal=   None    Shift=    0.000
 RMSDP=4.20D-07 MaxDP=3.57D-06 DE=-2.82D-09 OVMax= 2.57D-05

 Cycle  11  Pass 1  IDiag  1:
 E= -111.652317648196     Delta-E=       -0.000000000556 Rises=F Damp=F
 DIIS: error= 1.77D-06 at cycle   3 NSaved=   3.
 NSaved= 3 IEnMin= 3 EnMin= -111.652317648196     IErMin= 3 ErrMin= 1.77D-06
 ErrMax= 1.77D-06  0.00D+00 EMaxC= 1.00D+00 BMatC= 5.98D-10 BMatP= 4.42D-10
 IDIUse=1 WtCom= 1.00D+00 WtEn= 0.00D+00
 Coeff-Com: -0.181D+00 0.708D+00 0.473D+00
 Coeff:     -0.181D+00 0.708D+00 0.473D+00
 Gap=     0.133 Goal=   None    Shift=    0.000
 Gap=     0.133 Goal=   None    Shift=    0.000
 RMSDP=2.35D-07 MaxDP=3.52D-06 DE=-5.56D-10 OVMax= 1.92D-05

 Cycle  12  Pass 1  IDiag  1:
 E= -111.652317648175     Delta-E=        0.000000000021 Rises=F Damp=F
 DIIS: error= 2.74D-06 at cycle   4 NSaved=   4.
 NSaved= 4 IEnMin= 3 EnMin= -111.652317648196     IErMin= 3 ErrMin= 1.77D-06
 ErrMax= 2.74D-06  0.00D+00 EMaxC= 1.00D+00 BMatC= 9.97D-10 BMatP= 4.42D-10
 IDIUse=1 WtCom= 1.00D+00 WtEn= 0.00D+00
 Coeff-Com: -0.153D+00 0.299D+00 0.533D+00 0.321D+00
 Coeff:     -0.153D+00 0.299D+00 0.533D+00 0.321D+00
 Gap=     0.133 Goal=   None    Shift=    0.000
 Gap=     0.133 Goal=   None    Shift=    0.000
 RMSDP=1.66D-07 MaxDP=2.45D-06 DE= 2.09D-11 OVMax= 1.33D-05

 Cycle  13  Pass 1  IDiag  1:
 E= -111.652317648496     Delta-E=       -0.000000000322 Rises=F Damp=F
 DIIS: error= 5.23D-07 at cycle   5 NSaved=   5.
 NSaved= 5 IEnMin= 5 EnMin= -111.652317648496     IErMin= 5 ErrMin= 5.23D-07
 ErrMax= 5.23D-07  0.00D+00 EMaxC= 1.00D+00 BMatC= 3.93D-11 BMatP= 4.42D-10
 IDIUse=1 WtCom= 1.00D+00 WtEn= 0.00D+00
 Coeff-Com:  0.864D-02-0.206D+00-0.241D-01 0.135D+00 0.109D+01
 Coeff:      0.864D-02-0.206D+00-0.241D-01 0.135D+00 0.109D+01
 Gap=     0.133 Goal=   None    Shift=    0.000
 Gap=     0.133 Goal=   None    Shift=    0.000
 RMSDP=1.37D-07 MaxDP=1.13D-06 DE=-3.22D-10 OVMax= 1.08D-05

 Cycle  14  Pass 1  IDiag  1:
 E= -111.652317648551     Delta-E=       -0.000000000054 Rises=F Damp=F
 DIIS: error= 1.70D-07 at cycle   6 NSaved=   6.
 NSaved= 6 IEnMin= 6 EnMin= -111.652317648551     IErMin= 6 ErrMin= 1.70D-07
 ErrMax= 1.70D-07  0.00D+00 EMaxC= 1.00D+00 BMatC= 3.19D-12 BMatP= 3.93D-11
 IDIUse=1 WtCom= 1.00D+00 WtEn= 0.00D+00
 Coeff-Com:  0.207D-01-0.299D-01-0.105D+00-0.573D-01 0.547D-01 0.112D+01
 Coeff:      0.207D-01-0.299D-01-0.105D+00-0.573D-01 0.547D-01 0.112D+01
 Gap=     0.133 Goal=   None    Shift=    0.000
 Gap=     0.133 Goal=   None    Shift=    0.000
 RMSDP=4.98D-08 MaxDP=3.30D-07 DE=-5.43D-11 OVMax= 4.03D-06

 Cycle  15  Pass 1  IDiag  1:
 E= -111.652317648557     Delta-E=       -0.000000000006 Rises=F Damp=F
 DIIS: error= 4.10D-08 at cycle   7 NSaved=   7.
 NSaved= 7 IEnMin= 7 EnMin= -111.652317648557     IErMin= 7 ErrMin= 4.10D-08
 ErrMax= 4.10D-08  0.00D+00 EMaxC= 1.00D+00 BMatC= 4.12D-13 BMatP= 3.19D-12
 IDIUse=1 WtCom= 1.00D+00 WtEn= 0.00D+00
 Coeff-Com: -0.469D-02 0.374D-01 0.358D-02-0.271D-01-0.163D+00-0.778D-01
 Coeff-Com:  0.123D+01
 Coeff:     -0.469D-02 0.374D-01 0.358D-02-0.271D-01-0.163D+00-0.778D-01
 Coeff:      0.123D+01
 Gap=     0.133 Goal=   None    Shift=    0.000
 Gap=     0.133 Goal=   None    Shift=    0.000
 RMSDP=1.98D-08 MaxDP=1.26D-07 DE=-6.34D-12 OVMax= 1.54D-06

 Cycle  16  Pass 1  IDiag  1:
 E= -111.652317648558     Delta-E=       -0.000000000001 Rises=F Damp=F
 DIIS: error= 8.29D-09 at cycle   8 NSaved=   8.
 NSaved= 8 IEnMin= 8 EnMin= -111.652317648558     IErMin= 8 ErrMin= 8.29D-09
 ErrMax= 8.29D-09  0.00D+00 EMaxC= 1.00D+00 BMatC= 6.18D-15 BMatP= 4.12D-13
 IDIUse=1 WtCom= 1.00D+00 WtEn= 0.00D+00
 Coeff-Com: -0.768D-03 0.188D-02 0.306D-02 0.217D-02 0.855D-03-0.236D-01
 Coeff-Com:  0.359D-02 0.101D+01
 Coeff:     -0.768D-03 0.188D-02 0.306D-02 0.217D-02 0.855D-03-0.236D-01
 Coeff:      0.359D-02 0.101D+01
 Gap=     0.133 Goal=   None    Shift=    0.000
 Gap=     0.133 Goal=   None    Shift=    0.000
 RMSDP=1.18D-09 MaxDP=7.79D-09 DE=-5.97D-13 OVMax= 7.09D-08

 SCF Done:  E(UM062X) =  -111.652317649     A.U. after   16 cycles
            NFock= 16  Conv=0.12D-08     -V/T= 2.0046
 <Sx>= 0.0000 <Sy>= 0.0000 <Sz>= 0.0000 <S**2>=-0.0000 S=-0.0000
 <L.S>=  0.00000000000    
 KE= 1.111431240487D+02 PE=-3.179875646038D+02 EE= 6.677493979293D+01
 Annihilation of the first spin contaminant:
 S**2 before annihilation    -0.0000,   after     0.0000
 Leave Link  502 at Thu May 15 14:47:57 2025, MaxMem=   536870912 cpu:              37.4 elap:               4.8
 (Enter /home/szhao/Apps/g16/l701.exe)
 ... and contract with generalized density number  0.
 Compute integral first derivatives.
 Leave Link  701 at Thu May 15 14:47:57 2025, MaxMem=   536870912 cpu:               0.6 elap:               0.1
 (Enter /home/szhao/Apps/g16/l702.exe)
 L702 exits ... SP integral derivatives will be done elsewhere.
 Leave Link  702 at Thu May 15 14:47:57 2025, MaxMem=   536870912 cpu:               0.2 elap:               0.0
 (Enter /home/szhao/Apps/g16/l703.exe)
 Integral derivatives from FoFJK, PRISM(SPDF).
 Compute integral first derivatives, UseDBF=F ICtDFT=           0.
 Calling FoFJK, ICntrl=      2127 FMM=F ISym2X=0 I1Cent= 0 IOpClX= 1 NMat=1 NMatS=1 NMatT=0.
 FoFJK:  IHMeth= 1 ICntrl=    2127 DoSepK=F KAlg= 0 I1Cent=           0 FoldK=F
 IRaf=         0 NMat=       1 IRICut=       1 DoRegI=T DoRafI=F ISym2E= 0 IDoP0=0 IntGTp=1.
 FoFCou: FMM=F IPFlag=           0 FMFlag=      100000 FMFlg1=         800
         NFxFlg=           0 DoJE=F BraDBF=F KetDBF=F FulRan=T
         wScrn=  0.000000 ICntrl=      2127 IOpCl=  1 I1Cent=           0 NGrid=           0
         NMat0=    1 NMatS0=      1 NMatT0=    0 NMatD0=    1 NMtDS0=    0 NMtDT0=    0
 Symmetry not used in FoFCou.
 Leave Link  703 at Thu May 15 14:47:57 2025, MaxMem=   536870912 cpu:               5.0 elap:               0.6
 (Enter /home/szhao/Apps/g16/l716.exe)
 Dipole        =-2.13273494D-05 2.75998383D-01 9.76005066D-01
 -------------------------------------------------------------------
 Center     Atomic                   Forces (Hartrees/Bohr)
 Number     Number              X              Y              Z
 -------------------------------------------------------------------
      1        7          -0.000000000   -0.000000000   -0.000000000
      2        7          -0.000000000   -0.000000000   -0.000000000
      3        1           0.008291975   -0.004529811    0.000161370
      4        1          -0.008292955    0.003946177   -0.002244583
      5        1           0.005704263    0.002304231    0.004578360
      6        1          -0.005700462    0.000422473    0.005115712
 -------------------------------------------------------------------
 Cartesian Forces:  Max     0.008292955 RMS     0.004057499
 Leave Link  716 at Thu May 15 14:47:57 2025, MaxMem=   536870912 cpu:               0.1 elap:               0.0
 (Enter /home/szhao/Apps/g16/l103.exe)

 GradGradGradGradGradGradGradGradGradGradGradGradGradGradGradGradGradGrad
 Berny optimization.
 Using GEDIIS/GDIIS optimizer.
 FormGI is forming the generalized inverse of G from B-inverse, IUseBI=4.
 Internal  Forces:  Max     0.015680820 RMS     0.008589061
 Search for a local minimum.
 Step number   2 out of a maximum of   30
 All quantities printed in internal units (Hartrees-Bohrs-Radians)
 RMS Force = .80380D-02 SwitMx=.10000D-02 MixMth= 1
 Mixed Optimization -- RFO/linear search
 Update second derivatives using D2CorX and points    1    2
 DE= -1.21D-02 DEPred=-7.77D-03 R= 1.56D+00
 TightC=F SS=  1.41D+00  RLast= 4.45D-01 DXNew= 5.0454D-01 1.3338D+00
 Trust test= 1.56D+00 RLast= 4.45D-01 DXMaxT set to 5.05D-01
 The second derivative matrix:
                          X1        Y1        Z1        X2        Y2
           X1           0.50737
           Y1           0.01520   0.53134
           Z1          -0.01790  -0.03692   0.54350
           X2          -0.00737  -0.01520   0.01791   0.50737
           Y2          -0.02227  -0.04593   0.05411   0.02228   0.56732
           Z2          -0.00755  -0.01556   0.01833   0.00755   0.02281
           R1          -0.00772  -0.01592   0.01875   0.00772   0.02333
           R2          -0.00487  -0.01004   0.01183   0.00487   0.01472
           R3          -0.00771  -0.01590   0.01873   0.00771   0.02330
           R4          -0.00486  -0.01002   0.01181   0.00486   0.01469
           A1           0.00013   0.00026  -0.00030  -0.00013  -0.00038
           A2          -0.00182  -0.00376   0.00443   0.00182   0.00551
           A3           0.00425   0.00877  -0.01033  -0.00425  -0.01285
           A4           0.00012   0.00025  -0.00029  -0.00012  -0.00036
           A5          -0.00182  -0.00375   0.00441   0.00182   0.00549
           A6           0.00427   0.00880  -0.01037  -0.00427  -0.01290
           D1          -0.01339  -0.02761   0.03253   0.01339   0.04047
           D2          -0.00049  -0.00102   0.00120   0.00049   0.00149
           D3          -0.00051  -0.00106   0.00125   0.00051   0.00155
           D4           0.01238   0.02553  -0.03008  -0.01238  -0.03742
                          Z2        R1        R2        R3        R4
           Z2           0.50773
           R1           0.00790   0.45772
           R2           0.00499  -0.00029   0.45063
           R3           0.00789   0.00101  -0.00029   0.45770
           R4           0.00498  -0.00030  -0.00090  -0.00030   0.45062
           A1          -0.00013   0.01585   0.01210   0.01584   0.01210
           A2           0.00187   0.01386   0.01032   0.01386   0.01032
           A3          -0.00435   0.00691   0.00585   0.00691   0.00586
           A4          -0.00012   0.01585   0.01211   0.01585   0.01211
           A5           0.00186   0.01386   0.01032   0.01385   0.01032
           A6          -0.00437   0.00690   0.00585   0.00690   0.00586
           D1           0.01371   0.01361   0.00853   0.01359   0.00852
           D2           0.00051   0.00048   0.00030   0.00048   0.00030
           D3           0.00053   0.00050   0.00031   0.00050   0.00031
           D4          -0.01268  -0.01263  -0.00792  -0.01261  -0.00790
                          A1        A2        A3        A4        A5
           A1           0.12387
           A2          -0.02706   0.14023
           A3          -0.02562  -0.02027   0.14419
           A4          -0.03613  -0.02706  -0.02562   0.12387
           A5          -0.02707  -0.01978  -0.02027  -0.02707   0.14021
           A6          -0.02564  -0.02029  -0.01582  -0.02564  -0.02029
           D1           0.00070   0.00401  -0.00706   0.00071   0.00400
           D2           0.00007   0.00018  -0.00023   0.00007   0.00018
           D3           0.00007   0.00019  -0.00024   0.00007   0.00019
           D4          -0.00056  -0.00364   0.00659  -0.00057  -0.00363
                          A6        D1        D2        D3        D4
           A6           0.14418
           D1          -0.00709   0.02660
           D2          -0.00023   0.00089   0.00233
           D3          -0.00024   0.00093   0.00003   0.00234
           D4           0.00662  -0.02247  -0.00083  -0.00086   0.02308
 ITU=  1  0
 Use linear search instead of GDIIS.
     Eigenvalues ---    0.00232   0.02554   0.06878   0.14236   0.16000
     Eigenvalues ---    0.16000   0.16133   0.45121   0.45153   0.45670
     Eigenvalues ---    0.462271000.000001000.000001000.000001000.00000
     Eigenvalues --- 1000.000001000.000001000.000001000.000001000.00000
 RFO step:  Lambda=-7.15774616D-03 EMin= 2.32223008D-03
 Quartic linear search produced a step of  0.62483.
 Iteration  1 RMS(Cart)=  0.17480735 RMS(Int)=  0.03437063
 Iteration  2 RMS(Cart)=  0.04265671 RMS(Int)=  0.02126395
 Iteration  3 RMS(Cart)=  0.00261311 RMS(Int)=  0.02119913
 Iteration  4 RMS(Cart)=  0.00012931 RMS(Int)=  0.02119904
 Iteration  5 RMS(Cart)=  0.00000710 RMS(Int)=  0.02119904
 Iteration  6 RMS(Cart)=  0.00000039 RMS(Int)=  0.02119904
 ITry= 1 IFail=0 DXMaxC= 4.76D-01 DCOld= 1.00D+10 DXMaxT= 5.05D-01 DXLimC= 3.00D+00 Rises=F
 Variable       Old X    -DE/DX   Delta X   Delta X   Delta X     New X
                                 (Linear)    (Quad)   (Total)
    X1       -2.90364   0.01400   0.00000   0.00000   0.00000  -2.90364
    Y1        0.00000  -0.00720   0.00000   0.00000   0.00000   0.00000
    Z1        0.00000   0.00615   0.00000   0.00000   0.00000   0.00000
    X2        2.90364  -0.01399   0.00000   0.00000   0.00000   2.90364
    Y2        0.00000   0.00935   0.00000   0.00000   0.00000   0.00000
    Z2        0.00000   0.00146   0.00000   0.00000   0.00000   0.00000
    R1        1.93418   0.00300   0.01382   0.01010   0.02392   1.95810
    R2        1.93506   0.00327   0.01066   0.01134   0.02201   1.95706
    R3        1.93417   0.00301   0.01382   0.01012   0.02394   1.95811
    R4        1.93505   0.00328   0.01066   0.01137   0.02203   1.95709
    A1        1.74546  -0.01568  -0.08923  -0.15250  -0.24609   1.49937
    A2        1.86119  -0.01219  -0.06675  -0.12413  -0.18821   1.67297
    A3        1.79347   0.00482  -0.06344   0.04699  -0.06389   1.72958
    A4        1.74546  -0.01568  -0.08923  -0.15248  -0.24607   1.49939
    A5        1.86116  -0.01218  -0.06677  -0.12405  -0.18815   1.67300
    A6        1.79338   0.00483  -0.06349   0.04721  -0.06370   1.72968
    D1        2.85400   0.00374   0.16009  -0.04736   0.06563   2.91963
    D2       -1.56763  -0.00010   0.01355  -0.08597  -0.07242  -1.64005
    D3       -1.56752  -0.00011   0.01362  -0.08625  -0.07262  -1.64014
    D4        0.29404  -0.00395  -0.13292  -0.12486  -0.21068   0.08336
         Item               Value     Threshold  Converged?
 Maximum Force            0.015681     0.000450     NO 
 RMS     Force            0.008038     0.000300     NO 
 Maximum Displacement     0.475862     0.001800     NO 
 RMS     Displacement     0.201751     0.001200     NO 
 Predicted change in Energy=-1.031603D-02
 Lowest energy point so far.  Saving SCF results.
 GradGradGradGradGradGradGradGradGradGradGradGradGradGradGradGradGradGrad

 Leave Link  103 at Thu May 15 14:47:57 2025, MaxMem=   536870912 cpu:               0.2 elap:               0.0
 (Enter /home/szhao/Apps/g16/l202.exe)
                          Input orientation:                          
 ---------------------------------------------------------------------
 Center     Atomic      Atomic             Coordinates (Angstroms)
 Number     Number       Type             X           Y           Z
 ---------------------------------------------------------------------
      1          7           0       -1.536540    0.000000    0.000000
      2          7           0        1.536540    0.000000    0.000000
      3          1           0       -1.462591   -1.019123    0.172021
      4          1           0        1.462612    0.956259   -0.392154
      5          1           0       -1.642175    0.323909    0.977989
      6          1           0        1.642208    0.241357    1.001571
 ---------------------------------------------------------------------
                    Distance matrix (angstroms):
                    1          2          3          4          5
     1  N    0.000000
     2  N    3.073080   0.000000
     3  H    1.036181   3.172222   0.000000
     4  H    3.172244   1.036186   3.574527   0.000000
     5  H    1.035634   3.341498   1.576569   3.452081   0.000000
     6  H    3.341532   1.035647   3.452064   1.576645   3.285505
                    6
     6  H    0.000000
 Symmetry turned off by external request.
 Stoichiometry    H4N2
 Framework group  C1[X(H4N2)]
 Deg. of freedom    12
 Full point group                 C1      NOp   1
 Rotational constants (GHZ):         124.0623567           6.4792698           6.4760905
 Leave Link  202 at Thu May 15 14:47:57 2025, MaxMem=   536870912 cpu:               0.0 elap:               0.0
 (Enter /home/szhao/Apps/g16/l301.exe)
 Standard basis: 6-311+G(d,p) (5D, 7F)
 Ernie: Thresh=  0.10000D-02 Tol=  0.10000D-05 Strict=F.
    68 basis functions,   104 primitive gaussians,    70 cartesian basis functions
     9 alpha electrons        9 beta electrons
       nuclear repulsion energy        28.5804838442 Hartrees.
 IExCor= 4336 DFT=T Ex+Corr=M062X ExCW=0 ScaHFX=  0.540000
 ScaDFX=  1.000000  1.000000  1.000000  1.000000 ScalE2=  1.000000  1.000000
 IRadAn=      7 IRanWt=     -1 IRanGd=            0 ICorTp=0 IEmpDi=  4
 NAtoms=    6 NActive=    6 NUniq=    6 SFac= 1.00D+00 NAtFMM=   60 NAOKFM=F Big=F
 Integral buffers will be    131072 words long.
 Raffenetti 2 integral format.
 Two-electron integral symmetry is turned off.
 Leave Link  301 at Thu May 15 14:47:58 2025, MaxMem=   536870912 cpu:               0.3 elap:               0.0
 (Enter /home/szhao/Apps/g16/l302.exe)
 NPDir=0 NMtPBC=     1 NCelOv=     1 NCel=       1 NClECP=     1 NCelD=      1
         NCelK=      1 NCelE2=     1 NClLst=     1 CellRange=     0.0.
 One-electron integrals computed using PRISM.
 NBasis=    68 RedAO= T EigKep=  1.96D-03  NBF=    68
 NBsUse=    68 1.00D-06 EigRej= -1.00D+00 NBFU=    68
 Precomputing XC quadrature grid using
 IXCGrd= 4 IRadAn=           7 IRanWt=          -1 IRanGd=           0 AccXCQ= 0.00D+00.
 Generated NRdTot=       0 NPtTot=           0 NUsed=           0 NTot=          32
 NSgBfM=    70    70    70    70    70 MxSgAt=     6 MxSgA2=     6.
 Leave Link  302 at Thu May 15 14:47:58 2025, MaxMem=   536870912 cpu:               0.8 elap:               0.1
 (Enter /home/szhao/Apps/g16/l303.exe)
 DipDrv:  MaxL=1.
 Leave Link  303 at Thu May 15 14:47:58 2025, MaxMem=   536870912 cpu:               0.2 elap:               0.0
 (Enter /home/szhao/Apps/g16/l401.exe)
 Initial guess from the checkpoint file:  "opt.chk"
 B after Tr=     0.000008    0.005108    0.017927
         Rot=    0.999950    0.001303   -0.002724   -0.009577 Ang=   1.15 deg.
 Guess basis will be translated and rotated to current coordinates.
 JPrj=2 DoOrth=T DoCkMO=T.
 Initial guess <Sx>= 0.0000 <Sy>= 0.0000 <Sz>= 0.0000 <S**2>=-0.0000 S=-0.0000
 Generating alternative initial guess.
 ExpMin= 6.39D-02 ExpMax= 6.29D+03 ExpMxC= 9.49D+02 IAcc=3 IRadAn=         5 AccDes= 0.00D+00
 Harris functional with IExCor= 1009 and IRadAn=       5 diagonalized for initial guess.
 HarFok:  IExCor= 1009 AccDes= 0.00D+00 IRadAn=         5 IDoV= 1 UseB2=F ITyADJ=14
 ICtDFT=  3500011 ScaDFX=  1.000000  1.000000  1.000000  1.000000
 FoFCou: FMM=F IPFlag=           0 FMFlag=      100000 FMFlg1=           0
         NFxFlg=           0 DoJE=T BraDBF=F KetDBF=T FulRan=T
         wScrn=  0.000000 ICntrl=       500 IOpCl=  0 I1Cent=   200000004 NGrid=           0
         NMat0=    1 NMatS0=      1 NMatT0=    0 NMatD0=    1 NMtDS0=    0 NMtDT0=    0
 Symmetry not used in FoFCou.
 Harris En= -111.646448248553    
 Leave Link  401 at Thu May 15 14:47:58 2025, MaxMem=   536870912 cpu:               1.6 elap:               0.2
 (Enter /home/szhao/Apps/g16/l502.exe)
 Keep R1 and R2 ints in memory in canonical form, NReq=12681614.
 FoFCou: FMM=F IPFlag=           0 FMFlag=           0 FMFlg1=           0
         NFxFlg=           0 DoJE=F BraDBF=F KetDBF=F FulRan=T
         wScrn=  0.000000 ICntrl=       600 IOpCl=  0 I1Cent=           0 NGrid=           0
         NMat0=    1 NMatS0=   2346 NMatT0=    0 NMatD0=    1 NMtDS0=    0 NMtDT0=    0
 Symmetry not used in FoFCou.
 Two-electron integral symmetry not used.
 UHF open shell SCF:
 Using DIIS extrapolation, IDIIS=  1040.
 NGot=   536870912 LenX=   531353794 LenY=   531348453
 Requested convergence on RMS density matrix=1.00D-08 within 128 cycles.
 Requested convergence on MAX density matrix=1.00D-06.
 Requested convergence on             energy=1.00D-06.
 No special actions if energy rises.
 Integral accuracy reduced to 1.0D-05 until final iterations.

 Cycle   1  Pass 0  IDiag  1:
 E= -111.636736134156    
 DIIS: error= 1.26D-02 at cycle   1 NSaved=   1.
 NSaved= 1 IEnMin= 1 EnMin= -111.636736134156     IErMin= 1 ErrMin= 1.26D-02
 ErrMax= 1.26D-02  0.00D+00 EMaxC= 1.00D-01 BMatC= 4.51D-02 BMatP= 4.51D-02
 IDIUse=3 WtCom= 8.74D-01 WtEn= 1.26D-01
 Coeff-Com:  0.100D+01
 Coeff-En:   0.100D+01
 Coeff:      0.100D+01
 Recover alternate guess density for next cycle.
 RMSDP=3.45D-03 MaxDP=2.57D-02              OVMax= 0.00D+00

 Cycle   2  Pass 0  IDiag  1:
 E= -111.614798272406     Delta-E=        0.021937861750 Rises=F Damp=F
 Switch densities from cycles 1 and 2 for lowest energy.
 DIIS: error= 4.46D-02 at cycle   2 NSaved=   2.
 NSaved= 2 IEnMin= 1 EnMin= -111.636736134156     IErMin= 1 ErrMin= 1.26D-02
 ErrMax= 4.46D-02  0.00D+00 EMaxC= 1.00D+00 BMatC= 2.70D-01 BMatP= 4.51D-02
 IDIUse=1 WtCom= 1.00D+00 WtEn= 0.00D+00
 Coeff-Com:  0.888D+00 0.112D+00
 Coeff:      0.888D+00 0.112D+00
 Gap=     0.137 Goal=   None    Shift=    0.000
 Gap=     0.137 Goal=   None    Shift=    0.000
 RMSDP=2.28D-03 MaxDP=1.73D-02 DE= 2.19D-02 OVMax= 9.11D-02

 Cycle   3  Pass 0  IDiag  1:
 E= -111.656168664168     Delta-E=       -0.041370391761 Rises=F Damp=F
 DIIS: error= 5.32D-03 at cycle   3 NSaved=   3.
 NSaved= 3 IEnMin= 3 EnMin= -111.656168664168     IErMin= 3 ErrMin= 5.32D-03
 ErrMax= 5.32D-03  0.00D+00 EMaxC= 1.00D+00 BMatC= 7.35D-03 BMatP= 4.51D-02
 IDIUse=1 WtCom= 1.00D+00 WtEn= 0.00D+00
 Coeff-Com: -0.649D-01 0.126D+00 0.939D+00
 Coeff:     -0.649D-01 0.126D+00 0.939D+00
 Gap=     0.139 Goal=   None    Shift=    0.000
 Gap=     0.139 Goal=   None    Shift=    0.000
 RMSDP=7.40D-04 MaxDP=8.46D-03 DE=-4.14D-02 OVMax= 5.21D-02

 Cycle   4  Pass 0  IDiag  1:
 E= -111.659458332952     Delta-E=       -0.003289668784 Rises=F Damp=F
 DIIS: error= 2.33D-03 at cycle   4 NSaved=   4.
 NSaved= 4 IEnMin= 4 EnMin= -111.659458332952     IErMin= 4 ErrMin= 2.33D-03
 ErrMax= 2.33D-03  0.00D+00 EMaxC= 1.00D+00 BMatC= 5.73D-04 BMatP= 7.35D-03
 IDIUse=1 WtCom= 1.00D+00 WtEn= 0.00D+00
 Coeff-Com: -0.420D-01-0.459D-02 0.155D+00 0.891D+00
 Coeff:     -0.420D-01-0.459D-02 0.155D+00 0.891D+00
 Gap=     0.140 Goal=   None    Shift=    0.000
 Gap=     0.140 Goal=   None    Shift=    0.000
 RMSDP=2.43D-04 MaxDP=1.82D-03 DE=-3.29D-03 OVMax= 1.90D-02

 Cycle   5  Pass 0  IDiag  1:
 E= -111.659881271990     Delta-E=       -0.000422939039 Rises=F Damp=F
 DIIS: error= 1.02D-03 at cycle   5 NSaved=   5.
 NSaved= 5 IEnMin= 5 EnMin= -111.659881271990     IErMin= 5 ErrMin= 1.02D-03
 ErrMax= 1.02D-03  0.00D+00 EMaxC= 1.00D+00 BMatC= 7.26D-05 BMatP= 5.73D-04
 IDIUse=1 WtCom= 1.00D+00 WtEn= 0.00D+00
 Coeff-Com:  0.197D-01-0.138D-02-0.181D+00-0.542D+00 0.170D+01
 Coeff:      0.197D-01-0.138D-02-0.181D+00-0.542D+00 0.170D+01
 Gap=     0.141 Goal=   None    Shift=    0.000
 Gap=     0.141 Goal=   None    Shift=    0.000
 RMSDP=2.65D-04 MaxDP=1.94D-03 DE=-4.23D-04 OVMax= 2.30D-02

 Cycle   6  Pass 0  IDiag  1:
 E= -111.660057911850     Delta-E=       -0.000176639859 Rises=F Damp=F
 DIIS: error= 1.65D-04 at cycle   6 NSaved=   6.
 NSaved= 6 IEnMin= 6 EnMin= -111.660057911850     IErMin= 6 ErrMin= 1.65D-04
 ErrMax= 1.65D-04  0.00D+00 EMaxC= 1.00D+00 BMatC= 3.29D-06 BMatP= 7.26D-05
 IDIUse=1 WtCom= 1.00D+00 WtEn= 0.00D+00
 Coeff-Com:  0.198D-02 0.116D-02 0.518D-03-0.627D-01-0.539D-01 0.111D+01
 Coeff:      0.198D-02 0.116D-02 0.518D-03-0.627D-01-0.539D-01 0.111D+01
 Gap=     0.142 Goal=   None    Shift=    0.000
 Gap=     0.142 Goal=   None    Shift=    0.000
 RMSDP=5.02D-05 MaxDP=5.03D-04 DE=-1.77D-04 OVMax= 3.78D-03

 Cycle   7  Pass 0  IDiag  1:
 E= -111.660062822090     Delta-E=       -0.000004910240 Rises=F Damp=F
 DIIS: error= 1.01D-04 at cycle   7 NSaved=   7.
 NSaved= 7 IEnMin= 7 EnMin= -111.660062822090     IErMin= 7 ErrMin= 1.01D-04
 ErrMax= 1.01D-04  0.00D+00 EMaxC= 1.00D+00 BMatC= 1.15D-06 BMatP= 3.29D-06
 IDIUse=1 WtCom= 1.00D+00 WtEn= 0.00D+00
 Coeff-Com: -0.247D-04 0.542D-03 0.915D-02-0.355D-02-0.995D-01 0.480D+00
 Coeff-Com:  0.613D+00
 Coeff:     -0.247D-04 0.542D-03 0.915D-02-0.355D-02-0.995D-01 0.480D+00
 Coeff:      0.613D+00
 Gap=     0.142 Goal=   None    Shift=    0.000
 Gap=     0.142 Goal=   None    Shift=    0.000
 RMSDP=1.40D-05 MaxDP=2.42D-04 DE=-4.91D-06 OVMax= 1.28D-03

 Cycle   8  Pass 0  IDiag  1:
 E= -111.660061655217     Delta-E=        0.000001166872 Rises=F Damp=F
[...]
           A3          -0.01199   0.01957   0.01340   0.01962   0.01348
           A4          -0.00016   0.00314   0.00179   0.00447   0.00312
           A5          -0.00634   0.00105   0.00079   0.00168   0.00134
           A6          -0.00679   0.01856   0.01350   0.01833   0.01329
           D1           0.00987   0.01019   0.00433   0.01065   0.00480
           D2           0.00045   0.00069   0.00001   0.00114   0.00045
           D3           0.00188  -0.00002   0.00038  -0.00056  -0.00015
           D4          -0.00755  -0.00951  -0.00394  -0.01008  -0.00450
                          A1        A2        A3        A4        A5
           A1           0.09826
           A2           0.00664   0.09998
           A3          -0.00253  -0.00254   0.10676
           A4          -0.05752   0.00879  -0.00477   0.10507
           A5           0.00785  -0.05950  -0.00315   0.00958   0.10091
           A6          -0.00689  -0.00443  -0.05094  -0.00673  -0.00437
           D1           0.00275   0.00081  -0.01703   0.00359   0.00099
           D2           0.00240   0.00027  -0.00108   0.00201   0.00020
           D3          -0.00089  -0.00118   0.00000  -0.00112  -0.00127
           D4          -0.00124  -0.00172   0.01595  -0.00270  -0.00206
                          A6        D1        D2        D3        D4
           A6           0.10813
           D1          -0.01728   0.02388
           D2          -0.00029   0.00013   0.00200
           D3          -0.00023  -0.00070  -0.00071   0.00241
           D4           0.01676  -0.02215  -0.00114   0.00009   0.02340
 ITU=  0  0  1  1  1  1  1  1  1  1  1  1  0
     Eigenvalues ---    0.00048   0.02609   0.05188   0.07932   0.08886
     Eigenvalues ---    0.15960   0.16001   0.43719   0.45174   0.45427
     Eigenvalues ---    0.456991000.000001000.000001000.000001000.00000
     Eigenvalues --- 1000.000001000.000001000.000001000.000001000.00000
 En-DIIS/RFO-DIIS/Sim-DIIS IScMMF=       -3 using points:    13   12   11   10    9    8    7
 RFO step:  Lambda=-7.00404130D-11.
 NNeg= 0 NGDIIS= 7 SimSw=  2.50D-01 Rises=F DC= -8.33D-09 SmlDif=  1.00D-05
 NRisDI= 0 DoIntr=F SqrtH=F CThrHd= 10.0 CDAdj=  3.0
 RMS Error=  0.1211763029D-03 NUsed= 7 OKEnD=F EnDIS=F
 InvSVX:  RCond= 1.06D-10 Info=           0 Equed=N FErr=  6.55D-10 BErr=  8.93D-17
 DIIS inversion failure, remove point   7.
 InvSVX:  RCond= 1.71D-10 Info=           0 Equed=N FErr=  3.21D-10 BErr=  6.98D-17
 DIIS inversion failure, remove point   6.
 InvSVX:  RCond= 1.69D-09 Info=           0 Equed=N FErr=  1.42D-12 BErr=  5.65D-17
 DIIS inversion failure, remove point   5.
 InvSVX:  RCond= 5.49D-09 Info=           0 Equed=N FErr=  5.10D-13 BErr=  5.15D-17
 DIIS inversion failure, remove point   4.
 InvSVX:  RCond= 1.67D-08 Info=           0 Equed=N FErr=  6.50D-14 BErr=  9.87D-17
 DIIS inversion failure, remove point   3.
 InvSVX:  RCond= 5.05D-06 Info=           0 Equed=N FErr=  1.13D-15 BErr=  2.54D-17
 RFO-DIIS uses    2 points instead of    7
 DidBck=F Rises=F RFO-DIIS coefs:    1.11983   -0.11983    0.00000    0.00000    0.00000
                  RFO-DIIS coefs:    0.00000    0.00000
 Iteration  1 RMS(Cart)=  0.00011803 RMS(Int)=  0.00000001
 Iteration  2 RMS(Cart)=  0.00000001 RMS(Int)=  0.00000000
 ITry= 1 IFail=0 DXMaxC= 2.45D-04 DCOld= 1.00D+10 DXMaxT= 2.77D+00 DXLimC= 3.00D+00 Rises=F
 Variable       Old X    -DE/DX   Delta X   Delta X   Delta X     New X
                                 (Linear)    (Quad)   (Total)
    X1       -2.90364   0.00000   0.00000   0.00000   0.00000  -2.90364
    Y1        0.00000  -0.00000   0.00000   0.00000   0.00000   0.00000
    Z1        0.00000   0.00000   0.00000   0.00000   0.00000   0.00000
    X2        2.90364   0.00000   0.00000   0.00000   0.00000   2.90364
    Y2        0.00000   0.00000   0.00000   0.00000   0.00000   0.00000
    Z2        0.00000  -0.00000   0.00000   0.00000   0.00000   0.00000
    R1        1.94164   0.00000  -0.00000   0.00000   0.00000   1.94164
    R2        1.94165   0.00000   0.00000   0.00000   0.00000   1.94165
    R3        1.94165   0.00000  -0.00000   0.00000   0.00000   1.94165
    R4        1.94164   0.00000  -0.00000   0.00000   0.00000   1.94164
    A1        1.48355  -0.00000  -0.00005   0.00003  -0.00002   1.48353
    A2        1.48350  -0.00000   0.00002  -0.00000   0.00002   1.48351
    A3        1.79431  -0.00000   0.00001  -0.00001   0.00000   1.79431
    A4        1.48343   0.00000  -0.00005   0.00005   0.00001   1.48344
    A5        1.48344   0.00000   0.00002   0.00000   0.00002   1.48347
    A6        1.79431  -0.00000   0.00000  -0.00000  -0.00000   1.79431
    D1        1.33739   0.00000   0.00026   0.00001   0.00027   1.33766
    D2        3.14131  -0.00000   0.00026   0.00000   0.00027   3.14158
    D3        3.14130   0.00000   0.00027   0.00000   0.00027   3.14157
    D4       -1.33796  -0.00000   0.00027  -0.00001   0.00027  -1.33769
         Item               Value     Threshold  Converged?
 Maximum Force            0.000003     0.000450     YES
 RMS     Force            0.000001     0.000300     YES
 Maximum Displacement     0.000245     0.001800     YES
 RMS     Displacement     0.000118     0.001200     YES
 Predicted change in Energy=-1.180170D-10
 Optimization completed.
    -- Stationary point found.
                           ----------------------------
                           !   Optimized Parameters   !
                           ! (Angstroms and Degrees)  !
 --------------------------                            --------------------------
 ! Name  Definition              Value          Derivative Info.                !
 --------------------------------------------------------------------------------
 ! X1    R(1,-1)                -1.5365         -DE/DX =    0.0                 !
 ! Y1    R(1,-2)                 0.0            -DE/DX =    0.0                 !
 ! Z1    R(1,-3)                 0.0            -DE/DX =    0.0                 !
 ! X2    R(2,-1)                 1.5365         -DE/DX =    0.0                 !
 ! Y2    R(2,-2)                 0.0            -DE/DX =    0.0                 !
 ! Z2    R(2,-3)                 0.0            -DE/DX =    0.0                 !
 ! R1    R(1,3)                  1.0275         -DE/DX =    0.0                 !
 ! R2    R(1,5)                  1.0275         -DE/DX =    0.0                 !
 ! R3    R(2,4)                  1.0275         -DE/DX =    0.0                 !
 ! R4    R(2,6)                  1.0275         -DE/DX =    0.0                 !
 ! A1    A(2,1,3)               85.0013         -DE/DX =    0.0                 !
 ! A2    A(2,1,5)               84.9981         -DE/DX =    0.0                 !
 ! A3    A(3,1,5)              102.8064         -DE/DX =    0.0                 !
 ! A4    A(1,2,4)               84.9945         -DE/DX =    0.0                 !
 ! A5    A(1,2,6)               84.9951         -DE/DX =    0.0                 !
 ! A6    A(4,2,6)              102.8062         -DE/DX =    0.0                 !
 ! D1    D(3,1,2,4)             76.6266         -DE/DX =    0.0                 !
 ! D2    D(3,1,2,6)            179.984          -DE/DX =    0.0                 !
 ! D3    D(5,1,2,4)            179.9831         -DE/DX =    0.0                 !
 ! D4    D(5,1,2,6)            -76.6595         -DE/DX =    0.0                 !
 --------------------------------------------------------------------------------
 Lowest energy point so far.  Saving SCF results.
 Largest change from initial coordinates is atom    5       0.986 Angstoms.
 GradGradGradGradGradGradGradGradGradGradGradGradGradGradGradGradGradGrad

 Leave Link  103 at Thu May 15 14:48:55 2025, MaxMem=   536870912 cpu:               0.3 elap:               0.0
 (Enter /home/szhao/Apps/g16/l202.exe)
                          Input orientation:                          
 ---------------------------------------------------------------------
 Center     Atomic      Atomic             Coordinates (Angstroms)
 Number     Number       Type             X           Y           Z
 ---------------------------------------------------------------------
      1          7           0       -1.536540    0.000000    0.000000
      2          7           0        1.536540    0.000000    0.000000
      3          1           0       -1.447014   -0.816412   -0.617378
      4          1           0        1.446891    0.411801   -0.937064
      5          1           0       -1.446955   -0.412080    0.936949
      6          1           0        1.446902    0.816575    0.617144
 ---------------------------------------------------------------------
                    Distance matrix (angstroms):
                    1          2          3          4          5
     1  N    0.000000
     2  N    3.073080   0.000000
     3  H    1.027472   3.154247   0.000000
     4  H    3.154129   1.027476   3.159966   0.000000
     5  H    1.027477   3.154192   1.606057   3.544721   0.000000
     6  H    3.154138   1.027471   3.544776   1.606052   3.160107
                    6
     6  H    0.000000
 Symmetry turned off by external request.
 Stoichiometry    H4N2
 Framework group  C1[X(H4N2)]
 Deg. of freedom    12
 Full point group                 C1      NOp   1
 Rotational constants (GHZ):         125.2159326           6.6335562           6.5338038
 Leave Link  202 at Thu May 15 14:48:55 2025, MaxMem=   536870912 cpu:               0.1 elap:               0.0
 (Enter /home/szhao/Apps/g16/l601.exe)
 Copying SCF densities to generalized density rwf, IOpCl= 1 IROHF=0.

 **********************************************************************

            Population analysis using the SCF density.

 **********************************************************************

 Alpha  occ. eigenvalues --  -14.80533 -14.80531  -0.95269  -0.94372  -0.55217
 Alpha  occ. eigenvalues --   -0.54628  -0.40932  -0.40191  -0.30383
 Alpha virt. eigenvalues --   -0.16124   0.04546   0.06560   0.08700   0.11475
 Alpha virt. eigenvalues --    0.12846   0.13878   0.15902   0.15925   0.18938
 Alpha virt. eigenvalues --    0.19939   0.26815   0.27129   0.51316   0.51552
 Alpha virt. eigenvalues --    0.57075   0.62102   0.72695   0.76502   0.77818
 Alpha virt. eigenvalues --    0.81858   0.83135   0.88320   0.94271   1.06765
 Alpha virt. eigenvalues --    1.21861   1.24739   1.25285   1.27393   1.41566
 Alpha virt. eigenvalues --    1.44668   1.63591   1.65488   1.89539   1.90497
 Alpha virt. eigenvalues --    1.97894   1.99066   2.34061   2.38282   2.38728
 Alpha virt. eigenvalues --    2.38733   2.47770   2.49066   2.56001   2.56124
 Alpha virt. eigenvalues --    2.63100   2.67601   2.83524   2.94227   3.07663
 Alpha virt. eigenvalues --    3.08095   3.83377   3.93784   4.22284   4.29678
 Alpha virt. eigenvalues --    4.63447   4.64134  35.50104  35.50568
  Beta  occ. eigenvalues --  -14.80533 -14.80531  -0.95269  -0.94372  -0.55217
  Beta  occ. eigenvalues --   -0.54628  -0.40932  -0.40191  -0.30383
  Beta virt. eigenvalues --   -0.16124   0.04546   0.06560   0.08700   0.11475
  Beta virt. eigenvalues --    0.12846   0.13878   0.15902   0.15925   0.18938
  Beta virt. eigenvalues --    0.19939   0.26815   0.27129   0.51316   0.51552
  Beta virt. eigenvalues --    0.57075   0.62102   0.72695   0.76502   0.77818
  Beta virt. eigenvalues --    0.81858   0.83135   0.88320   0.94271   1.06765
  Beta virt. eigenvalues --    1.21861   1.24739   1.25285   1.27393   1.41566
  Beta virt. eigenvalues --    1.44668   1.63591   1.65488   1.89539   1.90497
  Beta virt. eigenvalues --    1.97894   1.99066   2.34061   2.38282   2.38728
  Beta virt. eigenvalues --    2.38733   2.47770   2.49066   2.56001   2.56124
  Beta virt. eigenvalues --    2.63100   2.67601   2.83524   2.94227   3.07663
  Beta virt. eigenvalues --    3.08095   3.83377   3.93784   4.22284   4.29678
  Beta virt. eigenvalues --    4.63447   4.64134  35.50104  35.50568
          Condensed to atoms (all electrons):
               1          2          3          4          5          6
     1  N    6.741677   0.111701   0.330038  -0.007405   0.330038  -0.007406
     2  N    0.111701   6.741632  -0.007408   0.330040  -0.007410   0.330041
     3  H    0.330038  -0.007408   0.465273   0.000932  -0.038588   0.000447
     4  H   -0.007405   0.330040   0.000932   0.465270   0.000447  -0.038589
     5  H    0.330038  -0.007410  -0.038588   0.000447   0.465266   0.000932
     6  H   -0.007406   0.330041   0.000447  -0.038589   0.000932   0.465263
          Atomic-Atomic Spin Densities.
               1          2          3          4          5          6
     1  N    0.000000   0.000000   0.000000  -0.000000   0.000000  -0.000000
     2  N    0.000000  -0.000000   0.000000  -0.000000   0.000000  -0.000000
     3  H    0.000000   0.000000  -0.000000   0.000000   0.000000   0.000000
     4  H   -0.000000  -0.000000   0.000000   0.000000   0.000000  -0.000000
     5  H    0.000000   0.000000   0.000000   0.000000  -0.000000   0.000000
     6  H   -0.000000  -0.000000   0.000000  -0.000000   0.000000   0.000000
 Mulliken charges and spin densities:
               1          2
     1  N   -0.498642   0.000000
     2  N   -0.498596  -0.000000
     3  H    0.249306  -0.000000
     4  H    0.249305   0.000000
     5  H    0.249315  -0.000000
     6  H    0.249312   0.000000
 Sum of Mulliken charges =  -0.00000  -0.00000
 Mulliken charges and spin densities with hydrogens summed into heavy atoms:
               1          2
     1  N   -0.000021   0.000000
     2  N    0.000021  -0.000000
 Electronic spatial extent (au):  <R**2>=            193.8939
 Charge=             -0.0000 electrons
 Dipole moment (field-independent basis, Debye):
    X=             -0.0002    Y=             -0.0002    Z=             -0.0006  Tot=              0.0006
 Quadrupole moment (field-independent basis, Debye-Ang):
   XX=            -15.9480   YY=            -14.2574   ZZ=            -11.4730
   XY=              6.4792   XZ=             -1.6863   YZ=              0.7774
 Traceless Quadrupole moment (field-independent basis, Debye-Ang):
   XX=             -2.0552   YY=             -0.3646   ZZ=              2.4198
   XY=              6.4792   XZ=             -1.6863   YZ=              0.7774
 Octapole moment (field-independent basis, Debye-Ang**2):
  XXX=             -0.0011  YYY=              0.0006  ZZZ=             -0.0004  XYY=              0.0003
  XXY=             -0.0007  XXZ=             -0.0013  XZZ=             -0.0004  YZZ=             -0.0004
  YYZ=              0.0005  XYZ=              0.0006
 Hexadecapole moment (field-independent basis, Debye-Ang**3):
 XXXX=           -232.7653 YYYY=            -22.5422 ZZZZ=            -19.2242 XXXY=             11.7937
 XXXZ=             -3.0691 YYYX=             -1.2792 YYYZ=              1.2310 ZZZX=             -1.5049
 ZZZY=             -0.3046 XXYY=            -39.8162 XXZZ=            -33.4714 YYZZ=             -6.3303
 XXYZ=              1.7716 YYXZ=              1.4253 ZZXY=              1.5852
 N-N= 2.884848883047D+01 E-N=-3.187291225088D+02  KE= 1.111126648940D+02
                          Isotropic Fermi Contact Couplings
        Atom                 a.u.       MegaHertz       Gauss      10(-4) cm-1
     1  N(14)             -0.00000      -0.00000      -0.00000      -0.00000
     2  N(14)              0.00000       0.00000       0.00000       0.00000
     3  H(1)              -0.00000      -0.00000      -0.00000      -0.00000
     4  H(1)               0.00000       0.00000       0.00000       0.00000
     5  H(1)              -0.00000      -0.00000      -0.00000      -0.00000
     6  H(1)               0.00000       0.00000       0.00000       0.00000
 --------------------------------------------------------
       Center         ----  Spin Dipole Couplings  ----
                      3XX-RR        3YY-RR        3ZZ-RR
 --------------------------------------------------------
     1   Atom        0.000000     -0.000000     -0.000000
     2   Atom       -0.000000      0.000000      0.000000
     3   Atom       -0.000000      0.000000     -0.000000
     4   Atom        0.000000      0.000000     -0.000000
     5   Atom       -0.000000     -0.000000      0.000000
     6   Atom        0.000000     -0.000000      0.000000
 --------------------------------------------------------
                        XY            XZ            YZ
 --------------------------------------------------------
     1   Atom        0.000000     -0.000000     -0.000000
     2   Atom       -0.000000      0.000000      0.000000
     3   Atom       -0.000000     -0.000000      0.000000
     4   Atom       -0.000000     -0.000000      0.000000
     5   Atom        0.000000      0.000000     -0.000000
     6   Atom        0.000000      0.000000     -0.000000
 --------------------------------------------------------


 ---------------------------------------------------------------------------------
              Anisotropic Spin Dipole Couplings in Principal Axis System
 ---------------------------------------------------------------------------------

       Atom             a.u.   MegaHertz   Gauss  10(-4) cm-1        Axes

              Baa    -0.0000    -0.000    -0.000    -0.000  0.0002  0.2510  0.9680
     1 N(14)  Bbb    -0.0000    -0.000    -0.000    -0.000 -0.1308  0.9597 -0.2488
              Bcc     0.0000     0.000     0.000     0.000  0.9914  0.1265 -0.0330
 
              Baa    -0.0000    -0.000    -0.000    -0.000  0.9912  0.1278 -0.0333
     2 N(14)  Bbb     0.0000     0.000     0.000     0.000 -0.1320  0.9594 -0.2494
              Bcc     0.0000     0.000     0.000     0.000  0.0001  0.2516  0.9678
 
              Baa    -0.0000    -0.000    -0.000    -0.000  0.1312 -0.6034  0.7866
     3 H(1)   Bbb    -0.0000    -0.000    -0.000    -0.000  0.9845  0.1722 -0.0321
              Bcc     0.0000     0.000     0.000     0.000 -0.1161  0.7787  0.6166
 
              Baa    -0.0000    -0.000    -0.000    -0.000  0.1163 -0.3792  0.9180
     4 H(1)   Bbb     0.0000     0.000     0.000     0.000  0.9844  0.1669 -0.0558
              Bcc     0.0000     0.000     0.000     0.000 -0.1320  0.9101  0.3927
 
              Baa    -0.0000    -0.000    -0.000    -0.000 -0.1311  0.9102  0.3929
     5 H(1)   Bbb    -0.0000    -0.000    -0.000    -0.000  0.9845  0.1660 -0.0560
              Bcc     0.0000     0.000     0.000     0.000  0.1162 -0.3795  0.9179
 
              Baa    -0.0000    -0.000    -0.000    -0.000 -0.1163  0.7788  0.6164
     6 H(1)   Bbb     0.0000     0.000     0.000     0.000  0.9844  0.1729 -0.0327
              Bcc     0.0000     0.000     0.000     0.000  0.1320 -0.6029  0.7868
 

 ---------------------------------------------------------------------------------

 No NMR shielding tensors so no spin-rotation constants.
 Leave Link  601 at Thu May 15 14:48:55 2025, MaxMem=   536870912 cpu:               1.1 elap:               0.1
 (Enter /home/szhao/Apps/g16/l9999.exe)
 1\1\GINC-NODE01\FOpt\UM062X\6-311+G(d,p)\H4N2\SZHAO\15-May-2025\0\\#p 
 opt UM062X/6-311+G** nosymm int=superfine\\Title Card Required\\0,1\N,
 -1.53654,0.,0.\N,1.53654,0.,0.\H,-1.4470136267,-0.8164118051,-0.617378
 3399\H,1.4468905163,0.4118008009,-0.9370641345\H,-1.4469547892,-0.4120
 796166,0.9369490064\H,1.4469019284,0.8165751995,0.6171435402\\Version=
 ES64L-G16RevA.03\HF=-111.6643323\S2=0.\S2-1=0.\S2A=0.\RMSD=4.100e-09\R
 MSF=9.856e-07\Dipole=-0.0000674,-0.0000593,-0.0002217\Quadrupole=-1.52
 79747,-0.2710653,1.79904,4.8171042,-1.2537549,0.5779698\PG=C01 [X(H4N2
 )]\\@


 If your ship doesn't come in, swim out to it!
                          -- Jonathan Winters
 Job cpu time:       0 days  0 hours  8 minutes 55.2 seconds.
 Elapsed time:       0 days  0 hours  1 minutes  8.8 seconds.
 File lengths (MBytes):  RWF=     10 Int=      0 D2E=      0 Chk=      2 Scr=      1
 Normal termination of Gaussian 16 at Thu May 15 14:48:55 2025.
