 Entering Gaussian System, Link 0=g16
 Initial command:
 /home/szhao/Apps/g16/l1.exe "/home/szhao/tmp/Gau-67275.inp" -scrdir="/home/szhao/tmp/"
 Default is to use a total of  16 processors:
                               16 via shared-memory
                                1 via Linda
 Entering Link 1 = /home/szhao/Apps/g16/l1.exe PID=     67282.
  
 Copyright (c) 1988,1990,1992,1993,1995,1998,2003,2009,2016,
            Gaussian, Inc.  All Rights Reserved.
  
 This is part of the Gaussian(R) 16 program.  It is based on
 the Gaussian(R) 09 system (copyright 2009, Gaussian, Inc.),
 the Gaussian(R) 03 system (copyright 2003, Gaussian, Inc.),
 the Gaussian(R) 98 system (copyright 1998, Gaussian, Inc.),
 the Gaussian(R) 94 system (copyright 1995, Gaussian, Inc.),
 the Gaussian 92(TM) system (copyright 1992, Gaussian, Inc.),
 the Gaussian 90(TM) system (copyright 1990, Gaussian, Inc.),
 the Gaussian 88(TM) system (copyright 1988, Gaussian, Inc.),
 the Gaussian 86(TM) system (copyright 1986, Carnegie Mellon
 University), and the Gaussian 82(TM) system (copyright 1983,
 Carnegie Mellon University). Gaussian is a federally registered
 trademark of Gaussian, Inc.
  
 This software contains proprietary and confidential information,
 including trade secrets, belonging to Gaussian, Inc.
  
 This software is provided under written license and may be
 used, copied, transmitted, or stored only in accord with that
 written license.
  
 The following legend is applicable only to US Government
 contracts under FAR:
  
                    RESTRICTED RIGHTS LEGEND
  
 Use, reproduction and disclosure by the US Government is
 subject to restrictions as set forth in subparagraphs (a)
 and (c) of the Commercial Computer Software - Restricted
 Rights clause in FAR 52.227-19.
  
 Gaussian, Inc.
 340 Quinnipiac St., Bldg. 40, Wallingford CT 06492
  
  
 ---------------------------------------------------------------
 Warning -- This program may not be used in any manner that
 competes with the business of Gaussian, Inc. or will provide
 assistance to any competitor of Gaussian, Inc.  The licensee
 of this program is prohibited from giving any competitor of
 Gaussian, Inc. access to this program.  By using this program,
 the user acknowledges that Gaussian, Inc. is engaged in the
 business of creating and licensing software in the field of
 computational chemistry and represents and warrants to the
 licensee that it is not a competitor of Gaussian, Inc. and that
 it will not use this program in any manner prohibited above.
 ---------------------------------------------------------------
  

 Cite this work as:
 Gaussian 16, Revision A.03,
 M. J. Frisch, G. W. Trucks, H. B. Schlegel, G. E. Scuseria, 
 M. A. Robb, J. R. Cheeseman, G. Scalmani, V. Barone, 
 G. A. Petersson, H. Nakatsuji, X. Li, M. Caricato, A. V. Marenich, 
 J. Bloino, B. G. Janesko, R. Gomperts, B. Mennucci, H. P. Hratchian, 
 J. V. Ortiz, A. F. Izmaylov, J. L. Sonnenberg, D. Williams-Young, 
 F. Ding, F. Lipparini, F. Egidi, J. Goings, B. Peng, A. Petrone, 
 T. Henderson, D. Ranasinghe, V. G. Zakrzewski, J. Gao, N. Rega, 
 G. Zheng, W. Liang, M. Hada, M. Ehara, K. Toyota, R. Fukuda, 
 J. Hasegawa, M. Ishida, T. Nakajima, Y. Honda, O. Kitao, H. Nakai, 
 T. Vreven, K. Throssell, J. A. Montgomery, Jr., J. E. Peralta, 
 F. Ogliaro, M. J. Bearpark, J. J. Heyd, E. N. Brothers, K. N. Kudin, 
 V. N. Staroverov, T. A. Keith, R. Kobayashi, J. Normand, 
 K. Raghavachari, A. P. Rendell, J. C. Burant, S. S. Iyengar, 
 J. Tomasi, M. Cossi, J. M. Millam, M. Klene, C. Adamo, R. Cammi, 
 J. W. Ochterski, R. L. Martin, K. Morokuma, O. Farkas, 
 J. B. Foresman, and D. J. Fox, Gaussian, Inc., Wallingford CT, 2016.
 
 ******************************************
 Gaussian 16:  ES64L-G16RevA.03 25-Dec-2016
                21-Apr-2025 
 ******************************************
 %chk=opt.chk
 %mem=4GB
 %nprocshared=8
 Will use up to    8 processors via shared memory.
 --------------------------------------------
 #p opt UM062X/6-311+G** nosymm int=superfine
 --------------------------------------------
 1/18=20,19=15,26=5,38=1/1,3;
 2/9=110,12=2,15=1,17=6,18=5,40=1/2;
 3/5=4,6=6,7=111,11=2,25=1,30=1,71=1,74=-55,75=-7,116=2/1,2,3;
 4//1;
 5/5=2,38=5/2;
 6/7=2,8=2,9=2,10=2,28=1/1;
 7/30=1/1,2,3,16;
 1/18=20,19=15,26=5/3(2);
 2/9=110,15=1/2;
 99//99;
 2/9=110,15=1/2;
 3/5=4,6=6,7=111,11=2,25=1,30=1,71=1,74=-55,75=-7,116=2/1,2,3;
 4/5=5,16=3,69=1/1;
 5/5=2,38=5/2;
 7/30=1/1,2,3,16;
 1/18=20,19=15,26=5/3(-5);
 2/9=110,15=1/2;
 6/7=2,8=2,9=2,10=2,19=2,28=1/1;
 99/9=1/99;
 Leave Link    1 at Mon Apr 21 19:27:55 2025, MaxMem=   536870912 cpu:               0.6 elap:               0.1
 (Enter /home/szhao/Apps/g16/l101.exe)
 -------------------
 Title Card Required
 -------------------
 Symbolic Z-matrix:
 Charge =  0 Multiplicity = 1
 C                    -1   -0.93522   0.        0. 
 S                    -1    0.93522   0.        0. 
 H                    0     1.08977  -1.33223   0. 
 H                    0    -1.23939   1.04536   0.00292 
 H                    0    -1.33023  -0.47662  -0.89491 
 H                    0    -1.33015  -0.48142   0.89237 
 
 ITRead=  2  2  0  0  0  0
 MicOpt= -2 -2 -1 -1 -1 -1
 NAtoms=      6 NQM=        4 NQMF=       2 NMMI=      0 NMMIF=      0
                NMic=       0 NMicF=      0.
                    Isotopes and Nuclear Properties:
 (Nuclear quadrupole moments (NQMom) in fm**2, nuclear magnetic moments (NMagM)
  in nuclear magnetons)

  Atom         1           2           3           4           5           6
 IAtWgt=          12          32           1           1           1           1
 AtmWgt=  12.0000000  31.9720718   1.0078250   1.0078250   1.0078250   1.0078250
 NucSpn=           0           0           1           1           1           1
 AtZEff=  -0.0000000  -0.0000000  -0.0000000  -0.0000000  -0.0000000  -0.0000000
 NQMom=    0.0000000   0.0000000   0.0000000   0.0000000   0.0000000   0.0000000
 NMagM=    0.0000000   0.0000000   2.7928460   2.7928460   2.7928460   2.7928460
 AtZNuc=   6.0000000  16.0000000   1.0000000   1.0000000   1.0000000   1.0000000
 Leave Link  101 at Mon Apr 21 19:27:56 2025, MaxMem=   536870912 cpu:               3.9 elap:               0.5
 (Enter /home/szhao/Apps/g16/l103.exe)

 GradGradGradGradGradGradGradGradGradGradGradGradGradGradGradGradGradGrad
 Berny optimization.
 Initialization pass.
                           ----------------------------
                           !    Initial Parameters    !
                           ! (Angstroms and Degrees)  !
 --------------------------                            --------------------------
 ! Name  Definition              Value          Derivative Info.                !
 --------------------------------------------------------------------------------
 ! X1    R(1,-1)                -0.9352         Frozen                          !
 ! Y1    R(1,-2)                 0.0            Frozen                          !
 ! Z1    R(1,-3)                 0.0            Frozen                          !
 ! X2    R(2,-1)                 0.9352         Frozen                          !
 ! Y2    R(2,-2)                 0.0            Frozen                          !
 ! Z2    R(2,-3)                 0.0            Frozen                          !
 ! R1    R(1,4)                  1.0887         estimate D2E/DX2                !
 ! R2    R(1,5)                  1.0881         estimate D2E/DX2                !
 ! R3    R(1,6)                  1.0881         estimate D2E/DX2                !
 ! R4    R(2,3)                  1.3412         estimate D2E/DX2                !
 ! A1    A(2,1,4)              106.2234         estimate D2E/DX2                !
 ! A2    A(2,1,5)              111.2854         estimate D2E/DX2                !
 ! A3    A(2,1,6)              111.2806         estimate D2E/DX2                !
 ! A4    A(4,1,5)              108.7444         estimate D2E/DX2                !
 ! A5    A(4,1,6)              108.7362         estimate D2E/DX2                !
 ! A6    A(5,1,6)              110.4209         estimate D2E/DX2                !
 ! A7    A(1,2,3)               96.6171         estimate D2E/DX2                !
 ! D1    D(4,1,2,3)            179.8401         estimate D2E/DX2                !
 ! D2    D(5,1,2,3)            -61.9609         estimate D2E/DX2                !
 ! D3    D(6,1,2,3)             61.6537         estimate D2E/DX2                !
 --------------------------------------------------------------------------------
 Trust Radius=3.00D-01 FncErr=1.00D-07 GrdErr=1.00D-07 EigMax=2.50D+02 EigMin=1.00D-04
 Number of steps in this run=     30 maximum allowed number of steps=    100.
 GradGradGradGradGradGradGradGradGradGradGradGradGradGradGradGradGradGrad

 Leave Link  103 at Mon Apr 21 19:27:57 2025, MaxMem=   536870912 cpu:               0.3 elap:               0.1
 (Enter /home/szhao/Apps/g16/l202.exe)
                          Input orientation:                          
 ---------------------------------------------------------------------
 Center     Atomic      Atomic             Coordinates (Angstroms)
 Number     Number       Type             X           Y           Z
 ---------------------------------------------------------------------
      1          6           0       -0.935220    0.000000    0.000000
      2         16           0        0.935220    0.000000    0.000000
      3          1           0        1.089766   -1.332230    0.000000
      4          1           0       -1.239389    1.045359    0.002916
      5          1           0       -1.330230   -0.476615   -0.894907
      6          1           0       -1.330145   -0.481421    0.892366
 ---------------------------------------------------------------------
                    Distance matrix (angstroms):
                    1          2          3          4          5
     1  C    0.000000
     2  S    1.870439   0.000000
     3  H    2.423923   1.341164   0.000000
     4  H    1.088716   2.412821   3.328348   0.000000
     5  H    1.088142   2.481992   2.718330   1.769391   0.000000
     6  H    1.088140   2.481927   2.715909   1.769298   1.787279
                    6
     6  H    0.000000
 Symmetry turned off by external request.
 Stoichiometry    CH4S
 Framework group  C1[X(CH4S)]
 Deg. of freedom    12
 Full point group                 C1      NOp   1
 Rotational constants (GHZ):         103.1837974          12.2720443          11.7914428
 Leave Link  202 at Mon Apr 21 19:27:58 2025, MaxMem=   536870912 cpu:               0.3 elap:               0.1
 (Enter /home/szhao/Apps/g16/l301.exe)
 Standard basis: 6-311+G(d,p) (5D, 7F)
 Ernie: Thresh=  0.10000D-02 Tol=  0.10000D-05 Strict=F.
    76 basis functions,   118 primitive gaussians,    78 cartesian basis functions
    13 alpha electrons       13 beta electrons
       nuclear repulsion energy        55.3095205991 Hartrees.
 IExCor= 4336 DFT=T Ex+Corr=M062X ExCW=0 ScaHFX=  0.540000
 ScaDFX=  1.000000  1.000000  1.000000  1.000000 ScalE2=  1.000000  1.000000
 IRadAn=      7 IRanWt=     -1 IRanGd=            0 ICorTp=0 IEmpDi=  4
 NAtoms=    6 NActive=    6 NUniq=    6 SFac= 1.00D+00 NAtFMM=   60 NAOKFM=F Big=F
 Integral buffers will be    131072 words long.
 Raffenetti 2 integral format.
 Two-electron integral symmetry is turned off.
 Leave Link  301 at Mon Apr 21 19:27:58 2025, MaxMem=   536870912 cpu:               2.8 elap:               0.4
 (Enter /home/szhao/Apps/g16/l302.exe)
 NPDir=0 NMtPBC=     1 NCelOv=     1 NCel=       1 NClECP=     1 NCelD=      1
         NCelK=      1 NCelE2=     1 NClLst=     1 CellRange=     0.0.
 One-electron integrals computed using PRISM.
 NBasis=    76 RedAO= T EigKep=  6.24D-04  NBF=    76
 NBsUse=    76 1.00D-06 EigRej= -1.00D+00 NBFU=    76
 Precomputing XC quadrature grid using
 IXCGrd= 4 IRadAn=           7 IRanWt=          -1 IRanGd=           0 AccXCQ= 0.00D+00.
 Generated NRdTot=       0 NPtTot=           0 NUsed=           0 NTot=          32
 NSgBfM=    78    78    78    78    78 MxSgAt=     6 MxSgA2=     6.
 Leave Link  302 at Mon Apr 21 19:27:59 2025, MaxMem=   536870912 cpu:               1.9 elap:               0.3
 (Enter /home/szhao/Apps/g16/l303.exe)
 DipDrv:  MaxL=1.
 Leave Link  303 at Mon Apr 21 19:28:00 2025, MaxMem=   536870912 cpu:               1.0 elap:               0.3
 (Enter /home/szhao/Apps/g16/l401.exe)
 ExpMin= 4.05D-02 ExpMax= 9.34D+04 ExpMxC= 3.17D+03 IAcc=3 IRadAn=         7 AccDes= 0.00D+00
 Harris functional with IExCor= 1009 and IRadAn=       7 diagonalized for initial guess.
 HarFok:  IExCor= 1009 AccDes= 0.00D+00 IRadAn=         7 IDoV= 1 UseB2=F ITyADJ=14
 ICtDFT=  3500011 ScaDFX=  1.000000  1.000000  1.000000  1.000000
 FoFCou: FMM=F IPFlag=           0 FMFlag=      100000 FMFlg1=           0
         NFxFlg=           0 DoJE=T BraDBF=F KetDBF=T FulRan=T
         wScrn=  0.000000 ICntrl=       500 IOpCl=  0 I1Cent=   200000004 NGrid=           0
         NMat0=    1 NMatS0=      1 NMatT0=    0 NMatD0=    1 NMtDS0=    0 NMtDT0=    0
 Symmetry not used in FoFCou.
 Harris En= -438.490832775021    
 JPrj=0 DoOrth=F DoCkMO=F.
 Initial guess <Sx>= 0.0000 <Sy>= 0.0000 <Sz>= 0.0000 <S**2>=-0.0000 S=-0.0000
 Leave Link  401 at Mon Apr 21 19:28:01 2025, MaxMem=   536870912 cpu:               6.0 elap:               0.9
 (Enter /home/szhao/Apps/g16/l502.exe)
 Keep R1 and R2 ints in memory in canonical form, NReq=15806772.
 FoFCou: FMM=F IPFlag=           0 FMFlag=           0 FMFlg1=           0
         NFxFlg=           0 DoJE=F BraDBF=F KetDBF=F FulRan=T
         wScrn=  0.000000 ICntrl=       600 IOpCl=  0 I1Cent=           0 NGrid=           0
         NMat0=    1 NMatS0=   2926 NMatT0=    0 NMatD0=    1 NMtDS0=    0 NMtDT0=    0
 Symmetry not used in FoFCou.
 Two-electron integral symmetry not used.
 UHF open shell SCF:
 Using DIIS extrapolation, IDIIS=  1040.
 NGot=   536870912 LenX=   528292970 LenY=   528286445
 Requested convergence on RMS density matrix=1.00D-08 within 128 cycles.
 Requested convergence on MAX density matrix=1.00D-06.
 Requested convergence on             energy=1.00D-06.
 No special actions if energy rises.

 Cycle   1  Pass 1  IDiag  1:
 E= -438.604916750217    
 DIIS: error= 2.96D-02 at cycle   1 NSaved=   1.
 NSaved= 1 IEnMin= 1 EnMin= -438.604916750217     IErMin= 1 ErrMin= 2.96D-02
 ErrMax= 2.96D-02  0.00D+00 EMaxC= 1.00D-01 BMatC= 4.02D-01 BMatP= 4.02D-01
 IDIUse=3 WtCom= 7.04D-01 WtEn= 2.96D-01
 Coeff-Com:  0.100D+01
 Coeff-En:   0.100D+01
 Coeff:      0.100D+01
 Gap=     0.385 Goal=   None    Shift=    0.000
 Gap=     0.385 Goal=   None    Shift=    0.000
 GapD=    0.385 DampG=1.000 DampE=0.500 DampFc=0.5000 IDamp=-1.
 Damping current iteration by 5.00D-01
 RMSDP=4.15D-03 MaxDP=1.08D-01              OVMax= 1.57D-01

 Cycle   2  Pass 1  IDiag  1:
 E= -438.639847580714     Delta-E=       -0.034930830497 Rises=F Damp=T
 DIIS: error= 7.23D-03 at cycle   2 NSaved=   2.
 NSaved= 2 IEnMin= 2 EnMin= -438.639847580714     IErMin= 2 ErrMin= 7.23D-03
 ErrMax= 7.23D-03  0.00D+00 EMaxC= 1.00D-01 BMatC= 2.99D-02 BMatP= 4.02D-01
 IDIUse=3 WtCom= 9.28D-01 WtEn= 7.23D-02
 Coeff-Com: -0.126D+00 0.113D+01
 Coeff-En:   0.000D+00 0.100D+01
 Coeff:     -0.117D+00 0.112D+01
 Gap=     0.315 Goal=   None    Shift=    0.000
 Gap=     0.315 Goal=   None    Shift=    0.000
 RMSDP=1.05D-03 MaxDP=1.72D-02 DE=-3.49D-02 OVMax= 7.73D-02

 Cycle   3  Pass 1  IDiag  1:
 E= -438.672973974175     Delta-E=       -0.033126393461 Rises=F Damp=F
 DIIS: error= 3.94D-03 at cycle   3 NSaved=   3.
 NSaved= 3 IEnMin= 3 EnMin= -438.672973974175     IErMin= 3 ErrMin= 3.94D-03
 ErrMax= 3.94D-03  0.00D+00 EMaxC= 1.00D-01 BMatC= 4.70D-03 BMatP= 2.99D-02
 IDIUse=3 WtCom= 9.61D-01 WtEn= 3.94D-02
 Coeff-Com: -0.969D-01 0.304D+00 0.793D+00
 Coeff-En:   0.000D+00 0.000D+00 0.100D+01
 Coeff:     -0.931D-01 0.292D+00 0.801D+00
 Gap=     0.310 Goal=   None    Shift=    0.000
 Gap=     0.310 Goal=   None    Shift=    0.000
 RMSDP=4.97D-04 MaxDP=1.11D-02 DE=-3.31D-02 OVMax= 1.58D-02

 Cycle   4  Pass 1  IDiag  1:
 E= -438.674190169840     Delta-E=       -0.001216195665 Rises=F Damp=F
 DIIS: error= 7.34D-04 at cycle   4 NSaved=   4.
 NSaved= 4 IEnMin= 4 EnMin= -438.674190169840     IErMin= 4 ErrMin= 7.34D-04
 ErrMax= 7.34D-04  0.00D+00 EMaxC= 1.00D-01 BMatC= 1.45D-04 BMatP= 4.70D-03
 IDIUse=3 WtCom= 9.93D-01 WtEn= 7.34D-03
 Coeff-Com: -0.654D-02 0.194D-01 0.173D+00 0.815D+00
 Coeff-En:   0.000D+00 0.000D+00 0.000D+00 0.100D+01
 Coeff:     -0.649D-02 0.193D-01 0.171D+00 0.816D+00
 Gap=     0.308 Goal=   None    Shift=    0.000
 Gap=     0.308 Goal=   None    Shift=    0.000
 RMSDP=9.14D-05 MaxDP=1.87D-03 DE=-1.22D-03 OVMax= 2.20D-03

 Cycle   5  Pass 1  IDiag  1:
 E= -438.674227530335     Delta-E=       -0.000037360494 Rises=F Damp=F
 DIIS: error= 8.38D-05 at cycle   5 NSaved=   5.
 NSaved= 5 IEnMin= 5 EnMin= -438.674227530335     IErMin= 5 ErrMin= 8.38D-05
 ErrMax= 8.38D-05  0.00D+00 EMaxC= 1.00D-01 BMatC= 4.21D-06 BMatP= 1.45D-04
 IDIUse=1 WtCom= 1.00D+00 WtEn= 0.00D+00
 Coeff-Com:  0.903D-03-0.397D-02 0.305D-01 0.207D+00 0.766D+00
 Coeff:      0.903D-03-0.397D-02 0.305D-01 0.207D+00 0.766D+00
 Gap=     0.308 Goal=   None    Shift=    0.000
 Gap=     0.308 Goal=   None    Shift=    0.000
 RMSDP=1.48D-05 MaxDP=4.72D-04 DE=-3.74D-05 OVMax= 3.49D-04

 Cycle   6  Pass 1  IDiag  1:
 E= -438.674228325275     Delta-E=       -0.000000794941 Rises=F Damp=F
 DIIS: error= 1.66D-05 at cycle   6 NSaved=   6.
 NSaved= 6 IEnMin= 6 EnMin= -438.674228325275     IErMin= 6 ErrMin= 1.66D-05
 ErrMax= 1.66D-05  0.00D+00 EMaxC= 1.00D-01 BMatC= 1.24D-07 BMatP= 4.21D-06
 IDIUse=1 WtCom= 1.00D+00 WtEn= 0.00D+00
 Coeff-Com:  0.573D-03-0.131D-02-0.679D-02-0.300D-01 0.314D-01 0.101D+01
 Coeff:      0.573D-03-0.131D-02-0.679D-02-0.300D-01 0.314D-01 0.101D+01
 Gap=     0.308 Goal=   None    Shift=    0.000
 Gap=     0.308 Goal=   None    Shift=    0.000
 RMSDP=5.05D-06 MaxDP=1.23D-04 DE=-7.95D-07 OVMax= 1.35D-04

 Cycle   7  Pass 1  IDiag  1:
 E= -438.674228373070     Delta-E=       -0.000000047794 Rises=F Damp=F
 DIIS: error= 5.81D-06 at cycle   7 NSaved=   7.
 NSaved= 7 IEnMin= 7 EnMin= -438.674228373070     IErMin= 7 ErrMin= 5.81D-06
 ErrMax= 5.81D-06  0.00D+00 EMaxC= 1.00D-01 BMatC= 1.83D-08 BMatP= 1.24D-07
 IDIUse=1 WtCom= 1.00D+00 WtEn= 0.00D+00
 Coeff-Com:  0.190D-04 0.183D-04-0.309D-02-0.201D-01-0.470D-01 0.303D+00
 Coeff-Com:  0.767D+00
 Coeff:      0.190D-04 0.183D-04-0.309D-02-0.201D-01-0.470D-01 0.303D+00
 Coeff:      0.767D+00
 Gap=     0.308 Goal=   None    Shift=    0.000
 Gap=     0.308 Goal=   None    Shift=    0.000
 RMSDP=1.22D-06 MaxDP=3.52D-05 DE=-4.78D-08 OVMax= 3.64D-05

 Cycle   8  Pass 1  IDiag  1:
 E= -438.674228378396     Delta-E=       -0.000000005327 Rises=F Damp=F
 DIIS: error= 1.08D-06 at cycle   8 NSaved=   8.
 NSaved= 8 IEnMin= 8 EnMin= -438.674228378396     IErMin= 8 ErrMin= 1.08D-06
 ErrMax= 1.08D-06  0.00D+00 EMaxC= 1.00D-01 BMatC= 2.72D-10 BMatP= 1.83D-08
 IDIUse=1 WtCom= 1.00D+00 WtEn= 0.00D+00
 Coeff-Com: -0.149D-04 0.378D-04 0.503D-04 0.201D-03-0.214D-02-0.298D-01
 Coeff-Com:  0.570D-01 0.975D+00
 Coeff:     -0.149D-04 0.378D-04 0.503D-04 0.201D-03-0.214D-02-0.298D-01
 Coeff:      0.570D-01 0.975D+00
 Gap=     0.308 Goal=   None    Shift=    0.000
 Gap=     0.308 Goal=   None    Shift=    0.000
 RMSDP=2.16D-07 MaxDP=3.34D-06 DE=-5.33D-09 OVMax= 6.19D-06

 Cycle   9  Pass 1  IDiag  1:
 E= -438.674228378514     Delta-E=       -0.000000000117 Rises=F Damp=F
 DIIS: error= 3.53D-07 at cycle   9 NSaved=   9.
 NSaved= 9 IEnMin= 9 EnMin= -438.674228378514     IErMin= 9 ErrMin= 3.53D-07
 ErrMax= 3.53D-07  0.00D+00 EMaxC= 1.00D-01 BMatC= 2.24D-11 BMatP= 2.72D-10
 IDIUse=1 WtCom= 1.00D+00 WtEn= 0.00D+00
 Coeff-Com: -0.452D-05 0.915D-05 0.145D-03 0.879D-03 0.122D-02-0.209D-01
 Coeff-Com: -0.127D-01 0.279D+00 0.752D+00
 Coeff:     -0.452D-05 0.915D-05 0.145D-03 0.879D-03 0.122D-02-0.209D-01
 Coeff:     -0.127D-01 0.279D+00 0.752D+00
 Gap=     0.308 Goal=   None    Shift=    0.000
 Gap=     0.308 Goal=   None    Shift=    0.000
 RMSDP=4.32D-08 MaxDP=5.24D-07 DE=-1.17D-10 OVMax= 1.00D-06

 Cycle  10  Pass 1  IDiag  1:
 E= -438.674228378520     Delta-E=       -0.000000000007 Rises=F Damp=F
 DIIS: error= 2.75D-08 at cycle  10 NSaved=  10.
 NSaved=10 IEnMin=10 EnMin= -438.674228378520     IErMin=10 ErrMin= 2.75D-08
 ErrMax= 2.75D-08  0.00D+00 EMaxC= 1.00D-01 BMatC= 3.14D-13 BMatP= 2.24D-11
 IDIUse=1 WtCom= 1.00D+00 WtEn= 0.00D+00
 Coeff-Com:  0.112D-05-0.238D-05-0.118D-05-0.750D-05 0.214D-04 0.128D-02
 Coeff-Com: -0.292D-02-0.408D-01-0.213D-01 0.106D+01
 Coeff:      0.112D-05-0.238D-05-0.118D-05-0.750D-05 0.214D-04 0.128D-02
 Coeff:     -0.292D-02-0.408D-01-0.213D-01 0.106D+01
 Gap=     0.308 Goal=   None    Shift=    0.000
 Gap=     0.308 Goal=   None    Shift=    0.000
 RMSDP=1.00D-08 MaxDP=1.39D-07 DE=-6.82D-12 OVMax= 2.38D-07

 Cycle  11  Pass 1  IDiag  1:
 E= -438.674228378520     Delta-E=        0.000000000000 Rises=F Damp=F
 DIIS: error= 2.80D-09 at cycle  11 NSaved=  11.
 NSaved=11 IEnMin=10 EnMin= -438.674228378520     IErMin=11 ErrMin= 2.80D-09
 ErrMax= 2.80D-09  0.00D+00 EMaxC= 1.00D-01 BMatC= 3.23D-15 BMatP= 3.14D-13
 IDIUse=1 WtCom= 1.00D+00 WtEn= 0.00D+00
 Coeff-Com: -0.711D-07 0.117D-06-0.977D-06-0.502D-05-0.319D-05 0.102D-03
 Coeff-Com:  0.107D-03 0.262D-03-0.612D-02-0.725D-01 0.108D+01
 Coeff:     -0.711D-07 0.117D-06-0.977D-06-0.502D-05-0.319D-05 0.102D-03
 Coeff:      0.107D-03 0.262D-03-0.612D-02-0.725D-01 0.108D+01
 Gap=     0.308 Goal=   None    Shift=    0.000
 Gap=     0.308 Goal=   None    Shift=    0.000
 RMSDP=1.21D-09 MaxDP=1.40D-08 DE= 3.98D-13 OVMax= 2.97D-08

 SCF Done:  E(UM062X) =  -438.674228379     A.U. after   11 cycles
            NFock= 11  Conv=0.12D-08     -V/T= 2.0016
 <Sx>= 0.0000 <Sy>= 0.0000 <Sz>= 0.0000 <S**2>=-0.0000 S=-0.0000
 <L.S>=  0.00000000000    
 KE= 4.379624487129D+02 PE=-1.151391553858D+03 EE= 2.194453561676D+02
 Annihilation of the first spin contaminant:
 S**2 before annihilation    -0.0000,   after    -0.0000
 Leave Link  502 at Mon Apr 21 19:28:19 2025, MaxMem=   536870912 cpu:             135.6 elap:              17.8
 (Enter /home/szhao/Apps/g16/l601.exe)
 Copying SCF densities to generalized density rwf, IOpCl= 1 IROHF=0.

 **********************************************************************

            Population analysis using the SCF density.

 **********************************************************************

 Alpha  occ. eigenvalues --  -89.89148 -10.57036  -8.25690  -6.17830  -6.17616
 Alpha  occ. eigenvalues --   -6.17176  -0.86635  -0.73562  -0.51411  -0.49835
 Alpha  occ. eigenvalues --   -0.44991  -0.39078  -0.29626
 Alpha virt. eigenvalues --    0.01170   0.03164   0.04756   0.05328   0.06948
 Alpha virt. eigenvalues --    0.08119   0.08846   0.09422   0.12719   0.14135
 Alpha virt. eigenvalues --    0.17807   0.17958   0.26127   0.33123   0.34795
 Alpha virt. eigenvalues --    0.36454   0.40458   0.42521   0.45431   0.51646
 Alpha virt. eigenvalues --    0.61242   0.63680   0.64824   0.73988   0.77751
 Alpha virt. eigenvalues --    0.78366   0.84112   0.86206   0.99993   1.03991
 Alpha virt. eigenvalues --    1.14448   1.14501   1.47839   1.48674   1.50645
 Alpha virt. eigenvalues --    1.57383   1.60748   1.64245   1.65679   1.65729
 Alpha virt. eigenvalues --    1.81779   1.81944   1.90315   2.02714   2.13615
 Alpha virt. eigenvalues --    2.20210   2.22755   2.45829   2.49516   2.51338
 Alpha virt. eigenvalues --    2.55046   2.55424   2.64040   2.83270   3.16173
 Alpha virt. eigenvalues --    3.76064   3.77436   7.97758  17.49843  17.54958
 Alpha virt. eigenvalues --   17.59792  23.97524 189.24973
  Beta  occ. eigenvalues --  -89.89148 -10.57036  -8.25690  -6.17830  -6.17616
  Beta  occ. eigenvalues --   -6.17176  -0.86635  -0.73562  -0.51411  -0.49835
  Beta  occ. eigenvalues --   -0.44991  -0.39078  -0.29626
  Beta virt. eigenvalues --    0.01170   0.03164   0.04756   0.05328   0.06948
  Beta virt. eigenvalues --    0.08119   0.08846   0.09422   0.12719   0.14135
  Beta virt. eigenvalues --    0.17807   0.17958   0.26127   0.33123   0.34795
  Beta virt. eigenvalues --    0.36454   0.40458   0.42521   0.45431   0.51646
  Beta virt. eigenvalues --    0.61242   0.63680   0.64824   0.73988   0.77751
  Beta virt. eigenvalues --    0.78366   0.84112   0.86206   0.99993   1.03991
  Beta virt. eigenvalues --    1.14448   1.14501   1.47839   1.48674   1.50645
  Beta virt. eigenvalues --    1.57383   1.60748   1.64245   1.65679   1.65729
  Beta virt. eigenvalues --    1.81779   1.81944   1.90315   2.02714   2.13615
  Beta virt. eigenvalues --    2.20210   2.22755   2.45829   2.49516   2.51338
  Beta virt. eigenvalues --    2.55046   2.55424   2.64040   2.83270   3.16173
  Beta virt. eigenvalues --    3.76064   3.77436   7.97758  17.49843  17.54958
  Beta virt. eigenvalues --   17.59792  23.97524 189.24973
          Condensed to atoms (all electrons):
               1          2          3          4          5          6
     1  C    5.256217   0.175304  -0.009855   0.406021   0.393934   0.394050
     2  S    0.175304  15.725792   0.261202  -0.044576  -0.046545  -0.046464
     3  H   -0.009855   0.261202   0.689326   0.005127  -0.005223  -0.005264
     4  H    0.406021  -0.044576   0.005127   0.492725  -0.025467  -0.025383
     5  H    0.393934  -0.046545  -0.005223  -0.025467   0.526034  -0.034843
     6  H    0.394050  -0.046464  -0.005264  -0.025383  -0.034843   0.525869
          Atomic-Atomic Spin Densities.
               1          2          3          4          5          6
     1  C   -0.000000  -0.000000   0.000000   0.000000  -0.000000  -0.000000
     2  S   -0.000000   0.000000  -0.000000   0.000000   0.000000   0.000000
     3  H    0.000000  -0.000000  -0.000000  -0.000000  -0.000000  -0.000000
     4  H    0.000000   0.000000  -0.000000  -0.000000   0.000000   0.000000
     5  H   -0.000000   0.000000  -0.000000   0.000000  -0.000000   0.000000
     6  H   -0.000000   0.000000  -0.000000   0.000000   0.000000   0.000000
 Mulliken charges and spin densities:
               1          2
     1  C   -0.615671  -0.000000
     2  S   -0.024712   0.000000
     3  H    0.064687  -0.000000
     4  H    0.191552   0.000000
     5  H    0.192109  -0.000000
     6  H    0.192035   0.000000
 Sum of Mulliken charges =  -0.00000  -0.00000
 Mulliken charges and spin densities with hydrogens summed into heavy atoms:
               1          2
     1  C   -0.039974  -0.000000
     2  S    0.039974   0.000000
 Electronic spatial extent (au):  <R**2>=            155.7792
 Charge=              0.0000 electrons
 Dipole moment (field-independent basis, Debye):
    X=             -1.4927    Y=             -0.9260    Z=              0.0003  Tot=              1.7566
 Quadrupole moment (field-independent basis, Debye-Ang):
   XX=            -21.1691   YY=            -19.2615   ZZ=            -22.9450
   XY=             -1.6119   XZ=             -0.0005   YZ=              0.0001
 Traceless Quadrupole moment (field-independent basis, Debye-Ang):
   XX=             -0.0439   YY=              1.8637   ZZ=             -1.8198
   XY=             -1.6119   XZ=             -0.0005   YZ=              0.0001
 Octapole moment (field-independent basis, Debye-Ang**2):
  XXX=            -15.8905  YYY=              1.8204  ZZZ=             -0.0074  XYY=             -4.5931
  XXY=             -1.3111  XXZ=              0.0005  XZZ=             -8.6376  YZZ=             -0.0868
  YYZ=              0.0068  XYZ=              0.0002
 Hexadecapole moment (field-independent basis, Debye-Ang**3):
 XXXX=           -149.7130 YYYY=            -35.5119 ZZZZ=            -38.4863 XXXY=             -0.4057
 XXXZ=              0.0001 YYYX=             -0.7214 YYYZ=              0.0012 ZZZX=              0.0082
 ZZZY=             -0.0007 XXYY=            -29.4867 XXZZ=            -33.2270 YYZZ=            -12.9606
 XXYZ=             -0.0002 YYXZ=             -0.0090 ZZXY=              1.7009
 N-N= 5.530952059907D+01 E-N=-1.151391553904D+03  KE= 4.379624487129D+02
                          Isotropic Fermi Contact Couplings
        Atom                 a.u.       MegaHertz       Gauss      10(-4) cm-1
     1  C(13)             -0.00000      -0.00000      -0.00000      -0.00000
     2  S(33)              0.00000       0.00000       0.00000       0.00000
     3  H(1)              -0.00000      -0.00000      -0.00000      -0.00000
     4  H(1)              -0.00000      -0.00000      -0.00000      -0.00000
     5  H(1)              -0.00000      -0.00000      -0.00000      -0.00000
     6  H(1)              -0.00000      -0.00000      -0.00000      -0.00000
 --------------------------------------------------------
       Center         ----  Spin Dipole Couplings  ----
                      3XX-RR        3YY-RR        3ZZ-RR
 --------------------------------------------------------
     1   Atom        0.000000      0.000000      0.000000
     2   Atom        0.000000      0.000000      0.000000
     3   Atom        0.000000      0.000000      0.000000
     4   Atom        0.000000      0.000000      0.000000
     5   Atom        0.000000      0.000000      0.000000
     6   Atom        0.000000      0.000000      0.000000
 --------------------------------------------------------
                        XY            XZ            YZ
 --------------------------------------------------------
     1   Atom        0.000000      0.000000      0.000000
     2   Atom        0.000000      0.000000      0.000000
     3   Atom        0.000000      0.000000      0.000000
     4   Atom        0.000000      0.000000      0.000000
     5   Atom        0.000000      0.000000      0.000000
     6   Atom        0.000000      0.000000      0.000000
 --------------------------------------------------------


 ---------------------------------------------------------------------------------
              Anisotropic Spin Dipole Couplings in Principal Axis System
 ---------------------------------------------------------------------------------

       Atom             a.u.   MegaHertz   Gauss  10(-4) cm-1        Axes

              Baa     0.0000     0.000     0.000     0.000  1.0000  0.0000  0.0000
     1 C(13)  Bbb     0.0000     0.000     0.000     0.000 -0.0000  1.0000  0.0000
              Bcc     0.0000     0.000     0.000     0.000  0.0000  0.0000  1.0000
 
              Baa     0.0000     0.000     0.000     0.000  1.0000  0.0000  0.0000
     2 S(33)  Bbb     0.0000     0.000     0.000     0.000 -0.0000  1.0000  0.0000
              Bcc     0.0000     0.000     0.000     0.000  0.0000  0.0000  1.0000
 
              Baa     0.0000     0.000     0.000     0.000  1.0000  0.0000  0.0000
     3 H(1)   Bbb     0.0000     0.000     0.000     0.000 -0.0000  1.0000  0.0000
              Bcc     0.0000     0.000     0.000     0.000  0.0000  0.0000  1.0000
 
              Baa     0.0000     0.000     0.000     0.000  1.0000  0.0000  0.0000
     4 H(1)   Bbb     0.0000     0.000     0.000     0.000 -0.0000  1.0000  0.0000
              Bcc     0.0000     0.000     0.000     0.000  0.0000  0.0000  1.0000
 
              Baa     0.0000     0.000     0.000     0.000  1.0000  0.0000  0.0000
     5 H(1)   Bbb     0.0000     0.000     0.000     0.000 -0.0000  1.0000  0.0000
              Bcc     0.0000     0.000     0.000     0.000  0.0000  0.0000  1.0000
 
              Baa     0.0000     0.000     0.000     0.000  1.0000  0.0000  0.0000
     6 H(1)   Bbb     0.0000     0.000     0.000     0.000 -0.0000  1.0000  0.0000
              Bcc     0.0000     0.000     0.000     0.000  0.0000  0.0000  1.0000
 

 ---------------------------------------------------------------------------------

 No NMR shielding tensors so no spin-rotation constants.
 Leave Link  601 at Mon Apr 21 19:28:20 2025, MaxMem=   536870912 cpu:               1.8 elap:               0.3
 (Enter /home/szhao/Apps/g16/l701.exe)
 ... and contract with generalized density number  0.
 Compute integral first derivatives.
 Leave Link  701 at Mon Apr 21 19:28:21 2025, MaxMem=   536870912 cpu:               1.9 elap:               0.4
 (Enter /home/szhao/Apps/g16/l702.exe)
 L702 exits ... SP integral derivatives will be done elsewhere.
 Leave Link  702 at Mon Apr 21 19:28:21 2025, MaxMem=   536870912 cpu:               0.6 elap:               0.2
 (Enter /home/szhao/Apps/g16/l703.exe)
 Integral derivatives from FoFJK, PRISM(SPDF).
 Compute integral first derivatives, UseDBF=F ICtDFT=           0.
 Calling FoFJK, ICntrl=      2127 FMM=F ISym2X=0 I1Cent= 0 IOpClX= 1 NMat=1 NMatS=1 NMatT=0.
 FoFJK:  IHMeth= 1 ICntrl=    2127 DoSepK=F KAlg= 0 I1Cent=           0 FoldK=F
 IRaf=         0 NMat=       1 IRICut=       1 DoRegI=T DoRafI=F ISym2E= 0 IDoP0=0 IntGTp=1.
 FoFCou: FMM=F IPFlag=           0 FMFlag=      100000 FMFlg1=         800
         NFxFlg=           0 DoJE=F BraDBF=F KetDBF=F FulRan=T
         wScrn=  0.000000 ICntrl=      2127 IOpCl=  1 I1Cent=           0 NGrid=           0
         NMat0=    1 NMatS0=      1 NMatT0=    0 NMatD0=    1 NMtDS0=    0 NMtDT0=    0
 Symmetry not used in FoFCou.
 Leave Link  703 at Mon Apr 21 19:28:24 2025, MaxMem=   536870912 cpu:              21.9 elap:               2.9
 (Enter /home/szhao/Apps/g16/l716.exe)
 Dipole        =-5.87278402D-01-3.64310876D-01 1.06704076D-04
 -------------------------------------------------------------------
 Center     Atomic                   Forces (Hartrees/Bohr)
 Number     Number              X              Y              Z
 -------------------------------------------------------------------
      1        6          -0.000000000   -0.000000000   -0.000000000
      2       16          -0.000000000   -0.000000000   -0.000000000
      3        1          -0.000802437   -0.000114226   -0.000007941
      4        1           0.001606591    0.000077058   -0.000005602
      5        1           0.001828820   -0.000334755   -0.000137251
      6        1           0.001828511   -0.000332458    0.000139606
 -------------------------------------------------------------------
 Cartesian Forces:  Max     0.001828820 RMS     0.000752517
 Leave Link  716 at Mon Apr 21 19:28:25 2025, MaxMem=   536870912 cpu:               1.0 elap:               0.2
 (Enter /home/szhao/Apps/g16/l103.exe)

 GradGradGradGradGradGradGradGradGradGradGradGradGradGradGradGradGradGrad
 Berny optimization.
 FormGI is forming the generalized inverse of G from B-inverse, IUseBI=4.
 Internal  Forces:  Max     0.005263922 RMS     0.001619990
 Search for a local minimum.
 Step number   1 out of a maximum of   30
 All quantities printed in internal units (Hartrees-Bohrs-Radians)
 RMS Force = .13045D-02 SwitMx=.10000D-02 MixMth= 1
 Mixed Optimization -- RFO/linear search
 Second derivative matrix not updated -- first step.
 The second derivative matrix:
                          X1        Y1        Z1        X2        Y2
           X1           0.50000
           Y1           0.00000   0.50000
           Z1           0.00000   0.00000   0.50000
           X2           0.00000   0.00000   0.00000   0.50000
           Y2           0.00000   0.00000   0.00000   0.00000   0.50000
           Z2           0.00000   0.00000   0.00000   0.00000   0.00000
           R1           0.00000   0.00000   0.00000   0.00000   0.00000
           R2           0.00000   0.00000   0.00000   0.00000   0.00000
           R3           0.00000   0.00000   0.00000   0.00000   0.00000
           R4           0.00000   0.00000   0.00000   0.00000   0.00000
           A1           0.00000   0.00000   0.00000   0.00000   0.00000
           A2           0.00000   0.00000   0.00000   0.00000   0.00000
           A3           0.00000   0.00000   0.00000   0.00000   0.00000
           A4           0.00000   0.00000   0.00000   0.00000   0.00000
           A5           0.00000   0.00000   0.00000   0.00000   0.00000
           A6           0.00000   0.00000   0.00000   0.00000   0.00000
           A7           0.00000   0.00000   0.00000   0.00000   0.00000
           D1           0.00000   0.00000   0.00000   0.00000   0.00000
           D2           0.00000   0.00000   0.00000   0.00000   0.00000
           D3           0.00000   0.00000   0.00000   0.00000   0.00000
                          Z2        R1        R2        R3        R4
           Z2           0.50000
           R1           0.00000   0.34961
           R2           0.00000   0.00000   0.35028
           R3           0.00000   0.00000   0.00000   0.35028
           R4           0.00000   0.00000   0.00000   0.00000   0.26329
           A1           0.00000   0.00000   0.00000   0.00000   0.00000
           A2           0.00000   0.00000   0.00000   0.00000   0.00000
           A3           0.00000   0.00000   0.00000   0.00000   0.00000
           A4           0.00000   0.00000   0.00000   0.00000   0.00000
           A5           0.00000   0.00000   0.00000   0.00000   0.00000
           A6           0.00000   0.00000   0.00000   0.00000   0.00000
           A7           0.00000   0.00000   0.00000   0.00000   0.00000
           D1           0.00000   0.00000   0.00000   0.00000   0.00000
           D2           0.00000   0.00000   0.00000   0.00000   0.00000
           D3           0.00000   0.00000   0.00000   0.00000   0.00000
                          A1        A2        A3        A4        A5
           A1           0.16000
           A2           0.00000   0.16000
           A3           0.00000   0.00000   0.16000
           A4           0.00000   0.00000   0.00000   0.16000
           A5           0.00000   0.00000   0.00000   0.00000   0.16000
           A6           0.00000   0.00000   0.00000   0.00000   0.00000
           A7           0.00000   0.00000   0.00000   0.00000   0.00000
           D1           0.00000   0.00000   0.00000   0.00000   0.00000
           D2           0.00000   0.00000   0.00000   0.00000   0.00000
           D3           0.00000   0.00000   0.00000   0.00000   0.00000
                          A6        A7        D1        D2        D3
           A6           0.16000
           A7           0.00000   0.16000
           D1           0.00000   0.00000   0.00230
           D2           0.00000   0.00000   0.00000   0.00230
           D3           0.00000   0.00000   0.00000   0.00000   0.00230
 ITU=  0
     Eigenvalues ---    0.00230   0.09535   0.10226   0.16000   0.16000
     Eigenvalues ---    0.16000   0.16000   0.26329   0.34961   0.35028
     Eigenvalues ---    0.350281000.000001000.000001000.000001000.00000
     Eigenvalues --- 1000.000001000.000001000.000001000.000001000.00000
 RFO step:  Lambda=-1.48813809D-04 EMin= 2.30000000D-03
 Linear search not attempted -- first point.
 Iteration  1 RMS(Cart)=  0.01170995 RMS(Int)=  0.00009045
 Iteration  2 RMS(Cart)=  0.00008900 RMS(Int)=  0.00003960
 Iteration  3 RMS(Cart)=  0.00000001 RMS(Int)=  0.00003960
 ITry= 1 IFail=0 DXMaxC= 3.23D-02 DCOld= 1.00D+10 DXMaxT= 3.00D-01 DXLimC= 3.00D+00 Rises=F
 Variable       Old X    -DE/DX   Delta X   Delta X   Delta X     New X
                                 (Linear)    (Quad)   (Total)
    X1       -1.76731   0.00526   0.00000   0.00000   0.00000  -1.76731
    Y1        0.00000  -0.00018   0.00000   0.00000   0.00000   0.00000
    Z1        0.00000  -0.00000   0.00000   0.00000   0.00000   0.00000
    X2        1.76731  -0.00080   0.00000   0.00000   0.00000   1.76731
    Y2        0.00000  -0.00053   0.00000   0.00000   0.00000   0.00000
    Z2        0.00000  -0.00001   0.00000   0.00000   0.00000   0.00000
    R1        2.05738  -0.00037   0.00000  -0.00107  -0.00107   2.05630
    R2        2.05629  -0.00040   0.00000  -0.00115  -0.00115   2.05514
    R3        2.05629  -0.00040   0.00000  -0.00115  -0.00115   2.05514
    R4        2.53443   0.00002   0.00000   0.00008   0.00008   2.53451
    A1        1.85395  -0.00142   0.00000  -0.00811  -0.00816   1.84579
    A2        1.94230  -0.00193   0.00000  -0.01246  -0.01253   1.92976
    A3        1.94221  -0.00193   0.00000  -0.01245  -0.01253   1.92969
    A4        1.89795   0.00180   0.00000   0.01202   0.01196   1.90991
    A5        1.89780   0.00181   0.00000   0.01205   0.01200   1.90980
    A6        1.92721   0.00174   0.00000   0.00950   0.00940   1.93661
    A7        1.68629  -0.00205   0.00000  -0.01282  -0.01282   1.67346
    D1        3.13880   0.00001   0.00000   0.00276   0.00276   3.14156
    D2       -1.08142   0.00028   0.00000   0.00562   0.00559  -1.07583
    D3        1.07606  -0.00027   0.00000  -0.00016  -0.00013   1.07593
         Item               Value     Threshold  Converged?
 Maximum Force            0.002054     0.000450     NO 
 RMS     Force            0.001305     0.000300     NO 
 Maximum Displacement     0.032297     0.001800     NO 
 RMS     Displacement     0.011748     0.001200     NO 
 Predicted change in Energy=-7.444958D-05
 Lowest energy point so far.  Saving SCF results.
 GradGradGradGradGradGradGradGradGradGradGradGradGradGradGradGradGradGrad

 Leave Link  103 at Mon Apr 21 19:28:25 2025, MaxMem=   536870912 cpu:               0.7 elap:               0.1
 (Enter /home/szhao/Apps/g16/l202.exe)
                          Input orientation:                          
 ---------------------------------------------------------------------
 Center     Atomic      Atomic             Coordinates (Angstroms)
 Number     Number       Type             X           Y           Z
 ---------------------------------------------------------------------
      1          6           0       -0.935220    0.000000    0.000000
      2         16           0        0.935220    0.000000    0.000000
      3          1           0        1.072676   -1.334141   -0.002628
      4          1           0       -1.230693    1.047263    0.002099
      5          1           0       -1.317277   -0.481891   -0.896961
      6          1           0       -1.317200   -0.485344    0.895131
 ---------------------------------------------------------------------
                    Distance matrix (angstroms):
                    1          2          3          4          5
     1  C    0.000000
     2  S    1.870439   0.000000
     3  H    2.410723   1.341206   0.000000
     4  H    1.088149   2.405814   3.313097   0.000000
     5  H    1.087532   2.471942   2.690360   1.775983   0.000000
     6  H    1.087533   2.471885   2.690341   1.775915   1.792095
                    6
     6  H    0.000000
 Symmetry turned off by external request.
 Stoichiometry    CH4S
 Framework group  C1[X(CH4S)]
 Deg. of freedom    12
 Full point group                 C1      NOp   1
 Rotational constants (GHZ):         102.5984140          12.3116951          11.8251182
 Leave Link  202 at Mon Apr 21 19:28:25 2025, MaxMem=   536870912 cpu:               0.1 elap:               0.1
 (Enter /home/szhao/Apps/g16/l301.exe)
 Standard basis: 6-311+G(d,p) (5D, 7F)
 Ernie: Thresh=  0.10000D-02 Tol=  0.10000D-05 Strict=F.
    76 basis functions,   118 primitive gaussians,    78 cartesian basis functions
    13 alpha electrons       13 beta electrons
       nuclear repulsion energy        55.3608170304 Hartrees.
 IExCor= 4336 DFT=T Ex+Corr=M062X ExCW=0 ScaHFX=  0.540000
 ScaDFX=  1.000000  1.000000  1.000000  1.000000 ScalE2=  1.000000  1.000000
 IRadAn=      7 IRanWt=     -1 IRanGd=            0 ICorTp=0 IEmpDi=  4
 NAtoms=    6 NActive=    6 NUniq=    6 SFac= 1.00D+00 NAtFMM=   60 NAOKFM=F Big=F
 Integral buffers will be    131072 words long.
 Raffenetti 2 integral format.
 Two-electron integral symmetry is turned off.
 Leave Link  301 at Mon Apr 21 19:28:25 2025, MaxMem=   536870912 cpu:               1.1 elap:               0.2
 (Enter /home/szhao/Apps/g16/l302.exe)
 NPDir=0 NMtPBC=     1 NCelOv=     1 NCel=       1 NClECP=     1 NCelD=      1
         NCelK=      1 NCelE2=     1 NClLst=     1 CellRange=     0.0.
 One-electron integrals computed using PRISM.
 NBasis=    76 RedAO= T EigKep=  6.18D-04  NBF=    76
 NBsUse=    76 1.00D-06 EigRej= -1.00D+00 NBFU=    76
 Precomputing XC quadrature grid using
 IXCGrd= 4 IRadAn=           7 IRanWt=          -1 IRanGd=           0 AccXCQ= 0.00D+00.
 Generated NRdTot=       0 NPtTot=           0 NUsed=           0 NTot=          32
 NSgBfM=    78    78    78    78    78 MxSgAt=     6 MxSgA2=     6.
 Leave Link  302 at Mon Apr 21 19:28:26 2025, MaxMem=   536870912 cpu:               3.0 elap:               0.5
 (Enter /home/szhao/Apps/g16/l303.exe)
 DipDrv:  MaxL=1.
 Leave Link  303 at Mon Apr 21 19:28:26 2025, MaxMem=   536870912 cpu:               1.6 elap:               0.3
 (Enter /home/szhao/Apps/g16/l401.exe)
 Initial guess from the checkpoint file:  "opt.chk"
 B after Tr=     0.001306   -0.000490   -0.000147
         Rot=    1.000000   -0.000087   -0.000037    0.000188 Ang=  -0.02 deg.
 Guess basis will be translated and rotated to current coordinates.
 JPrj=2 DoOrth=T DoCkMO=T.
 Initial guess <Sx>= 0.0000 <Sy>= 0.0000 <Sz>= 0.0000 <S**2>=-0.0000 S=-0.0000
 Generating alternative initial guess.
 ExpMin= 4.05D-02 ExpMax= 9.34D+04 ExpMxC= 3.17D+03 IAcc=3 IRadAn=         5 AccDes= 0.00D+00
 Harris functional with IExCor= 1009 and IRadAn=       5 diagonalized for initial guess.
 HarFok:  IExCor= 1009 AccDes= 0.00D+00 IRadAn=         5 IDoV= 1 UseB2=F ITyADJ=14
 ICtDFT=  3500011 ScaDFX=  1.000000  1.000000  1.000000  1.000000
 FoFCou: FMM=F IPFlag=           0 FMFlag=      100000 FMFlg1=           0
         NFxFlg=           0 DoJE=T BraDBF=F KetDBF=T FulRan=T
         wScrn=  0.000000 ICntrl=       500 IOpCl=  0 I1Cent=   200000004 NGrid=           0
         NMat0=    1 NMatS0=      1 NMatT0=    0 NMatD0=    1 NMtDS0=    0 NMtDT0=    0
 Symmetry not used in FoFCou.
 Harris En= -438.490800963744    
 Leave Link  401 at Mon Apr 21 19:28:27 2025, MaxMem=   536870912 cpu:               3.7 elap:               0.5
 (Enter /home/szhao/Apps/g16/l502.exe)
 Keep R1 and R2 ints in memory in canonical form, NReq=15806772.
 FoFCou: FMM=F IPFlag=           0 FMFlag=           0 FMFlg1=           0
         NFxFlg=           0 DoJE=F BraDBF=F KetDBF=F FulRan=T
         wScrn=  0.000000 ICntrl=       600 IOpCl=  0 I1Cent=           0 NGrid=           0
         NMat0=    1 NMatS0=   2926 NMatT0=    0 NMatD0=    1 NMtDS0=    0 NMtDT0=    0
 Symmetry not used in FoFCou.
 Two-electron integral symmetry not used.
 UHF open shell SCF:
 Using DIIS extrapolation, IDIIS=  1040.
 NGot=   536870912 LenX=   528292970 LenY=   528286445
 Requested convergence on RMS density matrix=1.00D-08 within 128 cycles.
 Requested convergence on MAX density matrix=1.00D-06.
 Requested convergence on             energy=1.00D-06.
 No special actions if energy rises.

 Cycle   1  Pass 1  IDiag  1:
 E= -438.674279964929    
 DIIS: error= 7.17D-04 at cycle   1 NSaved=   1.
 NSaved= 1 IEnMin= 1 EnMin= -438.674279964929     IErMin= 1 ErrMin= 7.17D-04
 ErrMax= 7.17D-04  0.00D+00 EMaxC= 1.00D-01 BMatC= 8.75D-05 BMatP= 8.75D-05
 IDIUse=3 WtCom= 9.93D-01 WtEn= 7.17D-03
 Coeff-Com:  0.100D+01
 Coeff-En:   0.100D+01
 Coeff:      0.100D+01
 Gap=     0.471 Goal=   None    Shift=    0.000
 Gap=     0.471 Goal=   None    Shift=    0.000
 RMSDP=7.96D-05 MaxDP=8.32D-04              OVMax= 2.08D-03

 Cycle   2  Pass 1  IDiag  1:
 E= -438.674309480032     Delta-E=       -0.000029515102 Rises=F Damp=F
 DIIS: error= 1.25D-04 at cycle   2 NSaved=   2.
 NSaved= 2 IEnMin= 2 EnMin= -438.674309480032     IErMin= 2 ErrMin= 1.25D-04
 ErrMax= 1.25D-04  0.00D+00 EMaxC= 1.00D-01 BMatC= 2.21D-06 BMatP= 8.75D-05
 IDIUse=3 WtCom= 9.99D-01 WtEn= 1.25D-03
 Coeff-Com: -0.684D-01 0.107D+01
 Coeff-En:   0.000D+00 0.100D+01
 Coeff:     -0.683D-01 0.107D+01
 Gap=     0.308 Goal=   None    Shift=    0.000
 Gap=     0.308 Goal=   None    Shift=    0.000
 RMSDP=1.87D-05 MaxDP=2.26D-04 DE=-2.95D-05 OVMax= 5.70D-04

 Cycle   3  Pass 1  IDiag  1:
 E= -438.674310576294     Delta-E=       -0.000001096263 Rises=F Damp=F
 DIIS: error= 4.65D-05 at cycle   3 NSaved=   3.
 NSaved= 3 IEnMin= 3 EnMin= -438.674310576294     IErMin= 3 ErrMin= 4.65D-05
 ErrMax= 4.65D-05  0.00D+00 EMaxC= 1.00D-01 BMatC= 3.77D-07 BMatP= 2.21D-06
 IDIUse=1 WtCom= 1.00D+00 WtEn= 0.00D+00
 Coeff-Com: -0.385D-01 0.267D+00 0.771D+00
 Coeff:     -0.385D-01 0.267D+00 0.771D+00
 Gap=     0.308 Goal=   None    Shift=    0.000
 Gap=     0.308 Goal=   None    Shift=    0.000
 RMSDP=4.51D-06 MaxDP=7.11D-05 DE=-1.10D-06 OVMax= 1.06D-04

 Cycle   4  Pass 1  IDiag  1:
 E= -438.674310676077     Delta-E=       -0.000000099783 Rises=F Damp=F
 DIIS: error= 1.26D-05 at cycle   4 NSaved=   4.
 NSaved= 4 IEnMin= 4 EnMin= -438.674310676077     IErMin= 4 ErrMin= 1.26D-05
 ErrMax= 1.26D-05  0.00D+00 EMaxC= 1.00D-01 BMatC= 4.91D-08 BMatP= 3.77D-07
 IDIUse=1 WtCom= 1.00D+00 WtEn= 0.00D+00
 Coeff-Com: -0.715D-02 0.648D-02 0.248D+00 0.752D+00
 Coeff:     -0.715D-02 0.648D-02 0.248D+00 0.752D+00
 Gap=     0.308 Goal=   None    Shift=    0.000
 Gap=     0.308 Goal=   None    Shift=    0.000
 RMSDP=1.88D-06 MaxDP=3.02D-05 DE=-9.98D-08 OVMax= 8.01D-05

 Cycle   5  Pass 1  IDiag  1:
 E= -438.674310691864     Delta-E=       -0.000000015787 Rises=F Damp=F
 DIIS: error= 4.92D-06 at cycle   5 NSaved=   5.
 NSaved= 5 IEnMin= 5 EnMin= -438.674310691864     IErMin= 5 ErrMin= 4.92D-06
 ErrMax= 4.92D-06  0.00D+00 EMaxC= 1.00D-01 BMatC= 6.38D-09 BMatP= 4.91D-08
 IDIUse=1 WtCom= 1.00D+00 WtEn= 0.00D+00
 Coeff-Com:  0.206D-02-0.294D-01-0.237D-01 0.254D+00 0.797D+00
 Coeff:      0.206D-02-0.294D-01-0.237D-01 0.254D+00 0.797D+00
 Gap=     0.308 Goal=   None    Shift=    0.000
 Gap=     0.308 Goal=   None    Shift=    0.000
 RMSDP=7.12D-07 MaxDP=9.18D-06 DE=-1.58D-08 OVMax= 2.08D-05

 Cycle   6  Pass 1  IDiag  1:
 E= -438.674310693907     Delta-E=       -0.000000002044 Rises=F Damp=F
 DIIS: error= 7.12D-07 at cycle   6 NSaved=   6.
 NSaved= 6 IEnMin= 6 EnMin= -438.674310693907     IErMin= 6 ErrMin= 7.12D-07
 ErrMax= 7.12D-07  0.00D+00 EMaxC= 1.00D-01 BMatC= 3.10D-10 BMatP= 6.38D-09
 IDIUse=1 WtCom= 1.00D+00 WtEn= 0.00D+00
 Coeff-Com:  0.112D-02-0.106D-01-0.226D-01 0.482D-01 0.253D+00 0.731D+00
 Coeff:      0.112D-02-0.106D-01-0.226D-01 0.482D-01 0.253D+00 0.731D+00
 Gap=     0.308 Goal=   None    Shift=    0.000
 Gap=     0.308 Goal=   None    Shift=    0.000
 RMSDP=1.73D-07 MaxDP=3.72D-06 DE=-2.04D-09 OVMax= 4.77D-06

 Cycle   7  Pass 1  IDiag  1:
 E= -438.674310694000     Delta-E=       -0.000000000092 Rises=F Damp=F
 DIIS: error= 1.32D-07 at cycle   7 NSaved=   7.
 NSaved= 7 IEnMin= 7 EnMin= -438.674310694000     IErMin= 7 ErrMin= 1.32D-07
 ErrMax= 1.32D-07  0.00D+00 EMaxC= 1.00D-01 BMatC= 1.30D-11 BMatP= 3.10D-10
 IDIUse=1 WtCom= 1.00D+00 WtEn= 0.00D+00
 Coeff-Com:  0.622D-04 0.256D-03-0.299D-02-0.960D-02-0.144D-01 0.114D+00
 Coeff-Com:  0.913D+00
 Coeff:      0.622D-04 0.256D-03-0.299D-02-0.960D-02-0.144D-01 0.114D+00
 Coeff:      0.913D+00
 Gap=     0.308 Goal=   None    Shift=    0.000
 Gap=     0.308 Goal=   None    Shift=    0.000
 RMSDP=6.62D-08 MaxDP=1.06D-06 DE=-9.24D-11 OVMax= 1.98D-06

 Cycle   8  Pass 1  IDiag  1:
 E= -438.674310694006     Delta-E=       -0.000000000006 Rises=F Damp=F
 DIIS: error= 4.91D-08 at cycle   8 NSaved=   8.
 NSaved= 8 IEnMin= 8 EnMin= -438.674310694006     IErMin= 8 ErrMin= 4.91D-08
 ErrMax= 4.91D-08  0.00D+00 EMaxC= 1.00D-01 BMatC= 9.62D-13 BMatP= 1.30D-11
 IDIUse=1 WtCom= 1.00D+00 WtEn= 0.00D+00
 Coeff-Com: -0.753D-04 0.868D-03 0.132D-02-0.561D-02-0.232D-01-0.313D-01
 Coeff-Com:  0.136D+00 0.922D+00
 Coeff:     -0.753D-04 0.868D-03 0.132D-02-0.561D-02-0.232D-01-0.313D-01
 Coeff:      0.136D+00 0.922D+00
 Gap=     0.308 Goal=   None    Shift=    0.000
 Gap=     0.308 Goal=   None    Shift=    0.000
 RMSDP=2.26D-08 MaxDP=3.65D-07 DE=-6.48D-12 OVMax= 7.31D-07

 Cycle   9  Pass 1  IDiag  1:
 E= -438.674310694007     Delta-E=       -0.000000000001 Rises=F Damp=F
 DIIS: error= 1.25D-08 at cycle   9 NSaved=   9.
 NSaved= 9 IEnMin= 9 EnMin= -438.674310694007     IErMin= 9 ErrMin= 1.25D-08
 ErrMax= 1.25D-08  0.00D+00 EMaxC= 1.00D-01 BMatC= 6.48D-14 BMatP= 9.62D-13
 IDIUse=1 WtCom= 1.00D+00 WtEn= 0.00D+00
 Coeff-Com: -0.734D-05 0.374D-04 0.256D-03 0.177D-03-0.431D-03-0.415D-02
 Coeff-Com: -0.450D-01 0.831D-01 0.966D+00
 Coeff:     -0.734D-05 0.374D-04 0.256D-03 0.177D-03-0.431D-03-0.415D-02
 Coeff:     -0.450D-01 0.831D-01 0.966D+00
 Gap=     0.308 Goal=   None    Shift=    0.000
 Gap=     0.308 Goal=   None    Shift=    0.000
 RMSDP=6.17D-09 MaxDP=9.84D-08 DE=-9.09D-13 OVMax= 2.20D-07

 SCF Done:  E(UM062X) =  -438.674310694     A.U. after    9 cycles
            NFock=  9  Conv=0.62D-08     -V/T= 2.0016
 <Sx>= 0.0000 <Sy>= 0.0000 <Sz>= 0.0000 <S**2>= 0.0000 S= 0.0000
 <L.S>=  0.00000000000    
 KE= 4.379686901096D+02 PE=-1.151503306076D+03 EE= 2.194994882417D+02
 Annihilation of the first spin contaminant:
 S**2 before annihilation     0.0000,   after    -0.0000
 Leave Link  502 at Mon Apr 21 19:28:40 2025, MaxMem=   536870912 cpu:              98.2 elap:              12.8
 (Enter /home/szhao/Apps/g16/l701.exe)
 ... and contract with generalized density number  0.
 Compute integral first derivatives.
 Leave Link  701 at Mon Apr 21 19:28:40 2025, MaxMem=   536870912 cpu:               1.6 elap:               0.2
 (Enter /home/szhao/Apps/g16/l702.exe)
 L702 exits ... SP integral derivatives will be done elsewhere.
 Leave Link  702 at Mon Apr 21 19:28:41 2025, MaxMem=   536870912 cpu:               0.7 elap:               0.1
 (Enter /home/szhao/Apps/g16/l703.exe)
 Integral derivatives from FoFJK, PRISM(SPDF).
 Compute integral first derivatives, UseDBF=F ICtDFT=           0.
 Calling FoFJK, ICntrl=      2127 FMM=F ISym2X=0 I1Cent= 0 IOpClX= 1 NMat=1 NMatS=1 NMatT=0.
 FoFJK:  IHMeth= 1 ICntrl=    2127 DoSepK=F KAlg= 0 I1Cent=           0 FoldK=F
 IRaf=         0 NMat=       1 IRICut=       1 DoRegI=T DoRafI=F ISym2E= 0 IDoP0=0 IntGTp=1.
 FoFCou: FMM=F IPFlag=           0 FMFlag=      100000 FMFlg1=         800
         NFxFlg=           0 DoJE=F BraDBF=F KetDBF=F FulRan=T
         wScrn=  0.000000 ICntrl=      2127 IOpCl=  1 I1Cent=           0 NGrid=           0
         NMat0=    1 NMatS0=      1 NMatT0=    0 NMatD0=    1 NMtDS0=    0 NMtDT0=    0
 Symmetry not used in FoFCou.
 Leave Link  703 at Mon Apr 21 19:28:43 2025, MaxMem=   536870912 cpu:              20.6 elap:               2.6
 (Enter /home/szhao/Apps/g16/l716.exe)
 Dipole        =-5.90450140D-01-3.62830228D-01-6.92088502D-04
 -------------------------------------------------------------------
 Center     Atomic                   Forces (Hartrees/Bohr)
 Number     Number              X              Y              Z
 -------------------------------------------------------------------
      1        6          -0.000000000   -0.000000000   -0.000000000
      2       16          -0.000000000   -0.000000000   -0.000000000
      3        1           0.000196753    0.000017882    0.000005158
      4        1           0.000115222   -0.000231459   -0.000006253
      5        1           0.000461576    0.000068747    0.000100057
      6        1           0.000459034    0.000063640   -0.000102660
 -------------------------------------------------------------------
 Cartesian Forces:  Max     0.000461576 RMS     0.000176232
 Leave Link  716 at Mon Apr 21 19:28:44 2025, MaxMem=   536870912 cpu:               0.5 elap:               0.1
 (Enter /home/szhao/Apps/g16/l103.exe)

 GradGradGradGradGradGradGradGradGradGradGradGradGradGradGradGradGradGrad
 Berny optimization.
 Using GEDIIS/GDIIS optimizer.
 FormGI is forming the generalized inverse of G from B-inverse, IUseBI=4.
 Internal  Forces:  Max     0.001035832 RMS     0.000363030
 Search for a local minimum.
 Step number   2 out of a maximum of   30
 All quantities printed in internal units (Hartrees-Bohrs-Radians)
 RMS Force = .29605D-03 SwitMx=.10000D-02 MixMth= 2
 Mixed Optimization -- En-DIIS/RFO-DIIS
 Update second derivatives using D2CorX and points    1    2
 DE= -8.23D-05 DEPred=-7.44D-05 R= 1.11D+00
 TightC=F SS=  1.41D+00  RLast= 3.10D-02 DXNew= 5.0454D-01 9.3110D-02
 Trust test= 1.11D+00 RLast= 3.10D-02 DXMaxT set to 3.00D-01
 The second derivative matrix:
                          X1        Y1        Z1        X2        Y2
           X1           0.63390
           Y1           0.00784   0.50046
           Z1           0.00029   0.00002   0.50000
           X2          -0.03164  -0.00185  -0.00007   0.50748
           Y2          -0.02757  -0.00161  -0.00006   0.00652   0.50568
           Z2          -0.00048  -0.00003  -0.00000   0.00011   0.00010
           R1          -0.00383  -0.00022  -0.00001   0.00090   0.00079
           R2          -0.00409  -0.00024  -0.00001   0.00097   0.00084
           R3          -0.00405  -0.00024  -0.00001   0.00096   0.00083
           R4           0.00059   0.00003   0.00000  -0.00014  -0.00012
           A1          -0.04898  -0.00287  -0.00011   0.01158   0.01009
           A2          -0.04557  -0.00267  -0.00010   0.01077   0.00938
           A3          -0.04582  -0.00268  -0.00010   0.01083   0.00944
           A4           0.04992   0.00292   0.00011  -0.01180  -0.01028
           A5           0.04977   0.00291   0.00011  -0.01176  -0.01025
           A6           0.04274   0.00250   0.00009  -0.01010  -0.00880
           A7          -0.08089  -0.00474  -0.00018   0.01912   0.01666
           D1           0.00020   0.00001   0.00000  -0.00005  -0.00004
           D2           0.00621   0.00036   0.00001  -0.00147  -0.00128
           D3          -0.00551  -0.00032  -0.00001   0.00130   0.00113
                          Z2        R1        R2        R3        R4
           Z2           0.50000
           R1           0.00001   0.34878
           R2           0.00001  -0.00090   0.34931
           R3           0.00001  -0.00090  -0.00097   0.34932
           R4          -0.00000   0.00004   0.00004   0.00004   0.26329
           A1           0.00018  -0.00189  -0.00205  -0.00205  -0.00003
           A2           0.00016  -0.00375  -0.00406  -0.00404   0.00008
           A3           0.00016  -0.00374  -0.00405  -0.00403   0.00008
           A4          -0.00018   0.00340   0.00368   0.00366  -0.00005
           A5          -0.00018   0.00341   0.00370   0.00368  -0.00005
           A6          -0.00015   0.00257   0.00278   0.00277  -0.00002
           A7           0.00029  -0.00286  -0.00310  -0.00310  -0.00007
           D1          -0.00000   0.00001   0.00001   0.00001   0.00000
           D2          -0.00002  -0.00015  -0.00015  -0.00015   0.00003
           D3           0.00002   0.00016   0.00017   0.00017  -0.00002
                          A1        A2        A3        A4        A5
           A1           0.16645
           A2          -0.00094   0.14847
           A3          -0.00084  -0.01143   0.14867
           A4          -0.00145   0.00883   0.00872   0.15397
           A5          -0.00135   0.00895   0.00884  -0.00616   0.15372
           A6          -0.00242   0.00575   0.00565  -0.00344  -0.00354
           A7           0.01157  -0.00014   0.00003  -0.00375  -0.00358
           D1          -0.00002   0.00002   0.00002  -0.00001  -0.00001
           D2          -0.00216  -0.00194  -0.00195   0.00215   0.00214
           D3           0.00201   0.00187   0.00188  -0.00205  -0.00204
                          A6        A7        D1        D2        D3
           A6           0.15842
           A7          -0.00506   0.18056
           D1           0.00000  -0.00004   0.00230
           D2           0.00185  -0.00357   0.00001   0.00259
           D3          -0.00176   0.00332  -0.00001  -0.00026   0.00253
 ITU=  1  0
 Use linear search instead of GDIIS.
     Eigenvalues ---    0.00230   0.09397   0.10321   0.12742   0.16000
     Eigenvalues ---    0.16000   0.18674   0.26329   0.34836   0.34988
     Eigenvalues ---    0.350281000.000001000.000001000.000001000.00000
     Eigenvalues --- 1000.000001000.000001000.000001000.000001000.00000
 RFO step:  Lambda=-6.88251352D-06 EMin= 2.30096232D-03
 Quartic linear search produced a step of  0.11311.
 Iteration  1 RMS(Cart)=  0.00332218 RMS(Int)=  0.00001081
 Iteration  2 RMS(Cart)=  0.00000775 RMS(Int)=  0.00000782
 Iteration  3 RMS(Cart)=  0.00000000 RMS(Int)=  0.00000782
 ITry= 1 IFail=0 DXMaxC= 8.30D-03 DCOld= 1.00D+10 DXMaxT= 3.00D-01 DXLimC= 3.00D+00 Rises=F
 Variable       Old X    -DE/DX   Delta X   Delta X   Delta X     New X
                                 (Linear)    (Quad)   (Total)
    X1       -1.76731   0.00104   0.00000   0.00000   0.00000  -1.76731
    Y1        0.00000  -0.00042   0.00000   0.00000   0.00000   0.00000
    Z1        0.00000  -0.00001   0.00000   0.00000   0.00000   0.00000
    X2        1.76731   0.00020   0.00000   0.00000   0.00000   1.76731
    Y2        0.00000   0.00034   0.00000   0.00000   0.00000   0.00000
    Z2        0.00000   0.00001   0.00000   0.00000   0.00000   0.00000
    R1        2.05630  -0.00025  -0.00012  -0.00074  -0.00086   2.05545
    R2        2.05514  -0.00028  -0.00013  -0.00080  -0.00093   2.05421
    R3        2.05514  -0.00027  -0.00013  -0.00079  -0.00092   2.05422
    R4        2.53451   0.00000   0.00001   0.00000   0.00001   2.53453
    A1        1.84579   0.00012  -0.00092   0.00170   0.00077   1.84656
    A2        1.92976  -0.00049  -0.00142  -0.00271  -0.00414   1.92562
    A3        1.92969  -0.00048  -0.00142  -0.00264  -0.00407   1.92562
    A4        1.90991   0.00023   0.00135   0.00102   0.00237   1.91228
    A5        1.90980   0.00023   0.00136   0.00111   0.00246   1.91227
    A6        1.93661   0.00039   0.00106   0.00157   0.00261   1.93922
    A7        1.67346   0.00050  -0.00145   0.00436   0.00290   1.67637
    D1        3.14156   0.00000   0.00031  -0.00176  -0.00144   3.14011
    D2       -1.07583   0.00009   0.00063  -0.00097  -0.00035  -1.07617
    D3        1.07593  -0.00010  -0.00001  -0.00269  -0.00269   1.07324
         Item               Value     Threshold  Converged?
 Maximum Force            0.000501     0.000450     NO 
 RMS     Force            0.000296     0.000300     YES
 Maximum Displacement     0.008297     0.001800     NO 
 RMS     Displacement     0.003324     0.001200     NO 
 Predicted change in Energy=-4.321691D-06
 Lowest energy point so far.  Saving SCF results.
 GradGradGradGradGradGradGradGradGradGradGradGradGradGradGradGradGradGrad

 Leave Link  103 at Mon Apr 21 19:28:44 2025, MaxMem=   536870912 cpu:               0.4 elap:               0.1
 (Enter /home/szhao/Apps/g16/l202.exe)
                          Input orientation:                          
 ---------------------------------------------------------------------
 Center     Atomic      Atomic             Coordinates (Angstroms)
 Number     Number       Type             X           Y           Z
 ---------------------------------------------------------------------
      1          6           0       -0.935220    0.000000    0.000000
      2         16           0        0.935220    0.000000    0.000000
      3          1           0        1.076551   -1.333745   -0.001183
      4          1           0       -1.231378    1.046596    0.002476
      5          1           0       -1.312887   -0.483077   -0.897587
      6          1           0       -1.312887   -0.487304    0.895303
 ---------------------------------------------------------------------
                    Distance matrix (angstroms):
                    1          2          3          4          5
     1  C    0.000000
     2  S    1.870439   0.000000
     3  H    2.413732   1.341213   0.000000
     4  H    1.087695   2.406141   3.315506   0.000000
     5  H    1.087041   2.468402   2.690091   1.776698   0.000000
     6  H    1.087044   2.468403   2.688785   1.776692   1.792895
                    6
     6  H    0.000000
 Symmetry turned off by external request.
 Stoichiometry    CH4S
 Framework group  C1[X(CH4S)]
 Deg. of freedom    12
 Full point group                 C1      NOp   1
 Rotational constants (GHZ):         102.5639639          12.3174716          11.8307891
 Leave Link  202 at Mon Apr 21 19:28:44 2025, MaxMem=   536870912 cpu:               0.2 elap:               0.1
 (Enter /home/szhao/Apps/g16/l301.exe)
 Standard basis: 6-311+G(d,p) (5D, 7F)
 Ernie: Thresh=  0.10000D-02 Tol=  0.10000D-05 Strict=F.
    76 basis functions,   118 primitive gaussians,    78 cartesian basis functions
    13 alpha electrons       13 beta electrons
       nuclear repulsion energy        55.3718901006 Hartrees.
 IExCor= 4336 DFT=T Ex+Corr=M062X ExCW=0 ScaHFX=  0.540000
 ScaDFX=  1.000000  1.000000  1.000000  1.000000 ScalE2=  1.000000  1.000000
 IRadAn=      7 IRanWt=     -1 IRanGd=            0 ICorTp=0 IEmpDi=  4
 NAtoms=    6 NActive=    6 NUniq=    6 SFac= 1.00D+00 NAtFMM=   60 NAOKFM=F Big=F
 Integral buffers will be    131072 words long.
 Raffenetti 2 integral format.
 Two-electron integral symmetry is turned off.
 Leave Link  301 at Mon Apr 21 19:28:44 2025, MaxMem=   536870912 cpu:               0.6 elap:               0.1
 (Enter /home/szhao/Apps/g16/l302.exe)
 NPDir=0 NMtPBC=     1 NCelOv=     1 NCel=       1 NClECP=     1 NCelD=      1
         NCelK=      1 NCelE2=     1 NClLst=     1 CellRange=     0.0.
 One-electron integrals computed using PRISM.
 NBasis=    76 RedAO= T EigKep=  6.17D-04  NBF=    76
 NBsUse=    76 1.00D-06 EigRej= -1.00D+00 NBFU=    76
 Precomputing XC quadrature grid using
 IXCGrd= 4 IRadAn=           7 IRanWt=          -1 IRanGd=           0 AccXCQ= 0.00D+00.
 Generated NRdTot=       0 NPtTot=           0 NUsed=           0 NTot=          32
 NSgBfM=    78    78    78    78    78 MxSgAt=     6 MxSgA2=     6.
 Leave Link  302 at Mon Apr 21 19:28:45 2025, MaxMem=   536870912 cpu:               2.3 elap:               0.4
 (Enter /home/szhao/Apps/g16/l303.exe)
 DipDrv:  MaxL=1.
 Leave Link  303 at Mon Apr 21 19:28:45 2025, MaxMem=   536870912 cpu:               0.8 elap:               0.1
 (Enter /home/szhao/Apps/g16/l401.exe)
 Initial guess from the checkpoint file:  "opt.chk"
 B after Tr=     0.000811   -0.000527    0.000065
         Rot=    1.000000    0.000051    0.000026   -0.000292 Ang=   0.03 deg.
 Guess basis will be translated and rotated to current coordinates.
 JPrj=2 DoOrth=T DoCkMO=T.
 Initial guess <Sx>= 0.0000 <Sy>= 0.0000 <Sz>= 0.0000 <S**2>= 0.0000 S= 0.0000
 Leave Link  401 at Mon Apr 21 19:28:45 2025, MaxMem=   536870912 cpu:               1.8 elap:               0.3
 (Enter /home/szhao/Apps/g16/l502.exe)
 Keep R1 and R2 ints in memory in canonical form, NReq=15806772.
 FoFCou: FMM=F IPFlag=           0 FMFlag=           0 FMFlg1=           0
         NFxFlg=           0 DoJE=F BraDBF=F KetDBF=F FulRan=T
         wScrn=  0.000000 ICntrl=       600 IOpCl=  0 I1Cent=           0 NGrid=           0
         NMat0=    1 NMatS0=   2926 NMatT0=    0 NMatD0=    1 NMtDS0=    0 NMtDT0=    0
 Symmetry not used in FoFCou.
 Two-electron integral symmetry not used.
 UHF open shell SCF:
 Using DIIS extrapolation, IDIIS=  1040.
 NGot=   536870912 LenX=   528292970 LenY=   528286445
 Requested convergence on RMS density matrix=1.00D-08 within 128 cycles.
 Requested convergence on MAX density matrix=1.00D-06.
 Requested convergence on             energy=1.00D-06.
 No special actions if energy rises.

 Cycle   1  Pass 1  IDiag  1:
 E= -438.674311988433    
 DIIS: error= 1.51D-04 at cycle   1 NSaved=   1.
 NSaved= 1 IEnMin= 1 EnMin= -438.674311988433     IErMin= 1 ErrMin= 1.51D-04
 ErrMax= 1.51D-04  0.00D+00 EMaxC= 1.00D-01 BMatC= 6.72D-06 BMatP= 6.72D-06
 IDIUse=3 WtCom= 9.98D-01 WtEn= 1.51D-03
 Coeff-Com:  0.100D+01
 Coeff-En:   0.100D+01
 Coeff:      0.100D+01
 Gap=     0.471 Goal=   None    Shift=    0.000
 Gap=     0.471 Goal=   None    Shift=    0.000
 RMSDP=1.94D-05 MaxDP=1.69D-04              OVMax= 4.83D-04

 Cycle   2  Pass 1  IDiag  1:
 E= -438.674314173146     Delta-E=       -0.000002184713 Rises=F Damp=F
 DIIS: error= 3.18D-05 at cycle   2 NSaved=   2.
 NSaved= 2 IEnMin= 2 EnMin= -438.674314173146     IErMin= 2 ErrMin= 3.18D-05
 ErrMax= 3.18D-05  0.00D+00 EMaxC= 1.00D-01 BMatC= 4.06D-07 BMatP= 6.72D-06
 IDIUse=1 WtCom= 1.00D+00 WtEn= 0.00D+00
 Coeff-Com:  0.107D-01 0.989D+00
 Coeff:      0.107D-01 0.989D+00
 Gap=     0.308 Goal=   None    Shift=    0.000
 Gap=     0.308 Goal=   None    Shift=    0.000
 RMSDP=6.54D-06 MaxDP=1.12D-04 DE=-2.18D-06 OVMax= 2.06D-04

 Cycle   3  Pass 1  IDiag  1:
 E= -438.674314241036     Delta-E=       -0.000000067890 Rises=F Damp=F
 DIIS: error= 3.21D-05 at cycle   3 NSaved=   3.
 NSaved= 3 IEnMin= 3 EnMin= -438.674314241036     IErMin= 2 ErrMin= 3.18D-05
 ErrMax= 3.21D-05  0.00D+00 EMaxC= 1.00D-01 BMatC= 2.86D-07 BMatP= 4.06D-07
 IDIUse=1 WtCom= 1.00D+00 WtEn= 0.00D+00
 Coeff-Com: -0.548D-01 0.472D+00 0.582D+00
 Coeff:     -0.548D-01 0.472D+00 0.582D+00
 Gap=     0.308 Goal=   None    Shift=    0.000
 Gap=     0.308 Goal=   None    Shift=    0.000
 RMSDP=2.61D-06 MaxDP=6.10D-05 DE=-6.79D-08 OVMax= 8.30D-05

 Cycle   4  Pass 1  IDiag  1:
 E= -438.674314312713     Delta-E=       -0.000000071677 Rises=F Damp=F
 DIIS: error= 2.81D-06 at cycle   4 NSaved=   4.
 NSaved= 4 IEnMin= 4 EnMin= -438.674314312713     IErMin= 4 ErrMin= 2.81D-06
 ErrMax= 2.81D-06  0.00D+00 EMaxC= 1.00D-01 BMatC= 3.31D-09 BMatP= 2.86D-07
 IDIUse=1 WtCom= 1.00D+00 WtEn= 0.00D+00
 Coeff-Com: -0.923D-02 0.211D-01 0.963D-01 0.892D+00
 Coeff:     -0.923D-02 0.211D-01 0.963D-01 0.892D+00
 Gap=     0.308 Goal=   None    Shift=    0.000
 Gap=     0.308 Goal=   None    Shift=    0.000
 RMSDP=6.75D-07 MaxDP=9.80D-06 DE=-7.17D-08 OVMax= 1.69D-05

 Cycle   5  Pass 1  IDiag  1:
 E= -438.674314314023     Delta-E=       -0.000000001310 Rises=F Damp=F
 DIIS: error= 8.74D-07 at cycle   5 NSaved=   5.
 NSaved= 5 IEnMin= 5 EnMin= -438.674314314023     IErMin= 5 ErrMin= 8.74D-07
 ErrMax= 8.74D-07  0.00D+00 EMaxC= 1.00D-01 BMatC= 1.97D-10 BMatP= 3.31D-09
 IDIUse=1 WtCom= 1.00D+00 WtEn= 0.00D+00
 Coeff-Com:  0.201D-02-0.267D-01-0.261D-01 0.132D+00 0.919D+00
 Coeff:      0.201D-02-0.267D-01-0.261D-01 0.132D+00 0.919D+00
 Gap=     0.308 Goal=   None    Shift=    0.000
 Gap=     0.308 Goal=   None    Shift=    0.000
 RMSDP=2.24D-07 MaxDP=3.85D-06 DE=-1.31D-09 OVMax= 7.02D-06

 Cycle   6  Pass 1  IDiag  1:
 E= -438.674314314126     Delta-E=       -0.000000000103 Rises=F Damp=F
 DIIS: error= 1.76D-07 at cycle   6 NSaved=   6.
 NSaved= 6 IEnMin= 6 EnMin= -438.674314314126     IErMin= 6 ErrMin= 1.76D-07
 ErrMax= 1.76D-07  0.00D+00 EMaxC= 1.00D-01 BMatC= 1.17D-11 BMatP= 1.97D-10
 IDIUse=1 WtCom= 1.00D+00 WtEn= 0.00D+00
 Coeff-Com:  0.840D-03-0.670D-02-0.102D-01-0.126D-01 0.182D+00 0.846D+00
 Coeff:      0.840D-03-0.670D-02-0.102D-01-0.126D-01 0.182D+00 0.846D+00
 Gap=     0.308 Goal=   None    Shift=    0.000
 Gap=     0.308 Goal=   None    Shift=    0.000
 RMSDP=6.26D-08 MaxDP=1.35D-06 DE=-1.03D-10 OVMax= 2.13D-06

 Cycle   7  Pass 1  IDiag  1:
 E= -438.674314314133     Delta-E=       -0.000000000007 Rises=F Damp=F
 DIIS: error= 4.63D-08 at cycle   7 NSaved=   7.
 NSaved= 7 IEnMin= 7 EnMin= -438.674314314133     IErMin= 7 ErrMin= 4.63D-08
 ErrMax= 4.63D-08  0.00D+00 EMaxC= 1.00D-01 BMatC= 7.25D-13 BMatP= 1.17D-11
 IDIUse=1 WtCom= 1.00D+00 WtEn= 0.00D+00
 Coeff-Com: -0.150D-03 0.206D-02 0.221D-02-0.921D-02-0.744D-01-0.334D-01
 Coeff-Com:  0.111D+01
 Coeff:     -0.150D-03 0.206D-02 0.221D-02-0.921D-02-0.744D-01-0.334D-01
 Coeff:      0.111D+01
 Gap=     0.308 Goal=   None    Shift=    0.000
 Gap=     0.308 Goal=   None    Shift=    0.000
 RMSDP=3.01D-08 MaxDP=6.41D-07 DE=-7.16D-12 OVMax= 1.10D-06

 Cycle   8  Pass 1  IDiag  1:
 E= -438.674314314134     Delta-E=       -0.000000000001 Rises=F Damp=F
 DIIS: error= 1.08D-08 at cycle   8 NSaved=   8.
 NSaved= 8 IEnMin= 8 EnMin= -438.674314314134     IErMin= 8 ErrMin= 1.08D-08
 ErrMax= 1.08D-08  0.00D+00 EMaxC= 1.00D-01 BMatC= 5.69D-14 BMatP= 7.25D-13
 IDIUse=1 WtCom= 1.00D+00 WtEn= 0.00D+00
 Coeff-Com: -0.742D-04 0.724D-03 0.930D-03-0.319D-03-0.240D-01-0.574D-01
 Coeff-Com:  0.145D+00 0.935D+00
 Coeff:     -0.742D-04 0.724D-03 0.930D-03-0.319D-03-0.240D-01-0.574D-01
 Coeff:      0.145D+00 0.935D+00
 Gap=     0.308 Goal=   None    Shift=    0.000
 Gap=     0.308 Goal=   None    Shift=    0.000
 RMSDP=6.88D-09 MaxDP=1.17D-07 DE=-9.09D-13 OVMax= 2.51D-07

 SCF Done:  E(UM062X) =  -438.674314314     A.U. after    8 cycles
            NFock=  8  Conv=0.69D-08     -V/T= 2.0016
 <Sx>= 0.0000 <Sy>= 0.0000 <Sz>= 0.0000 <S**2>=-0.0000 S=-0.0000
 <L.S>=  0.00000000000    
 KE= 4.379710555540D+02 PE=-1.151528284445D+03 EE= 2.195110244761D+02
 Annihilation of the first spin contaminant:
 S**2 before annihilation    -0.0000,   after     0.0000
 Leave Link  502 at Mon Apr 21 19:28:55 2025, MaxMem=   536870912 cpu:              77.0 elap:              10.2
 (Enter /home/szhao/Apps/g16/l701.exe)
 ... and contract with generalized density number  0.
 Compute integral first derivatives.
 Leave Link  701 at Mon Apr 21 19:28:56 2025, MaxMem=   536870912 cpu:               1.4 elap:               0.3
 (Enter /home/szhao/Apps/g16/l702.exe)
 L702 exits ... SP integral derivatives will be done elsewhere.
 Leave Link  702 at Mon Apr 21 19:28:56 2025, MaxMem=   536870912 cpu:               0.6 elap:               0.1
 (Enter /home/szhao/Apps/g16/l703.exe)
 Integral derivatives from FoFJK, PRISM(SPDF).
 Compute integral first derivatives, UseDBF=F ICtDFT=           0.
 Calling FoFJK, ICntrl=      2127 FMM=F ISym2X=0 I1Cent= 0 IOpClX= 1 NMat=1 NMatS=1 NMatT=0.
 FoFJK:  IHMeth= 1 ICntrl=    2127 DoSepK=F KAlg= 0 I1Cent=           0 FoldK=F
 IRaf=         0 NMat=       1 IRICut=       1 DoRegI=T DoRafI=F ISym2E= 0 IDoP0=0 IntGTp=1.
 FoFCou: FMM=F IPFlag=           0 FMFlag=      100000 FMFlg1=         800
         NFxFlg=           0 DoJE=F BraDBF=F KetDBF=F FulRan=T
         wScrn=  0.000000 ICntrl=      2127 IOpCl=  1 I1Cent=           0 NGrid=           0
         NMat0=    1 NMatS0=      1 NMatT0=    0 NMatD0=    1 NMtDS0=    0 NMtDT0=    0
 Symmetry not used in FoFCou.
 Leave Link  703 at Mon Apr 21 19:29:00 2025, MaxMem=   536870912 cpu:              25.7 elap:               3.3
 (Enter /home/szhao/Apps/g16/l716.exe)
 Dipole        =-5.91948683D-01-3.64180729D-01-2.84056208D-04
 -------------------------------------------------------------------
 Center     Atomic                   Forces (Hartrees/Bohr)
 Number     Number              X              Y              Z
 -------------------------------------------------------------------
      1        6          -0.000000000   -0.000000000   -0.000000000
      2       16          -0.000000000   -0.000000000   -0.000000000
      3        1          -0.000064528    0.000002245   -0.000002215
      4        1           0.000032873   -0.000025717    0.000000139
      5        1          -0.000044651    0.000026143    0.000006572
      6        1          -0.000041870    0.000032544   -0.000005455
 -------------------------------------------------------------------
 Cartesian Forces:  Max     0.000064528 RMS     0.000025252
 Leave Link  716 at Mon Apr 21 19:29:00 2025, MaxMem=   536870912 cpu:               1.1 elap:               0.3
 (Enter /home/szhao/Apps/g16/l103.exe)

 GradGradGradGradGradGradGradGradGradGradGradGradGradGradGradGradGradGrad
 Berny optimization.
 Using GEDIIS/GDIIS optimizer.
 FormGI is forming the generalized inverse of G from B-inverse, IUseBI=4.
 Internal  Forces:  Max     0.000162037 RMS     0.000063618
 Search for a local minimum.
 Step number   3 out of a maximum of   30
 All quantities printed in internal units (Hartrees-Bohrs-Radians)
 RMS Force = .59238D-04 SwitMx=.10000D-02 MixMth= 2
 Mixed Optimization -- En-DIIS/RFO-DIIS
 Swapping is turned off.
 Update second derivatives using D2CorX and points    1    2    3
 DE= -3.62D-06 DEPred=-4.32D-06 R= 8.38D-01
 TightC=F SS=  1.41D+00  RLast= 8.55D-03 DXNew= 5.0454D-01 2.5654D-02
 Trust test= 8.38D-01 RLast= 8.55D-03 DXMaxT set to 3.00D-01
 The second derivative matrix:
                          X1        Y1        Z1        X2        Y2
           X1           0.74654
           Y1          -0.06540   0.53059
           Z1          -0.00180   0.00086   0.50002
           X2           0.00908  -0.01358  -0.00039   0.50976
           Y2           0.03479  -0.02342  -0.00067   0.01325   0.52012
           Z2           0.00118  -0.00065  -0.00002   0.00033   0.00053
           R1          -0.01122   0.01160   0.00033  -0.00769  -0.01083
           R2          -0.01664   0.01452   0.00042  -0.00914  -0.01318
           R3          -0.01616   0.01430   0.00041  -0.00904  -0.01301
           R4           0.00192  -0.00066  -0.00002   0.00019   0.00043
           A1          -0.04046  -0.00848  -0.00027   0.01472   0.01489
           A2          -0.08029   0.03201   0.00090  -0.01199  -0.02282
           A3          -0.07976   0.03132   0.00088  -0.01151  -0.02215
           A4           0.06560  -0.01546  -0.00042   0.00078   0.00718
           A5           0.06566  -0.01601  -0.00044   0.00123   0.00776
           A6           0.07143  -0.02361  -0.00066   0.00656   0.01507
           A7          -0.04472  -0.03159  -0.00094   0.03501   0.04026
           D1           0.00069  -0.00009  -0.00000  -0.00005   0.00000
           D2           0.02072  -0.00694  -0.00019   0.00198   0.00447
           D3          -0.02166   0.00786   0.00022  -0.00258  -0.00532
                          Z2        R1        R2        R3        R4
           Z2           0.50001
           R1          -0.00028   0.34642
           R2          -0.00034  -0.00276   0.34818
           R3          -0.00034  -0.00280  -0.00217   0.34805
           R4           0.00001  -0.00012  -0.00018  -0.00017   0.26331
           A1           0.00030  -0.00239  -0.00294  -0.00290   0.00007
           A2          -0.00066  -0.00637  -0.00480  -0.00496  -0.00045
           A3          -0.00064  -0.00634  -0.00481  -0.00497  -0.00044
           A4           0.00026   0.00566   0.00503   0.00511   0.00022
           A5           0.00028   0.00583   0.00518   0.00526   0.00022
           A6           0.00046   0.00370   0.00243   0.00255   0.00039
           A7           0.00091  -0.00381  -0.00578  -0.00562   0.00039
           D1           0.00000  -0.00011  -0.00012  -0.00012   0.00000
           D2           0.00014  -0.00195  -0.00257  -0.00252   0.00018
           D3          -0.00016   0.00215   0.00284   0.00278  -0.00019
                          A1        A2        A3        A4        A5
           A1           0.16705
           A2          -0.00347   0.15074
           A3          -0.00331  -0.00928   0.15070
           A4          -0.00031   0.00967   0.00959   0.15231
           A5          -0.00020   0.01002   0.00993  -0.00797   0.15173
           A6          -0.00031   0.00209   0.00212  -0.00294  -0.00316
           A7           0.01418  -0.00885  -0.00847  -0.00030  -0.00015
           D1           0.00002  -0.00028  -0.00028   0.00016   0.00017
           D2          -0.00105  -0.00789  -0.00778   0.00517   0.00523
           D3           0.00078   0.00845   0.00833  -0.00538  -0.00546
                          A6        A7        D1        D2        D3
           A6           0.16253
           A7           0.00266   0.19126
           D1           0.00022   0.00016   0.00230
           D2           0.00646   0.00149   0.00005   0.00420
           D3          -0.00686  -0.00230  -0.00005  -0.00205   0.00453
 ITU=  1  1  0
     Eigenvalues ---    0.00230   0.09891   0.10333   0.12885   0.16000
     Eigenvalues ---    0.16000   0.20065   0.26332   0.34439   0.35019
     Eigenvalues ---    0.350291000.000001000.000001000.000001000.00000
     Eigenvalues --- 1000.000001000.000001000.000001000.000001000.00000
 En-DIIS/RFO-DIIS/Sim-DIIS IScMMF=       -3 using points:     3    2
 RFO step:  Lambda=-2.84168987D-07.
 NNeg= 0 NGDIIS= 2 SimSw=  2.50D-03 Rises=F DC= -3.62D-06 SmlDif=  1.00D-05
 NRisDI= 0 DoIntr=F SqrtH=F CThrHd= 10.0 CDAdj=  3.0
 RMS Error=  0.4730913603D-03 NUsed= 2 OKEnD=F EnDIS=F
[...]
           Z2           0.50016
           R1           0.00068   0.34949
           R2          -0.00019  -0.00280   0.34776
           R3          -0.00011  -0.00260  -0.00257   0.34769
           R4           0.00020   0.00036  -0.00017  -0.00013   0.26337
           A1           0.00197   0.00063  -0.00220  -0.00202   0.00016
           A2          -0.00161  -0.00762  -0.00459  -0.00484  -0.00045
           A3          -0.00146  -0.00706  -0.00451  -0.00471  -0.00036
           A4           0.00022   0.00337   0.00413   0.00406  -0.00026
           A5           0.00031   0.00383   0.00435   0.00430  -0.00022
           A6           0.00061   0.00686   0.00286   0.00324   0.00111
           A7           0.00442   0.00600  -0.00356  -0.00283   0.00142
           D1          -0.00001  -0.00000  -0.00012  -0.00011   0.00003
           D2           0.00069   0.00121  -0.00238  -0.00208   0.00081
           D3          -0.00091  -0.00194   0.00251   0.00213  -0.00098
                          A1        A2        A3        A4        A5
           A1           0.16114
           A2           0.00117   0.14886
           A3           0.00159  -0.01139   0.14843
           A4          -0.00612   0.01220   0.01192   0.15185
           A5          -0.00614   0.01248   0.01223  -0.00852   0.15111
           A6           0.00723  -0.00325  -0.00273  -0.00115  -0.00100
           A7           0.01140  -0.00531  -0.00390  -0.01023  -0.00999
           D1           0.00051  -0.00051  -0.00049   0.00022   0.00024
           D2           0.00578  -0.01097  -0.01035   0.00428   0.00466
           D3          -0.00709   0.01216   0.01139  -0.00424  -0.00470
                          A6        A7        D1        D2        D3
           A6           0.16161
           A7           0.01627   0.20189
           D1           0.00006   0.00099   0.00229
           D2           0.00685   0.01597   0.00002   0.00611
           D3          -0.00777  -0.01943  -0.00004  -0.00470   0.00813
 ITU=  0  1  1  0
     Eigenvalues ---    0.00235   0.09476   0.10340   0.13243   0.16000
     Eigenvalues ---    0.16001   0.21278   0.26342   0.34443   0.35028
     Eigenvalues ---    0.352401000.000001000.000001000.000001000.00000
     Eigenvalues --- 1000.000001000.000001000.000001000.000001000.00000
 En-DIIS/RFO-DIIS/Sim-DIIS IScMMF=       -3 using points:     4    3    2
 RFO step:  Lambda=-1.21425603D-09.
 NNeg= 0 NGDIIS= 3 SimSw=  2.50D-01 Rises=F DC= -1.37D-07 SmlDif=  1.00D-05
 NRisDI= 0 DoIntr=F SqrtH=F CThrHd= 10.0 CDAdj=  3.0
 RMS Error=  0.1401043446D-03 NUsed= 3 OKEnD=F EnDIS=F
 InvSVX:  RCond= 1.29D-06 Info=           0 Equed=N FErr=  1.78D-15 BErr=  5.03D-17
 DidBck=T Rises=F RFO-DIIS coefs:    0.67926    0.27515    0.04559
 Iteration  1 RMS(Cart)=  0.00013732 RMS(Int)=  0.00000014
 Iteration  2 RMS(Cart)=  0.00000001 RMS(Int)=  0.00000014
 ITry= 1 IFail=0 DXMaxC= 5.33D-04 DCOld= 1.00D+10 DXMaxT= 3.00D-01 DXLimC= 3.00D+00 Rises=F
 Variable       Old X    -DE/DX   Delta X   Delta X   Delta X     New X
                                 (Linear)    (Quad)   (Total)
    X1       -1.76731  -0.00001  -0.00000   0.00000   0.00000  -1.76731
    Y1        0.00000   0.00001   0.00000   0.00000   0.00000   0.00000
    Z1        0.00000  -0.00000   0.00000   0.00000   0.00000   0.00000
    X2        1.76731   0.00000   0.00000   0.00000   0.00000   1.76731
    Y2        0.00000   0.00000   0.00000   0.00000   0.00000   0.00000
    Z2        0.00000   0.00000   0.00000   0.00000   0.00000   0.00000
    R1        2.05536   0.00001   0.00007  -0.00004   0.00003   2.05539
    R2        2.05420   0.00000   0.00004  -0.00004   0.00001   2.05421
    R3        2.05420   0.00000   0.00005  -0.00004   0.00001   2.05421
    R4        2.53450   0.00000   0.00001  -0.00001   0.00000   2.53450
    A1        1.84612   0.00000   0.00011  -0.00010   0.00001   1.84613
    A2        1.92614  -0.00000   0.00002  -0.00001   0.00001   1.92615
    A3        1.92610   0.00000   0.00003  -0.00001   0.00002   1.92613
    A4        1.91199  -0.00000  -0.00002  -0.00002  -0.00003   1.91196
    A5        1.91195  -0.00000  -0.00001  -0.00001  -0.00002   1.91193
    A6        1.93923   0.00000  -0.00012   0.00014   0.00002   1.93925
    A7        1.67561   0.00001   0.00011  -0.00007   0.00005   1.67565
    D1        3.14106   0.00000  -0.00024  -0.00005  -0.00028   3.14077
    D2       -1.07555  -0.00000  -0.00018  -0.00013  -0.00032  -1.07587
    D3        1.07455   0.00000  -0.00030   0.00002  -0.00028   1.07428
         Item               Value     Threshold  Converged?
 Maximum Force            0.000012     0.000450     YES
 RMS     Force            0.000005     0.000300     YES
 Maximum Displacement     0.000533     0.001800     YES
 RMS     Displacement     0.000137     0.001200     YES
 Predicted change in Energy=-1.158750D-09
 Optimization completed.
    -- Stationary point found.
                           ----------------------------
                           !   Optimized Parameters   !
                           ! (Angstroms and Degrees)  !
 --------------------------                            --------------------------
 ! Name  Definition              Value          Derivative Info.                !
 --------------------------------------------------------------------------------
 ! X1    R(1,-1)                -0.9352         -DE/DX =    0.0                 !
 ! Y1    R(1,-2)                 0.0            -DE/DX =    0.0                 !
 ! Z1    R(1,-3)                 0.0            -DE/DX =    0.0                 !
 ! X2    R(2,-1)                 0.9352         -DE/DX =    0.0                 !
 ! Y2    R(2,-2)                 0.0            -DE/DX =    0.0                 !
 ! Z2    R(2,-3)                 0.0            -DE/DX =    0.0                 !
 ! R1    R(1,4)                  1.0876         -DE/DX =    0.0                 !
 ! R2    R(1,5)                  1.087          -DE/DX =    0.0                 !
 ! R3    R(1,6)                  1.087          -DE/DX =    0.0                 !
 ! R4    R(2,3)                  1.3412         -DE/DX =    0.0                 !
 ! A1    A(2,1,4)              105.7749         -DE/DX =    0.0                 !
 ! A2    A(2,1,5)              110.3596         -DE/DX =    0.0                 !
 ! A3    A(2,1,6)              110.3577         -DE/DX =    0.0                 !
 ! A4    A(4,1,5)              109.5492         -DE/DX =    0.0                 !
 ! A5    A(4,1,6)              109.5469         -DE/DX =    0.0                 !
 ! A6    A(5,1,6)              111.1098         -DE/DX =    0.0                 !
 ! A7    A(1,2,3)               96.0052         -DE/DX =    0.0                 !
 ! D1    D(4,1,2,3)            179.9695         -DE/DX =    0.0                 !
 ! D2    D(5,1,2,3)            -61.6246         -DE/DX =    0.0                 !
 ! D3    D(6,1,2,3)             61.5673         -DE/DX =    0.0                 !
 --------------------------------------------------------------------------------
 Lowest energy point so far.  Saving SCF results.
 Largest change from initial coordinates is atom    5       0.018 Angstoms.
 GradGradGradGradGradGradGradGradGradGradGradGradGradGradGradGradGradGrad

 Leave Link  103 at Mon Apr 21 19:29:20 2025, MaxMem=   536870912 cpu:               0.5 elap:               0.1
 (Enter /home/szhao/Apps/g16/l202.exe)
                          Input orientation:                          
 ---------------------------------------------------------------------
 Center     Atomic      Atomic             Coordinates (Angstroms)
 Number     Number       Type             X           Y           Z
 ---------------------------------------------------------------------
      1          6           0       -0.935220    0.000000    0.000000
      2         16           0        0.935220    0.000000    0.000000
      3          1           0        1.075533   -1.333836   -0.002111
      4          1           0       -1.230906    1.046684    0.002215
      5          1           0       -1.313412   -0.482917   -0.897448
      6          1           0       -1.313378   -0.486658    0.895440
 ---------------------------------------------------------------------
                    Distance matrix (angstroms):
                    1          2          3          4          5
     1  C    0.000000
     2  S    1.870439   0.000000
     3  H    2.412934   1.341197   0.000000
     4  H    1.087650   2.405754   3.314597   0.000000
     5  H    1.087038   2.468799   2.689377   1.776480   0.000000
     6  H    1.087038   2.468773   2.688904   1.776454   1.792892
                    6
     6  H    0.000000
 Symmetry turned off by external request.
 Stoichiometry    CH4S
 Framework group  C1[X(CH4S)]
 Deg. of freedom    12
 Full point group                 C1      NOp   1
 Rotational constants (GHZ):         102.5697285          12.3173818          11.8307798
 Leave Link  202 at Mon Apr 21 19:29:21 2025, MaxMem=   536870912 cpu:               0.1 elap:               0.1
 (Enter /home/szhao/Apps/g16/l601.exe)
 Copying SCF densities to generalized density rwf, IOpCl= 1 IROHF=0.

 **********************************************************************

            Population analysis using the SCF density.

 **********************************************************************

 Alpha  occ. eigenvalues --  -89.89082 -10.57027  -8.25630  -6.17768  -6.17557
 Alpha  occ. eigenvalues --   -6.17116  -0.86701  -0.73473  -0.51533  -0.50012
 Alpha  occ. eigenvalues --   -0.44900  -0.39056  -0.29587
 Alpha virt. eigenvalues --    0.01174   0.03181   0.04747   0.05307   0.06926
 Alpha virt. eigenvalues --    0.08117   0.08845   0.09401   0.12747   0.14122
 Alpha virt. eigenvalues --    0.17913   0.17950   0.26096   0.33145   0.34775
 Alpha virt. eigenvalues --    0.36464   0.40459   0.42500   0.45321   0.51591
 Alpha virt. eigenvalues --    0.61320   0.63699   0.64964   0.73829   0.77805
 Alpha virt. eigenvalues --    0.78228   0.83916   0.86217   1.00118   1.03998
 Alpha virt. eigenvalues --    1.14723   1.14906   1.47715   1.48239   1.50675
 Alpha virt. eigenvalues --    1.56948   1.60688   1.64721   1.66008   1.66019
 Alpha virt. eigenvalues --    1.82092   1.82304   1.90338   2.01084   2.13494
 Alpha virt. eigenvalues --    2.20076   2.22560   2.46532   2.49370   2.51286
 Alpha virt. eigenvalues --    2.55752   2.55910   2.64345   2.84076   3.15420
 Alpha virt. eigenvalues --    3.76248   3.77347   7.97848  17.49899  17.55038
 Alpha virt. eigenvalues --   17.59824  23.97640 189.25060
  Beta  occ. eigenvalues --  -89.89082 -10.57027  -8.25630  -6.17768  -6.17557
  Beta  occ. eigenvalues --   -6.17116  -0.86701  -0.73473  -0.51533  -0.50012
  Beta  occ. eigenvalues --   -0.44900  -0.39056  -0.29587
  Beta virt. eigenvalues --    0.01174   0.03181   0.04747   0.05307   0.06926
  Beta virt. eigenvalues --    0.08117   0.08845   0.09401   0.12747   0.14122
  Beta virt. eigenvalues --    0.17913   0.17950   0.26096   0.33145   0.34775
  Beta virt. eigenvalues --    0.36464   0.40459   0.42500   0.45321   0.51591
  Beta virt. eigenvalues --    0.61320   0.63699   0.64964   0.73829   0.77805
  Beta virt. eigenvalues --    0.78228   0.83916   0.86217   1.00118   1.03998
  Beta virt. eigenvalues --    1.14723   1.14906   1.47715   1.48239   1.50675
  Beta virt. eigenvalues --    1.56948   1.60688   1.64721   1.66008   1.66019
  Beta virt. eigenvalues --    1.82092   1.82304   1.90338   2.01084   2.13494
  Beta virt. eigenvalues --    2.20076   2.22560   2.46532   2.49370   2.51286
  Beta virt. eigenvalues --    2.55752   2.55910   2.64345   2.84076   3.15420
  Beta virt. eigenvalues --    3.76248   3.77347   7.97848  17.49899  17.55038
  Beta virt. eigenvalues --   17.59824  23.97640 189.25060
          Condensed to atoms (all electrons):
               1          2          3          4          5          6
     1  C    5.258631   0.172771  -0.010792   0.405737   0.394498   0.394523
     2  S    0.172771  15.731290   0.261888  -0.044829  -0.047640  -0.047628
     3  H   -0.010792   0.261888   0.690342   0.005264  -0.005423  -0.005431
     4  H    0.405737  -0.044829   0.005264   0.491738  -0.024759  -0.024745
     5  H    0.394498  -0.047640  -0.005423  -0.024759   0.524897  -0.034317
     6  H    0.394523  -0.047628  -0.005431  -0.024745  -0.034317   0.524867
          Atomic-Atomic Spin Densities.
               1          2          3          4          5          6
     1  C    0.000000  -0.000000  -0.000000  -0.000000   0.000000  -0.000000
     2  S   -0.000000   0.000000   0.000000   0.000000  -0.000000   0.000000
     3  H   -0.000000   0.000000  -0.000000   0.000000   0.000000  -0.000000
     4  H   -0.000000   0.000000   0.000000  -0.000000  -0.000000  -0.000000
     5  H    0.000000  -0.000000   0.000000  -0.000000  -0.000000  -0.000000
     6  H   -0.000000   0.000000  -0.000000  -0.000000  -0.000000  -0.000000
 Mulliken charges and spin densities:
               1          2
     1  C   -0.615368   0.000000
     2  S   -0.025853  -0.000000
     3  H    0.064153  -0.000000
     4  H    0.191594  -0.000000
     5  H    0.192745  -0.000000
     6  H    0.192730  -0.000000
 Sum of Mulliken charges =  -0.00000  -0.00000
 Mulliken charges and spin densities with hydrogens summed into heavy atoms:
               1          2
     1  C   -0.038300   0.000000
     2  S    0.038300  -0.000000
 Electronic spatial extent (au):  <R**2>=            155.4273
 Charge=             -0.0000 electrons
 Dipole moment (field-independent basis, Debye):
    X=             -1.5041    Y=             -0.9248    Z=             -0.0014  Tot=              1.7657
 Quadrupole moment (field-independent basis, Debye-Ang):
   XX=            -21.2976   YY=            -19.2238   ZZ=            -22.9205
   XY=             -1.5770   XZ=             -0.0026   YZ=              0.0059
 Traceless Quadrupole moment (field-independent basis, Debye-Ang):
   XX=             -0.1503   YY=              1.9235   ZZ=             -1.7732
   XY=             -1.5770   XZ=             -0.0026   YZ=              0.0059
 Octapole moment (field-independent basis, Debye-Ang**2):
  XXX=            -15.9023  YYY=              1.8648  ZZZ=             -0.0019  XYY=             -4.6641
  XXY=             -1.2498  XXZ=             -0.0019  XZZ=             -8.6890  YZZ=             -0.1000
  YYZ=              0.0046  XYZ=              0.0064
 Hexadecapole moment (field-independent basis, Debye-Ang**3):
 XXXX=           -149.6820 YYYY=            -35.4949 ZZZZ=            -38.4628 XXXY=             -0.3756
 XXXZ=             -0.0004 YYYX=             -0.7019 YYYZ=              0.0055 ZZZX=              0.0097
 ZZZY=             -0.0007 XXYY=            -29.4650 XXZZ=            -33.2091 YYZZ=            -12.9446
 XXYZ=              0.0060 YYXZ=             -0.0082 ZZXY=              1.7006
 N-N= 5.537221279502D+01 E-N=-1.151528891336D+03  KE= 4.379711538209D+02
                          Isotropic Fermi Contact Couplings
        Atom                 a.u.       MegaHertz       Gauss      10(-4) cm-1
     1  C(13)             -0.00000      -0.00000      -0.00000      -0.00000
     2  S(33)              0.00000       0.00000       0.00000       0.00000
     3  H(1)               0.00000       0.00000       0.00000       0.00000
     4  H(1)              -0.00000      -0.00000      -0.00000      -0.00000
     5  H(1)              -0.00000      -0.00000      -0.00000      -0.00000
     6  H(1)              -0.00000      -0.00000      -0.00000      -0.00000
 --------------------------------------------------------
       Center         ----  Spin Dipole Couplings  ----
                      3XX-RR        3YY-RR        3ZZ-RR
 --------------------------------------------------------
     1   Atom        0.000000      0.000000      0.000000
     2   Atom        0.000000      0.000000      0.000000
     3   Atom        0.000000      0.000000      0.000000
     4   Atom        0.000000      0.000000      0.000000
     5   Atom        0.000000      0.000000      0.000000
     6   Atom        0.000000      0.000000      0.000000
 --------------------------------------------------------
                        XY            XZ            YZ
 --------------------------------------------------------
     1   Atom        0.000000      0.000000      0.000000
     2   Atom        0.000000      0.000000      0.000000
     3   Atom        0.000000      0.000000      0.000000
     4   Atom        0.000000      0.000000      0.000000
     5   Atom        0.000000      0.000000      0.000000
     6   Atom        0.000000      0.000000      0.000000
 --------------------------------------------------------


 ---------------------------------------------------------------------------------
              Anisotropic Spin Dipole Couplings in Principal Axis System
 ---------------------------------------------------------------------------------

       Atom             a.u.   MegaHertz   Gauss  10(-4) cm-1        Axes

              Baa     0.0000     0.000     0.000     0.000  1.0000  0.0000  0.0000
     1 C(13)  Bbb     0.0000     0.000     0.000     0.000 -0.0000  1.0000  0.0000
              Bcc     0.0000     0.000     0.000     0.000  0.0000  0.0000  1.0000
 
              Baa     0.0000     0.000     0.000     0.000  1.0000  0.0000  0.0000
     2 S(33)  Bbb     0.0000     0.000     0.000     0.000 -0.0000  1.0000  0.0000
              Bcc     0.0000     0.000     0.000     0.000  0.0000  0.0000  1.0000
 
              Baa     0.0000     0.000     0.000     0.000  1.0000  0.0000  0.0000
     3 H(1)   Bbb     0.0000     0.000     0.000     0.000 -0.0000  1.0000  0.0000
              Bcc     0.0000     0.000     0.000     0.000  0.0000  0.0000  1.0000
 
              Baa     0.0000     0.000     0.000     0.000  1.0000  0.0000  0.0000
     4 H(1)   Bbb     0.0000     0.000     0.000     0.000 -0.0000  1.0000  0.0000
              Bcc     0.0000     0.000     0.000     0.000  0.0000  0.0000  1.0000
 
              Baa     0.0000     0.000     0.000     0.000  1.0000  0.0000  0.0000
     5 H(1)   Bbb     0.0000     0.000     0.000     0.000 -0.0000  1.0000  0.0000
              Bcc     0.0000     0.000     0.000     0.000  0.0000  0.0000  1.0000
 
              Baa     0.0000     0.000     0.000     0.000  1.0000  0.0000  0.0000
     6 H(1)   Bbb     0.0000     0.000     0.000     0.000 -0.0000  1.0000  0.0000
              Bcc     0.0000     0.000     0.000     0.000  0.0000  0.0000  1.0000
 

 ---------------------------------------------------------------------------------

 No NMR shielding tensors so no spin-rotation constants.
 Leave Link  601 at Mon Apr 21 19:29:21 2025, MaxMem=   536870912 cpu:               1.6 elap:               0.2
 (Enter /home/szhao/Apps/g16/l9999.exe)
 1\1\GINC-NODE03\FOpt\UM062X\6-311+G(d,p)\C1H4S1\SZHAO\21-Apr-2025\0\\#
 p opt UM062X/6-311+G** nosymm int=superfine\\Title Card Required\\0,1\
 C,-0.93521951,0.,0.\S,0.93521951,0.,0.\H,1.0755331149,-1.3338356581,-0
 .0021114865\H,-1.2309057329,1.0466838329,0.0022146992\H,-1.3134120032,
 -0.4829173904,-0.8974484934\H,-1.3133779857,-0.4866576826,0.8954395761
 \\Version=ES64L-G16RevA.03\HF=-438.6743145\S2=0.\S2-1=0.\S2A=0.\RMSD=2
 .440e-09\RMSF=3.517e-06\Dipole=-0.5917688,-0.3638461,-0.0005533\Quadru
 pole=-0.1117129,1.4300698,-1.3183569,-1.1724557,-0.001909,0.0043712\PG
 =C01 [X(C1H4S1)]\\@


 IT IS BY EATING THE LIGHT OF A STAR THAT WE EXIST, 
 IN THE FINAL ANALYSIS, 
 JUST AS IT IS BY PERCEIVING THE LIGHT OF STARS
 THAT WE DEFINE THE WORLD AROUND US.

                                    -- GILBERT GROSVENOR
 Job cpu time:       0 days  0 hours  9 minutes  6.5 seconds.
 Elapsed time:       0 days  0 hours  1 minutes 14.8 seconds.
 File lengths (MBytes):  RWF=     22 Int=      0 D2E=      0 Chk=      2 Scr=      2
 Normal termination of Gaussian 16 at Mon Apr 21 19:29:22 2025.
