 Entering Gaussian System, Link 0=g16
 Initial command:
 /home/szhao/Apps/g16/l1.exe "/home/szhao/tmp/Gau-168657.inp" -scrdir="/home/szhao/tmp/"
 Default is to use a total of  16 processors:
                               16 via shared-memory
                                1 via Linda
 Entering Link 1 = /home/szhao/Apps/g16/l1.exe PID=    168658.
  
 Copyright (c) 1988,1990,1992,1993,1995,1998,2003,2009,2016,
            Gaussian, Inc.  All Rights Reserved.
  
 This is part of the Gaussian(R) 16 program.  It is based on
 the Gaussian(R) 09 system (copyright 2009, Gaussian, Inc.),
 the Gaussian(R) 03 system (copyright 2003, Gaussian, Inc.),
 the Gaussian(R) 98 system (copyright 1998, Gaussian, Inc.),
 the Gaussian(R) 94 system (copyright 1995, Gaussian, Inc.),
 the Gaussian 92(TM) system (copyright 1992, Gaussian, Inc.),
 the Gaussian 90(TM) system (copyright 1990, Gaussian, Inc.),
 the Gaussian 88(TM) system (copyright 1988, Gaussian, Inc.),
 the Gaussian 86(TM) system (copyright 1986, Carnegie Mellon
 University), and the Gaussian 82(TM) system (copyright 1983,
 Carnegie Mellon University). Gaussian is a federally registered
 trademark of Gaussian, Inc.
  
 This software contains proprietary and confidential information,
 including trade secrets, belonging to Gaussian, Inc.
  
 This software is provided under written license and may be
 used, copied, transmitted, or stored only in accord with that
 written license.
  
 The following legend is applicable only to US Government
 contracts under FAR:
  
                    RESTRICTED RIGHTS LEGEND
  
 Use, reproduction and disclosure by the US Government is
 subject to restrictions as set forth in subparagraphs (a)
 and (c) of the Commercial Computer Software - Restricted
 Rights clause in FAR 52.227-19.
  
 Gaussian, Inc.
 340 Quinnipiac St., Bldg. 40, Wallingford CT 06492
  
  
 ---------------------------------------------------------------
 Warning -- This program may not be used in any manner that
 competes with the business of Gaussian, Inc. or will provide
 assistance to any competitor of Gaussian, Inc.  The licensee
 of this program is prohibited from giving any competitor of
 Gaussian, Inc. access to this program.  By using this program,
 the user acknowledges that Gaussian, Inc. is engaged in the
 business of creating and licensing software in the field of
 computational chemistry and represents and warrants to the
 licensee that it is not a competitor of Gaussian, Inc. and that
 it will not use this program in any manner prohibited above.
 ---------------------------------------------------------------
  

 Cite this work as:
 Gaussian 16, Revision A.03,
 M. J. Frisch, G. W. Trucks, H. B. Schlegel, G. E. Scuseria, 
 M. A. Robb, J. R. Cheeseman, G. Scalmani, V. Barone, 
 G. A. Petersson, H. Nakatsuji, X. Li, M. Caricato, A. V. Marenich, 
 J. Bloino, B. G. Janesko, R. Gomperts, B. Mennucci, H. P. Hratchian, 
 J. V. Ortiz, A. F. Izmaylov, J. L. Sonnenberg, D. Williams-Young, 
 F. Ding, F. Lipparini, F. Egidi, J. Goings, B. Peng, A. Petrone, 
 T. Henderson, D. Ranasinghe, V. G. Zakrzewski, J. Gao, N. Rega, 
 G. Zheng, W. Liang, M. Hada, M. Ehara, K. Toyota, R. Fukuda, 
 J. Hasegawa, M. Ishida, T. Nakajima, Y. Honda, O. Kitao, H. Nakai, 
 T. Vreven, K. Throssell, J. A. Montgomery, Jr., J. E. Peralta, 
 F. Ogliaro, M. J. Bearpark, J. J. Heyd, E. N. Brothers, K. N. Kudin, 
 V. N. Staroverov, T. A. Keith, R. Kobayashi, J. Normand, 
 K. Raghavachari, A. P. Rendell, J. C. Burant, S. S. Iyengar, 
 J. Tomasi, M. Cossi, J. M. Millam, M. Klene, C. Adamo, R. Cammi, 
 J. W. Ochterski, R. L. Martin, K. Morokuma, O. Farkas, 
 J. B. Foresman, and D. J. Fox, Gaussian, Inc., Wallingford CT, 2016.
 
 ******************************************
 Gaussian 16:  ES64L-G16RevA.03 25-Dec-2016
                21-Apr-2025 
 ******************************************
 %chk=opt.chk
 %mem=4GB
 %nprocshared=8
 Will use up to    8 processors via shared memory.
 --------------------------------------------
 #p opt UM062X/6-311+G** nosymm int=superfine
 --------------------------------------------
 1/18=20,19=15,26=5,38=1/1,3;
 2/9=110,12=2,15=1,17=6,18=5,40=1/2;
 3/5=4,6=6,7=111,11=2,25=1,30=1,71=1,74=-55,75=-7,116=2/1,2,3;
 4//1;
 5/5=2,38=5/2;
 6/7=2,8=2,9=2,10=2,28=1/1;
 7/30=1/1,2,3,16;
 1/18=20,19=15,26=5/3(2);
 2/9=110,15=1/2;
 99//99;
 2/9=110,15=1/2;
 3/5=4,6=6,7=111,11=2,25=1,30=1,71=1,74=-55,75=-7,116=2/1,2,3;
 4/5=5,16=3,69=1/1;
 5/5=2,38=5/2;
 7/30=1/1,2,3,16;
 1/18=20,19=15,26=5/3(-5);
 2/9=110,15=1/2;
 6/7=2,8=2,9=2,10=2,19=2,28=1/1;
 99/9=1/99;
 Leave Link    1 at Mon Apr 21 18:47:25 2025, MaxMem=   536870912 cpu:               1.8 elap:               0.2
 (Enter /home/szhao/Apps/g16/l101.exe)
 -------------------
 Title Card Required
 -------------------
 Symbolic Z-matrix:
 Charge =  0 Multiplicity = 1
 C                    -1   -0.94831   0.        0. 
 O                    -1    0.94831   0.        0. 
 H                    0    -1.53021  -0.9393    0. 
 H                    0    -1.53021   0.9393    0. 
 
 Add virtual bond connecting atoms O2         and C1         Dist= 3.58D+00.
 ITRead=  2  2  0  0
 MicOpt= -2 -2 -1 -1
 NAtoms=      4 NQM=        2 NQMF=       2 NMMI=      0 NMMIF=      0
                NMic=       0 NMicF=      0.
                    Isotopes and Nuclear Properties:
 (Nuclear quadrupole moments (NQMom) in fm**2, nuclear magnetic moments (NMagM)
  in nuclear magnetons)

  Atom         1           2           3           4
 IAtWgt=          12          16           1           1
 AtmWgt=  12.0000000  15.9949146   1.0078250   1.0078250
 NucSpn=           0           0           1           1
 AtZEff=  -0.0000000  -0.0000000  -0.0000000  -0.0000000
 NQMom=    0.0000000   0.0000000   0.0000000   0.0000000
 NMagM=    0.0000000   0.0000000   2.7928460   2.7928460
 AtZNuc=   6.0000000   8.0000000   1.0000000   1.0000000
 Leave Link  101 at Mon Apr 21 18:47:26 2025, MaxMem=   536870912 cpu:               2.7 elap:               0.4
 (Enter /home/szhao/Apps/g16/l103.exe)

 GradGradGradGradGradGradGradGradGradGradGradGradGradGradGradGradGradGrad
 Berny optimization.
 Initialization pass.
                           ----------------------------
                           !    Initial Parameters    !
                           ! (Angstroms and Degrees)  !
 --------------------------                            --------------------------
 ! Name  Definition              Value          Derivative Info.                !
 --------------------------------------------------------------------------------
 ! X1    R(1,-1)                -0.9483         Frozen                          !
 ! Y1    R(1,-2)                 0.0            Frozen                          !
 ! Z1    R(1,-3)                 0.0            Frozen                          !
 ! X2    R(2,-1)                 0.9483         Frozen                          !
 ! Y2    R(2,-2)                 0.0            Frozen                          !
 ! Z2    R(2,-3)                 0.0            Frozen                          !
 ! R1    R(1,3)                  1.1049         estimate D2E/DX2                !
 ! R2    R(1,4)                  1.1049         estimate D2E/DX2                !
 ! A1    A(2,1,3)              121.7782         estimate D2E/DX2                !
 ! A2    A(2,1,4)              121.7786         estimate D2E/DX2                !
 ! A3    A(3,1,4)              116.4432         estimate D2E/DX2                !
 ! D1    D(2,1,4,3)           -180.0            estimate D2E/DX2                !
 --------------------------------------------------------------------------------
 Trust Radius=3.00D-01 FncErr=1.00D-07 GrdErr=1.00D-07 EigMax=2.50D+02 EigMin=1.00D-04
 Number of steps in this run=     22 maximum allowed number of steps=    100.
 GradGradGradGradGradGradGradGradGradGradGradGradGradGradGradGradGradGrad

 Leave Link  103 at Mon Apr 21 18:47:27 2025, MaxMem=   536870912 cpu:               0.4 elap:               0.2
 (Enter /home/szhao/Apps/g16/l202.exe)
                          Input orientation:                          
 ---------------------------------------------------------------------
 Center     Atomic      Atomic             Coordinates (Angstroms)
 Number     Number       Type             X           Y           Z
 ---------------------------------------------------------------------
      1          6           0       -0.948311    0.000000    0.000000
      2          8           0        0.948311    0.000000    0.000000
      3          1           0       -1.530206   -0.939299    0.000000
      4          1           0       -1.530213    0.939296    0.000001
 ---------------------------------------------------------------------
                    Distance matrix (angstroms):
                    1          2          3          4
     1  C    0.000000
     2  O    1.896622   0.000000
     3  H    1.104937   2.650534   0.000000
     4  H    1.104937   2.650539   1.878595   0.000000
 Symmetry turned off by external request.
 Stoichiometry    CH2O
 Framework group  CS[SG(CH2O)]
 Deg. of freedom     5
 Full point group                 CS      NOp   2
 Rotational constants (GHZ):         284.1814423          16.9142656          15.9640947
 Leave Link  202 at Mon Apr 21 18:47:27 2025, MaxMem=   536870912 cpu:               0.1 elap:               0.0
 (Enter /home/szhao/Apps/g16/l301.exe)
 Standard basis: 6-311+G(d,p) (5D, 7F)
 Ernie: Thresh=  0.10000D-02 Tol=  0.10000D-05 Strict=F.
    56 basis functions,    88 primitive gaussians,    58 cartesian basis functions
     8 alpha electrons        8 beta electrons
       nuclear repulsion energy        22.6156198232 Hartrees.
 IExCor= 4336 DFT=T Ex+Corr=M062X ExCW=0 ScaHFX=  0.540000
 ScaDFX=  1.000000  1.000000  1.000000  1.000000 ScalE2=  1.000000  1.000000
 IRadAn=      7 IRanWt=     -1 IRanGd=            0 ICorTp=0 IEmpDi=  4
 NAtoms=    4 NActive=    4 NUniq=    4 SFac= 1.00D+00 NAtFMM=   60 NAOKFM=F Big=F
 Integral buffers will be    131072 words long.
 Raffenetti 2 integral format.
 Two-electron integral symmetry is turned off.
 Leave Link  301 at Mon Apr 21 18:47:27 2025, MaxMem=   536870912 cpu:               0.7 elap:               0.2
 (Enter /home/szhao/Apps/g16/l302.exe)
 NPDir=0 NMtPBC=     1 NCelOv=     1 NCel=       1 NClECP=     1 NCelD=      1
         NCelK=      1 NCelE2=     1 NClLst=     1 CellRange=     0.0.
 One-electron integrals computed using PRISM.
 NBasis=    56 RedAO= T EigKep=  1.40D-02  NBF=    56
 NBsUse=    56 1.00D-06 EigRej= -1.00D+00 NBFU=    56
 Precomputing XC quadrature grid using
 IXCGrd= 4 IRadAn=           7 IRanWt=          -1 IRanGd=           0 AccXCQ= 0.00D+00.
 Generated NRdTot=       0 NPtTot=           0 NUsed=           0 NTot=          32
 NSgBfM=    58    58    58    58    58 MxSgAt=     4 MxSgA2=     4.
 Leave Link  302 at Mon Apr 21 18:47:28 2025, MaxMem=   536870912 cpu:               1.7 elap:               0.2
 (Enter /home/szhao/Apps/g16/l303.exe)
 DipDrv:  MaxL=1.
 Leave Link  303 at Mon Apr 21 18:47:28 2025, MaxMem=   536870912 cpu:               0.7 elap:               0.2
 (Enter /home/szhao/Apps/g16/l401.exe)
 ExpMin= 4.38D-02 ExpMax= 8.59D+03 ExpMxC= 1.30D+03 IAcc=3 IRadAn=         7 AccDes= 0.00D+00
 Harris functional with IExCor= 1009 and IRadAn=       7 diagonalized for initial guess.
 HarFok:  IExCor= 1009 AccDes= 0.00D+00 IRadAn=         7 IDoV= 1 UseB2=F ITyADJ=14
 ICtDFT=  3500011 ScaDFX=  1.000000  1.000000  1.000000  1.000000
 FoFCou: FMM=F IPFlag=           0 FMFlag=      100000 FMFlg1=           0
         NFxFlg=           0 DoJE=T BraDBF=F KetDBF=T FulRan=T
         wScrn=  0.000000 ICntrl=       500 IOpCl=  0 I1Cent=   200000004 NGrid=           0
         NMat0=    1 NMatS0=      1 NMatT0=    0 NMatD0=    1 NMtDS0=    0 NMtDT0=    0
 Symmetry not used in FoFCou.
 Harris En= -114.241097290472    
 JPrj=0 DoOrth=F DoCkMO=F.
 Initial guess <Sx>= 0.0000 <Sy>= 0.0000 <Sz>= 0.0000 <S**2>=-0.0000 S=-0.0000
 Leave Link  401 at Mon Apr 21 18:47:28 2025, MaxMem=   536870912 cpu:               2.5 elap:               0.4
 (Enter /home/szhao/Apps/g16/l502.exe)
 Keep R1 and R2 ints in memory in canonical form, NReq=9624206.
 FoFCou: FMM=F IPFlag=           0 FMFlag=           0 FMFlg1=           0
         NFxFlg=           0 DoJE=F BraDBF=F KetDBF=F FulRan=T
         wScrn=  0.000000 ICntrl=       600 IOpCl=  0 I1Cent=           0 NGrid=           0
         NMat0=    1 NMatS0=   1596 NMatT0=    0 NMatD0=    1 NMtDS0=    0 NMtDT0=    0
 Symmetry not used in FoFCou.
 Two-electron integral symmetry not used.
 UHF open shell SCF:
 Using DIIS extrapolation, IDIIS=  1040.
 NGot=   536870912 LenX=   534314330 LenY=   534310525
 Requested convergence on RMS density matrix=1.00D-08 within 128 cycles.
 Requested convergence on MAX density matrix=1.00D-06.
 Requested convergence on             energy=1.00D-06.
 No special actions if energy rises.

 Cycle   1  Pass 1  IDiag  1:
 E= -114.090842736551    
 DIIS: error= 6.74D-02 at cycle   1 NSaved=   1.
 NSaved= 1 IEnMin= 1 EnMin= -114.090842736551     IErMin= 1 ErrMin= 6.74D-02
 ErrMax= 6.74D-02  0.00D+00 EMaxC= 1.00D-01 BMatC= 6.85D-01 BMatP= 6.85D-01
 IDIUse=3 WtCom= 3.26D-01 WtEn= 6.74D-01
 Coeff-Com:  0.100D+01
 Coeff-En:   0.100D+01
 Coeff:      0.100D+01
 Gap=    -0.129 Goal=   None    Shift=    0.000
 Gap=    -0.129 Goal=   None    Shift=    0.000
 GapD=   -0.129 DampG=0.250 DampE=0.500 DampFc=0.2500 IDamp=-1.
 Damping current iteration by 2.50D-01
 RMSDP=1.63D-02 MaxDP=1.70D-01              OVMax= 8.05D-01

 Cycle   2  Pass 1  IDiag  1:
 E= -114.120820180188     Delta-E=       -0.029977443638 Rises=F Damp=T
 DIIS: error= 1.75D-02 at cycle   2 NSaved=   2.
 NSaved= 2 IEnMin= 2 EnMin= -114.120820180188     IErMin= 2 ErrMin= 1.75D-02
 ErrMax= 1.75D-02  0.00D+00 EMaxC= 1.00D-01 BMatC= 6.58D-02 BMatP= 6.85D-01
 IDIUse=3 WtCom= 8.25D-01 WtEn= 1.75D-01
 Coeff-Com:  0.833D-01 0.917D+00
 Coeff-En:   0.399D+00 0.601D+00
 Coeff:      0.139D+00 0.861D+00
 Gap=     0.111 Goal=   None    Shift=    0.000
 Gap=     0.111 Goal=   None    Shift=    0.000
 RMSDP=2.67D-03 MaxDP=2.99D-02 DE=-3.00D-02 OVMax= 6.77D-01

 Cycle   3  Pass 1  IDiag  1:
 E= -114.244270070350     Delta-E=       -0.123449890162 Rises=F Damp=F
 DIIS: error= 7.99D-03 at cycle   3 NSaved=   3.
 NSaved= 3 IEnMin= 3 EnMin= -114.244270070350     IErMin= 3 ErrMin= 7.99D-03
 ErrMax= 7.99D-03  0.00D+00 EMaxC= 1.00D-01 BMatC= 1.00D-02 BMatP= 6.58D-02
 IDIUse=3 WtCom= 9.20D-01 WtEn= 7.99D-02
 Coeff-Com:  0.232D-01 0.188D+00 0.789D+00
 Coeff-En:   0.000D+00 0.000D+00 0.100D+01
 Coeff:      0.214D-01 0.173D+00 0.806D+00
 Gap=     0.203 Goal=   None    Shift=    0.000
 Gap=     0.203 Goal=   None    Shift=    0.000
 RMSDP=8.76D-04 MaxDP=1.81D-02 DE=-1.23D-01 OVMax= 3.08D-02

 Cycle   4  Pass 1  IDiag  1:
 E= -114.246164457385     Delta-E=       -0.001894387035 Rises=F Damp=F
 DIIS: error= 5.11D-03 at cycle   4 NSaved=   4.
 NSaved= 4 IEnMin= 4 EnMin= -114.246164457385     IErMin= 4 ErrMin= 5.11D-03
 ErrMax= 5.11D-03  0.00D+00 EMaxC= 1.00D-01 BMatC= 3.49D-03 BMatP= 1.00D-02
 IDIUse=3 WtCom= 9.49D-01 WtEn= 5.11D-02
 Coeff-Com:  0.416D-01-0.665D-01 0.238D+00 0.787D+00
 Coeff-En:   0.000D+00 0.000D+00 0.964D-01 0.904D+00
 Coeff:      0.395D-01-0.631D-01 0.230D+00 0.793D+00
 Gap=     0.217 Goal=   None    Shift=    0.000
 Gap=     0.217 Goal=   None    Shift=    0.000
 RMSDP=2.91D-04 MaxDP=6.51D-03 DE=-1.89D-03 OVMax= 7.52D-03

 Cycle   5  Pass 1  IDiag  1:
 E= -114.246943217979     Delta-E=       -0.000778760594 Rises=F Damp=F
 DIIS: error= 2.14D-03 at cycle   5 NSaved=   5.
 NSaved= 5 IEnMin= 5 EnMin= -114.246943217979     IErMin= 5 ErrMin= 2.14D-03
 ErrMax= 2.14D-03  0.00D+00 EMaxC= 1.00D-01 BMatC= 4.24D-04 BMatP= 3.49D-03
 IDIUse=3 WtCom= 9.79D-01 WtEn= 2.14D-02
 Coeff-Com:  0.237D-01-0.377D-01 0.249D-01 0.734D-01 0.916D+00
 Coeff-En:   0.000D+00 0.000D+00 0.000D+00 0.000D+00 0.100D+01
 Coeff:      0.232D-01-0.369D-01 0.244D-01 0.718D-01 0.918D+00
 Gap=     0.217 Goal=   None    Shift=    0.000
 Gap=     0.217 Goal=   None    Shift=    0.000
 RMSDP=9.03D-05 MaxDP=8.21D-04 DE=-7.79D-04 OVMax= 2.77D-03

 Cycle   6  Pass 1  IDiag  1:
 E= -114.247034135185     Delta-E=       -0.000090917206 Rises=F Damp=F
 DIIS: error= 6.43D-04 at cycle   6 NSaved=   6.
 NSaved= 6 IEnMin= 6 EnMin= -114.247034135185     IErMin= 6 ErrMin= 6.43D-04
 ErrMax= 6.43D-04  0.00D+00 EMaxC= 1.00D-01 BMatC= 4.44D-05 BMatP= 4.24D-04
 IDIUse=3 WtCom= 9.94D-01 WtEn= 6.43D-03
 Coeff-Com:  0.510D-02-0.612D-02 0.540D-02-0.561D-01 0.472D-01 0.100D+01
 Coeff-En:   0.000D+00 0.000D+00 0.000D+00 0.000D+00 0.000D+00 0.100D+01
 Coeff:      0.507D-02-0.608D-02 0.536D-02-0.557D-01 0.469D-01 0.100D+01
 Gap=     0.216 Goal=   None    Shift=    0.000
 Gap=     0.216 Goal=   None    Shift=    0.000
 RMSDP=3.11D-05 MaxDP=4.40D-04 DE=-9.09D-05 OVMax= 9.79D-04

 Cycle   7  Pass 1  IDiag  1:
 E= -114.247044626069     Delta-E=       -0.000010490884 Rises=F Damp=F
 DIIS: error= 1.14D-04 at cycle   7 NSaved=   7.
 NSaved= 7 IEnMin= 7 EnMin= -114.247044626069     IErMin= 7 ErrMin= 1.14D-04
 ErrMax= 1.14D-04  0.00D+00 EMaxC= 1.00D-01 BMatC= 1.70D-06 BMatP= 4.44D-05
 IDIUse=3 WtCom= 9.99D-01 WtEn= 1.14D-03
 Coeff-Com:  0.903D-03-0.127D-02 0.347D-02 0.283D-02-0.188D-01-0.444D-01
 Coeff-Com:  0.106D+01
 Coeff-En:   0.000D+00 0.000D+00 0.000D+00 0.000D+00 0.000D+00 0.000D+00
 Coeff-En:   0.100D+01
 Coeff:      0.902D-03-0.127D-02 0.347D-02 0.283D-02-0.188D-01-0.444D-01
 Coeff:      0.106D+01
 Gap=     0.216 Goal=   None    Shift=    0.000
 Gap=     0.216 Goal=   None    Shift=    0.000
 RMSDP=4.35D-06 MaxDP=6.27D-05 DE=-1.05D-05 OVMax= 2.23D-04

 Cycle   8  Pass 1  IDiag  1:
 E= -114.247044964981     Delta-E=       -0.000000338913 Rises=F Damp=F
 DIIS: error= 5.74D-05 at cycle   8 NSaved=   8.
 NSaved= 8 IEnMin= 8 EnMin= -114.247044964981     IErMin= 8 ErrMin= 5.74D-05
 ErrMax= 5.74D-05  0.00D+00 EMaxC= 1.00D-01 BMatC= 4.50D-07 BMatP= 1.70D-06
 IDIUse=1 WtCom= 1.00D+00 WtEn= 0.00D+00
 Coeff-Com:  0.488D-03-0.617D-03 0.934D-03 0.364D-02-0.816D-02-0.504D-01
 Coeff-Com:  0.536D-01 0.100D+01
 Coeff:      0.488D-03-0.617D-03 0.934D-03 0.364D-02-0.816D-02-0.504D-01
 Coeff:      0.536D-01 0.100D+01
 Gap=     0.216 Goal=   None    Shift=    0.000
 Gap=     0.216 Goal=   None    Shift=    0.000
 RMSDP=2.87D-06 MaxDP=3.12D-05 DE=-3.39D-07 OVMax= 1.46D-04

 Cycle   9  Pass 1  IDiag  1:
 E= -114.247045062649     Delta-E=       -0.000000097668 Rises=F Damp=F
 DIIS: error= 2.57D-05 at cycle   9 NSaved=   9.
 NSaved= 9 IEnMin= 9 EnMin= -114.247045062649     IErMin= 9 ErrMin= 2.57D-05
 ErrMax= 2.57D-05  0.00D+00 EMaxC= 1.00D-01 BMatC= 1.11D-07 BMatP= 4.50D-07
 IDIUse=1 WtCom= 1.00D+00 WtEn= 0.00D+00
 Coeff-Com:  0.847D-04-0.136D-03 0.128D-03-0.163D-02 0.284D-02 0.501D-01
 Coeff-Com: -0.107D+00-0.127D+01 0.232D+01
 Coeff:      0.847D-04-0.136D-03 0.128D-03-0.163D-02 0.284D-02 0.501D-01
 Coeff:     -0.107D+00-0.127D+01 0.232D+01
 Gap=     0.216 Goal=   None    Shift=    0.000
 Gap=     0.216 Goal=   None    Shift=    0.000
 RMSDP=3.85D-06 MaxDP=4.02D-05 DE=-9.77D-08 OVMax= 1.89D-04

 Cycle  10  Pass 1  IDiag  1:
 E= -114.247045103013     Delta-E=       -0.000000040364 Rises=F Damp=F
 DIIS: error= 4.78D-06 at cycle  10 NSaved=  10.
 NSaved=10 IEnMin=10 EnMin= -114.247045103013     IErMin=10 ErrMin= 4.78D-06
 ErrMax= 4.78D-06  0.00D+00 EMaxC= 1.00D-01 BMatC= 4.16D-09 BMatP= 1.11D-07
 IDIUse=1 WtCom= 1.00D+00 WtEn= 0.00D+00
 Coeff-Com: -0.850D-05 0.584D-05 0.547D-04-0.738D-04-0.501D-03 0.366D-02
 Coeff-Com:  0.895D-02 0.185D-01-0.376D+00 0.135D+01
 Coeff:     -0.850D-05 0.584D-05 0.547D-04-0.738D-04-0.501D-03 0.366D-02
 Coeff:      0.895D-02 0.185D-01-0.376D+00 0.135D+01
 Gap=     0.216 Goal=   None    Shift=    0.000
 Gap=     0.216 Goal=   None    Shift=    0.000
 RMSDP=1.21D-06 MaxDP=1.20D-05 DE=-4.04D-08 OVMax= 5.65D-05

 Cycle  11  Pass 1  IDiag  1:
 E= -114.247045105058     Delta-E=       -0.000000002045 Rises=F Damp=F
 DIIS: error= 2.74D-07 at cycle  11 NSaved=  11.
 NSaved=11 IEnMin=11 EnMin= -114.247045105058     IErMin=11 ErrMin= 2.74D-07
 ErrMax= 2.74D-07  0.00D+00 EMaxC= 1.00D-01 BMatC= 1.09D-11 BMatP= 4.16D-09
 IDIUse=1 WtCom= 1.00D+00 WtEn= 0.00D+00
 Coeff-Com: -0.478D-06 0.229D-05-0.184D-04 0.310D-04-0.150D-03-0.140D-02
 Coeff-Com: -0.827D-03 0.430D-01-0.442D-01-0.105D+00 0.111D+01
 Coeff:     -0.478D-06 0.229D-05-0.184D-04 0.310D-04-0.150D-03-0.140D-02
 Coeff:     -0.827D-03 0.430D-01-0.442D-01-0.105D+00 0.111D+01
 Gap=     0.216 Goal=   None    Shift=    0.000
 Gap=     0.216 Goal=   None    Shift=    0.000
 RMSDP=7.18D-08 MaxDP=6.25D-07 DE=-2.05D-09 OVMax= 2.76D-06

 Cycle  12  Pass 1  IDiag  1:
 E= -114.247045105064     Delta-E=       -0.000000000006 Rises=F Damp=F
 DIIS: error= 5.92D-08 at cycle  12 NSaved=  12.
 NSaved=12 IEnMin=12 EnMin= -114.247045105064     IErMin=12 ErrMin= 5.92D-08
 ErrMax= 5.92D-08  0.00D+00 EMaxC= 1.00D-01 BMatC= 2.25D-13 BMatP= 1.09D-11
 IDIUse=1 WtCom= 1.00D+00 WtEn= 0.00D+00
 Coeff-Com: -0.214D-06 0.180D-06-0.854D-06-0.248D-05 0.358D-04 0.818D-04
 Coeff-Com: -0.165D-03-0.485D-02 0.128D-01-0.223D-01-0.721D-01 0.109D+01
 Coeff:     -0.214D-06 0.180D-06-0.854D-06-0.248D-05 0.358D-04 0.818D-04
 Coeff:     -0.165D-03-0.485D-02 0.128D-01-0.223D-01-0.721D-01 0.109D+01
 Gap=     0.216 Goal=   None    Shift=    0.000
 Gap=     0.216 Goal=   None    Shift=    0.000
 RMSDP=5.15D-09 MaxDP=6.77D-08 DE=-5.80D-12 OVMax= 3.37D-07

 SCF Done:  E(UM062X) =  -114.247045105     A.U. after   12 cycles
            NFock= 12  Conv=0.52D-08     -V/T= 2.0091
 <Sx>= 0.0000 <Sy>= 0.0000 <Sz>= 0.0000 <S**2>=-0.0000 S=-0.0000
 <L.S>=  0.00000000000    
 KE= 1.132208634549D+02 PE=-3.134387998259D+02 EE= 6.335527144271D+01
 Annihilation of the first spin contaminant:
 S**2 before annihilation    -0.0000,   after    -0.0000
 Leave Link  502 at Mon Apr 21 18:47:33 2025, MaxMem=   536870912 cpu:              33.9 elap:               4.4
 (Enter /home/szhao/Apps/g16/l601.exe)
 Copying SCF densities to generalized density rwf, IOpCl= 1 IROHF=0.

 **********************************************************************

            Population analysis using the SCF density.

 **********************************************************************

 Alpha  occ. eigenvalues --  -19.67619 -10.71886  -0.99828  -0.80784  -0.56383
 Alpha  occ. eigenvalues --   -0.43045  -0.36210  -0.34963
 Alpha virt. eigenvalues --   -0.13352  -0.03547   0.01357   0.04536   0.06598
 Alpha virt. eigenvalues --    0.07339   0.14882   0.16625   0.21062   0.23844
 Alpha virt. eigenvalues --    0.26596   0.33155   0.41465   0.42721   0.53614
 Alpha virt. eigenvalues --    0.58175   0.62425   0.73065   1.03080   1.07123
 Alpha virt. eigenvalues --    1.13891   1.14391   1.25808   1.26922   1.42215
 Alpha virt. eigenvalues --    1.46558   1.63690   1.65937   1.75303   1.87797
 Alpha virt. eigenvalues --    2.00929   2.37154   2.42391   2.43749   2.57845
 Alpha virt. eigenvalues --    2.69139   2.76265   2.92201   2.92732   2.92785
 Alpha virt. eigenvalues --    2.97417   3.36666   3.63275   5.06676   5.10070
 Alpha virt. eigenvalues --    5.10222  23.66806  49.86703
  Beta  occ. eigenvalues --  -19.67619 -10.71886  -0.99828  -0.80784  -0.56383
  Beta  occ. eigenvalues --   -0.43045  -0.36210  -0.34963
  Beta virt. eigenvalues --   -0.13352  -0.03547   0.01357   0.04536   0.06598
  Beta virt. eigenvalues --    0.07339   0.14882   0.16625   0.21062   0.23844
  Beta virt. eigenvalues --    0.26596   0.33155   0.41465   0.42721   0.53614
  Beta virt. eigenvalues --    0.58175   0.62425   0.73065   1.03080   1.07123
  Beta virt. eigenvalues --    1.13891   1.14391   1.25808   1.26922   1.42215
  Beta virt. eigenvalues --    1.46558   1.63690   1.65937   1.75303   1.87797
  Beta virt. eigenvalues --    2.00929   2.37154   2.42391   2.43749   2.57845
  Beta virt. eigenvalues --    2.69139   2.76265   2.92201   2.92732   2.92785
  Beta virt. eigenvalues --    2.97417   3.36666   3.63275   5.06676   5.10070
  Beta virt. eigenvalues --    5.10222  23.66806  49.86703
          Condensed to atoms (all electrons):
               1          2          3          4
     1  C    5.164432   0.238463   0.353363   0.353363
     2  O    0.238463   8.081622  -0.010989  -0.010989
     3  H    0.353363  -0.010989   0.493306  -0.039545
     4  H    0.353363  -0.010989  -0.039545   0.493306
          Atomic-Atomic Spin Densities.
               1          2          3          4
     1  C    0.000000  -0.000000   0.000000  -0.000000
     2  O   -0.000000  -0.000000   0.000000   0.000000
     3  H    0.000000   0.000000   0.000000  -0.000000
     4  H   -0.000000   0.000000  -0.000000  -0.000000
 Mulliken charges and spin densities:
               1          2
     1  C   -0.109621   0.000000
     2  O   -0.298107  -0.000000
     3  H    0.203864   0.000000
     4  H    0.203864  -0.000000
 Sum of Mulliken charges =  -0.00000  -0.00000
 Mulliken charges and spin densities with hydrogens summed into heavy atoms:
               1          2
     1  C    0.298107   0.000000
     2  O   -0.298107  -0.000000
 Electronic spatial extent (au):  <R**2>=             93.8046
 Charge=             -0.0000 electrons
 Dipole moment (field-independent basis, Debye):
    X=             -4.5953    Y=             -0.0000    Z=              0.0000  Tot=              4.5953
 Quadrupole moment (field-independent basis, Debye-Ang):
   XX=             -9.7099   YY=            -11.9273   ZZ=            -13.0911
   XY=             -0.0000   XZ=             -0.0000   YZ=              0.0000
 Traceless Quadrupole moment (field-independent basis, Debye-Ang):
   XX=              1.8662   YY=             -0.3512   ZZ=             -1.5150
   XY=             -0.0000   XZ=             -0.0000   YZ=              0.0000
 Octapole moment (field-independent basis, Debye-Ang**2):
  XXX=             -1.3072  YYY=             -0.0000  ZZZ=             -0.0000  XYY=             -2.0568
  XXY=              0.0000  XXZ=              0.0000  XZZ=              1.0319  YZZ=              0.0000
  YYZ=              0.0000  XYZ=             -0.0000
 Hexadecapole moment (field-independent basis, Debye-Ang**3):
 XXXX=            -80.4512 YYYY=            -17.8747 ZZZZ=            -13.9939 XXXY=             -0.0000
 XXXZ=              0.0000 YYYX=              0.0000 YYYZ=             -0.0000 ZZZX=              0.0000
 ZZZY=             -0.0000 XXYY=            -14.3526 XXZZ=            -17.2778 YYZZ=             -5.7864
 XXYZ=              0.0000 YYXZ=             -0.0000 ZZXY=              0.0000
 N-N= 2.261561982324D+01 E-N=-3.134387992690D+02  KE= 1.132208634549D+02
                          Isotropic Fermi Contact Couplings
        Atom                 a.u.       MegaHertz       Gauss      10(-4) cm-1
     1  C(13)              0.00000       0.00000       0.00000       0.00000
     2  O(17)             -0.00000       0.00000       0.00000       0.00000
     3  H(1)               0.00000       0.00000       0.00000       0.00000
     4  H(1)              -0.00000      -0.00000      -0.00000      -0.00000
 --------------------------------------------------------
       Center         ----  Spin Dipole Couplings  ----
                      3XX-RR        3YY-RR        3ZZ-RR
 --------------------------------------------------------
     1   Atom        0.000000      0.000000      0.000000
     2   Atom        0.000000      0.000000      0.000000
     3   Atom        0.000000      0.000000      0.000000
     4   Atom        0.000000      0.000000      0.000000
 --------------------------------------------------------
                        XY            XZ            YZ
 --------------------------------------------------------
     1   Atom        0.000000      0.000000      0.000000
     2   Atom        0.000000      0.000000      0.000000
     3   Atom        0.000000      0.000000      0.000000
     4   Atom        0.000000      0.000000      0.000000
 --------------------------------------------------------


 ---------------------------------------------------------------------------------
              Anisotropic Spin Dipole Couplings in Principal Axis System
 ---------------------------------------------------------------------------------

       Atom             a.u.   MegaHertz   Gauss  10(-4) cm-1        Axes

              Baa     0.0000     0.000     0.000     0.000  1.0000  0.0000  0.0000
     1 C(13)  Bbb     0.0000     0.000     0.000     0.000 -0.0000  1.0000  0.0000
              Bcc     0.0000     0.000     0.000     0.000  0.0000  0.0000  1.0000
 
              Baa     0.0000    -0.000    -0.000    -0.000  1.0000  0.0000  0.0000
     2 O(17)  Bbb     0.0000    -0.000    -0.000    -0.000 -0.0000  1.0000  0.0000
              Bcc     0.0000    -0.000    -0.000    -0.000  0.0000  0.0000  1.0000
 
              Baa     0.0000     0.000     0.000     0.000  1.0000  0.0000  0.0000
     3 H(1)   Bbb     0.0000     0.000     0.000     0.000 -0.0000  1.0000  0.0000
              Bcc     0.0000     0.000     0.000     0.000  0.0000  0.0000  1.0000
 
              Baa     0.0000     0.000     0.000     0.000  1.0000  0.0000  0.0000
     4 H(1)   Bbb     0.0000     0.000     0.000     0.000 -0.0000  1.0000  0.0000
              Bcc     0.0000     0.000     0.000     0.000  0.0000  0.0000  1.0000
 

 ---------------------------------------------------------------------------------

 No NMR shielding tensors so no spin-rotation constants.
 Leave Link  601 at Mon Apr 21 18:47:34 2025, MaxMem=   536870912 cpu:               1.4 elap:               0.3
 (Enter /home/szhao/Apps/g16/l701.exe)
 ... and contract with generalized density number  0.
 Compute integral first derivatives.
 Leave Link  701 at Mon Apr 21 18:47:35 2025, MaxMem=   536870912 cpu:               1.2 elap:               0.3
 (Enter /home/szhao/Apps/g16/l702.exe)
 L702 exits ... SP integral derivatives will be done elsewhere.
 Leave Link  702 at Mon Apr 21 18:47:35 2025, MaxMem=   536870912 cpu:               0.5 elap:               0.2
 (Enter /home/szhao/Apps/g16/l703.exe)
 Integral derivatives from FoFJK, PRISM(SPDF).
 Compute integral first derivatives, UseDBF=F ICtDFT=           0.
 Calling FoFJK, ICntrl=      2127 FMM=F ISym2X=0 I1Cent= 0 IOpClX= 1 NMat=1 NMatS=1 NMatT=0.
 FoFJK:  IHMeth= 1 ICntrl=    2127 DoSepK=F KAlg= 0 I1Cent=           0 FoldK=F
 IRaf=         0 NMat=       1 IRICut=       1 DoRegI=T DoRafI=F ISym2E= 0 IDoP0=0 IntGTp=1.
 FoFCou: FMM=F IPFlag=           0 FMFlag=      100000 FMFlg1=         800
         NFxFlg=           0 DoJE=F BraDBF=F KetDBF=F FulRan=T
         wScrn=  0.000000 ICntrl=      2127 IOpCl=  1 I1Cent=           0 NGrid=           0
         NMat0=    1 NMatS0=      1 NMatT0=    0 NMatD0=    1 NMtDS0=    0 NMtDT0=    0
 Symmetry not used in FoFCou.
 Leave Link  703 at Mon Apr 21 18:47:36 2025, MaxMem=   536870912 cpu:               6.0 elap:               0.8
 (Enter /home/szhao/Apps/g16/l716.exe)
 Dipole        =-1.80791558D+00-9.78027441D-07 1.95920318D-07
 -------------------------------------------------------------------
 Center     Atomic                   Forces (Hartrees/Bohr)
 Number     Number              X              Y              Z
 -------------------------------------------------------------------
      1        6          -0.000000000   -0.000000000   -0.000000000
      2        8          -0.000000000   -0.000000000   -0.000000000
      3        1           0.017156947    0.003003029   -0.000000013
      4        1           0.017157327   -0.003003177   -0.000000014
 -------------------------------------------------------------------
 Cartesian Forces:  Max     0.017157327 RMS     0.007110860
 Leave Link  716 at Mon Apr 21 18:47:36 2025, MaxMem=   536870912 cpu:               0.7 elap:               0.1
 (Enter /home/szhao/Apps/g16/l103.exe)

 GradGradGradGradGradGradGradGradGradGradGradGradGradGradGradGradGradGrad
 Berny optimization.
 FormGI is forming the generalized inverse of G from B-inverse, IUseBI=4.
 Internal  Forces:  Max     0.034314274 RMS     0.012706748
 Search for a local minimum.
 Step number   1 out of a maximum of   22
 All quantities printed in internal units (Hartrees-Bohrs-Radians)
 RMS Force = .11255D-01 SwitMx=.10000D-02 MixMth= 1
 Mixed Optimization -- RFO/linear search
 Second derivative matrix not updated -- first step.
 The second derivative matrix:
                          X1        Y1        Z1        X2        Y2
           X1           0.50000
           Y1           0.00000   0.50000
           Z1           0.00000   0.00000   0.50000
           X2           0.00000   0.00000   0.00000   0.50000
           Y2           0.00000   0.00000   0.00000   0.00000   0.50000
           Z2           0.00000   0.00000   0.00000   0.00000   0.00000
           R1           0.00000   0.00000   0.00000   0.00000   0.00000
           R2           0.00000   0.00000   0.00000   0.00000   0.00000
           A1           0.00000   0.00000   0.00000   0.00000   0.00000
           A2           0.00000   0.00000   0.00000   0.00000   0.00000
           A3           0.00000   0.00000   0.00000   0.00000   0.00000
           D1           0.00000   0.00000   0.00000   0.00000   0.00000
                          Z2        R1        R2        A1        A2
           Z2           0.50000
           R1           0.00000   0.33142
           R2           0.00000   0.00000   0.33142
           A1           0.00000   0.00000   0.00000   0.16000
           A2           0.00000   0.00000   0.00000   0.00000   0.16000
           A3           0.00000   0.00000   0.00000   0.00000   0.00000
           D1           0.00000   0.00000   0.00000   0.00000   0.00000
                          A3        D1
           A3           0.16000
           D1           0.00000   0.00230
 ITU=  0
     Eigenvalues ---    0.00230   0.16000   0.16000   0.33142   0.33142
     Eigenvalues --- 1000.000001000.000001000.000001000.000001000.00000
     Eigenvalues --- 1000.000001000.00000
 RFO step:  Lambda=-3.80169065D-03 EMin= 2.30000000D-03
 Linear search not attempted -- first point.
 Iteration  1 RMS(Cart)=  0.04895581 RMS(Int)=  0.00144103
 Iteration  2 RMS(Cart)=  0.00146843 RMS(Int)=  0.00000074
 Iteration  3 RMS(Cart)=  0.00000086 RMS(Int)=  0.00000000
 ITry= 1 IFail=0 DXMaxC= 1.16D-01 DCOld= 1.00D+10 DXMaxT= 3.00D-01 DXLimC= 3.00D+00 Rises=F
 Variable       Old X    -DE/DX   Delta X   Delta X   Delta X     New X
                                 (Linear)    (Quad)   (Total)
    X1       -1.79205   0.03431   0.00000   0.00000   0.00000  -1.79205
    Y1        0.00000  -0.00000   0.00000   0.00000   0.00000   0.00000
    Z1        0.00000  -0.00000   0.00000   0.00000   0.00000   0.00000
    X2        1.79205   0.00000   0.00000   0.00000   0.00000   1.79205
    Y2        0.00000  -0.00000   0.00000   0.00000   0.00000   0.00000
    Z2        0.00000   0.00000   0.00000   0.00000   0.00000   0.00000
    R1        2.08803  -0.01159   0.00000  -0.03457  -0.03457   2.05346
    R2        2.08803  -0.01159   0.00000  -0.03457  -0.03457   2.05346
    A1        2.12543  -0.00905   0.00000  -0.05525  -0.05525   2.07018
    A2        2.12544  -0.00905   0.00000  -0.05525  -0.05525   2.07018
    A3        2.03232   0.01810   0.00000   0.11051   0.11051   2.14283
    D1       -3.14159  -0.00000   0.00000  -0.00000  -0.00000   3.14159
         Item               Value     Threshold  Converged?
 Maximum Force            0.018101     0.000450     NO 
 RMS     Force            0.011255     0.000300     NO 
 Maximum Displacement     0.116261     0.001800     NO 
 RMS     Displacement     0.048788     0.001200     NO 
 Predicted change in Energy=-1.940208D-03
 Lowest energy point so far.  Saving SCF results.
 GradGradGradGradGradGradGradGradGradGradGradGradGradGradGradGradGradGrad

 Leave Link  103 at Mon Apr 21 18:47:36 2025, MaxMem=   536870912 cpu:               0.6 elap:               0.1
 (Enter /home/szhao/Apps/g16/l202.exe)
                          Input orientation:                          
 ---------------------------------------------------------------------
 Center     Atomic      Atomic             Coordinates (Angstroms)
 Number     Number       Type             X           Y           Z
 ---------------------------------------------------------------------
      1          6           0       -0.948311    0.000000    0.000000
      2          8           0        0.948311    0.000000    0.000000
      3          1           0       -1.468686   -0.953941   -0.000001
      4          1           0       -1.468690    0.953939   -0.000001
 ---------------------------------------------------------------------
                    Distance matrix (angstroms):
                    1          2          3          4
     1  C    0.000000
     2  O    1.896622   0.000000
     3  H    1.086644   2.598438   0.000000
     4  H    1.086644   2.598440   1.907881   0.000000
 Symmetry turned off by external request.
 Stoichiometry    CH2O
 Framework group  C1[X(CH2O)]
 Deg. of freedom     6
 Full point group                 C1      NOp   1
 Rotational constants (GHZ):         275.5241570          17.1311143          16.1283131
 Leave Link  202 at Mon Apr 21 18:47:37 2025, MaxMem=   536870912 cpu:               0.2 elap:               0.1
 (Enter /home/szhao/Apps/g16/l301.exe)
 Standard basis: 6-311+G(d,p) (5D, 7F)
 Ernie: Thresh=  0.10000D-02 Tol=  0.10000D-05 Strict=F.
    56 basis functions,    88 primitive gaussians,    58 cartesian basis functions
     8 alpha electrons        8 beta electrons
       nuclear repulsion energy        22.7720921380 Hartrees.
 IExCor= 4336 DFT=T Ex+Corr=M062X ExCW=0 ScaHFX=  0.540000
 ScaDFX=  1.000000  1.000000  1.000000  1.000000 ScalE2=  1.000000  1.000000
 IRadAn=      7 IRanWt=     -1 IRanGd=            0 ICorTp=0 IEmpDi=  4
 NAtoms=    4 NActive=    4 NUniq=    4 SFac= 1.00D+00 NAtFMM=   60 NAOKFM=F Big=F
 Integral buffers will be    131072 words long.
 Raffenetti 2 integral format.
 Two-electron integral symmetry is turned off.
 Leave Link  301 at Mon Apr 21 18:47:37 2025, MaxMem=   536870912 cpu:               0.5 elap:               0.1
 (Enter /home/szhao/Apps/g16/l302.exe)
 NPDir=0 NMtPBC=     1 NCelOv=     1 NCel=       1 NClECP=     1 NCelD=      1
         NCelK=      1 NCelE2=     1 NClLst=     1 CellRange=     0.0.
 One-electron integrals computed using PRISM.
 NBasis=    56 RedAO= T EigKep=  1.37D-02  NBF=    56
 NBsUse=    56 1.00D-06 EigRej= -1.00D+00 NBFU=    56
 Precomputing XC quadrature grid using
 IXCGrd= 4 IRadAn=           7 IRanWt=          -1 IRanGd=           0 AccXCQ= 0.00D+00.
 Generated NRdTot=       0 NPtTot=           0 NUsed=           0 NTot=          32
 NSgBfM=    58    58    58    58    58 MxSgAt=     4 MxSgA2=     4.
 Leave Link  302 at Mon Apr 21 18:47:37 2025, MaxMem=   536870912 cpu:               1.6 elap:               0.2
 (Enter /home/szhao/Apps/g16/l303.exe)
 DipDrv:  MaxL=1.
 Leave Link  303 at Mon Apr 21 18:47:37 2025, MaxMem=   536870912 cpu:               0.5 elap:               0.1
 (Enter /home/szhao/Apps/g16/l401.exe)
 Initial guess from the checkpoint file:  "opt.chk"
 B after Tr=     0.014532    0.000000   -0.000000
         Rot=    1.000000   -0.000000    0.000000    0.000000 Ang=   0.00 deg.
 Guess basis will be translated and rotated to current coordinates.
 JPrj=2 DoOrth=T DoCkMO=T.
 Initial guess <Sx>= 0.0000 <Sy>= 0.0000 <Sz>= 0.0000 <S**2>=-0.0000 S=-0.0000
 Generating alternative initial guess.
 ExpMin= 4.38D-02 ExpMax= 8.59D+03 ExpMxC= 1.30D+03 IAcc=3 IRadAn=         5 AccDes= 0.00D+00
 Harris functional with IExCor= 1009 and IRadAn=       5 diagonalized for initial guess.
 HarFok:  IExCor= 1009 AccDes= 0.00D+00 IRadAn=         5 IDoV= 1 UseB2=F ITyADJ=14
 ICtDFT=  3500011 ScaDFX=  1.000000  1.000000  1.000000  1.000000
 FoFCou: FMM=F IPFlag=           0 FMFlag=      100000 FMFlg1=           0
         NFxFlg=           0 DoJE=T BraDBF=F KetDBF=T FulRan=T
         wScrn=  0.000000 ICntrl=       500 IOpCl=  0 I1Cent=   200000004 NGrid=           0
         NMat0=    1 NMatS0=      1 NMatT0=    0 NMatD0=    1 NMtDS0=    0 NMtDT0=    0
 Symmetry not used in FoFCou.
 Harris En= -114.244866939163    
 Leave Link  401 at Mon Apr 21 18:47:38 2025, MaxMem=   536870912 cpu:               2.3 elap:               0.3
 (Enter /home/szhao/Apps/g16/l502.exe)
 Keep R1 and R2 ints in memory in canonical form, NReq=9624206.
 FoFCou: FMM=F IPFlag=           0 FMFlag=           0 FMFlg1=           0
         NFxFlg=           0 DoJE=F BraDBF=F KetDBF=F FulRan=T
         wScrn=  0.000000 ICntrl=       600 IOpCl=  0 I1Cent=           0 NGrid=           0
         NMat0=    1 NMatS0=   1596 NMatT0=    0 NMatD0=    1 NMtDS0=    0 NMtDT0=    0
 Symmetry not used in FoFCou.
 Two-electron integral symmetry not used.
 UHF open shell SCF:
 Using DIIS extrapolation, IDIIS=  1040.
 NGot=   536870912 LenX=   534314330 LenY=   534310525
 Requested convergence on RMS density matrix=1.00D-08 within 128 cycles.
 Requested convergence on MAX density matrix=1.00D-06.
 Requested convergence on             energy=1.00D-06.
 No special actions if energy rises.

 Cycle   1  Pass 1  IDiag  1:
 E= -114.249330266115    
 DIIS: error= 2.95D-03 at cycle   1 NSaved=   1.
 NSaved= 1 IEnMin= 1 EnMin= -114.249330266115     IErMin= 1 ErrMin= 2.95D-03
 ErrMax= 2.95D-03  0.00D+00 EMaxC= 1.00D-01 BMatC= 1.43D-03 BMatP= 1.43D-03
 IDIUse=3 WtCom= 9.70D-01 WtEn= 2.95D-02
 Coeff-Com:  0.100D+01
 Coeff-En:   0.100D+01
 Coeff:      0.100D+01
 Gap=     0.575 Goal=   None    Shift=    0.000
 Gap=     0.575 Goal=   None    Shift=    0.000
 GapD=    0.575 DampG=2.000 DampE=1.000 DampFc=2.0000 IDamp=-1.
 RMSDP=3.41D-04 MaxDP=3.62D-03              OVMax= 1.34D-02

 Cycle   2  Pass 1  IDiag  1:
 E= -114.249548051412     Delta-E=       -0.000217785297 Rises=F Damp=F
 DIIS: error= 3.11D-03 at cycle   2 NSaved=   2.
 NSaved= 2 IEnMin= 2 EnMin= -114.249548051412     IErMin= 1 ErrMin= 2.95D-03
 ErrMax= 3.11D-03  0.00D+00 EMaxC= 1.00D-01 BMatC= 1.14D-03 BMatP= 1.43D-03
 IDIUse=3 WtCom= 9.69D-01 WtEn= 3.11D-02
 Coeff-Com:  0.452D+00 0.548D+00
 Coeff-En:   0.597D-01 0.940D+00
 Coeff:      0.440D+00 0.560D+00
 Gap=     0.218 Goal=   None    Shift=    0.000
 Gap=     0.218 Goal=   None    Shift=    0.000
 RMSDP=3.38D-04 MaxDP=3.72D-03 DE=-2.18D-04 OVMax= 1.71D-02

 Cycle   3  Pass 1  IDiag  1:
 E= -114.249232793044     Delta-E=        0.000315258368 Rises=F Damp=F
 DIIS: error= 5.73D-03 at cycle   3 NSaved=   3.
 NSaved= 3 IEnMin= 2 EnMin= -114.249548051412     IErMin= 1 ErrMin= 2.95D-03
 ErrMax= 5.73D-03  0.00D+00 EMaxC= 1.00D-01 BMatC= 2.60D-03 BMatP= 1.14D-03
 IDIUse=3 WtCom= 1.17D-01 WtEn= 8.83D-01
 Coeff-Com: -0.517D-01 0.629D+00 0.423D+00
 Coeff-En:   0.000D+00 0.630D+00 0.370D+00
 Coeff:     -0.603D-02 0.630D+00 0.376D+00
 Gap=     0.215 Goal=   None    Shift=    0.000
 Gap=     0.215 Goal=   None    Shift=    0.000
 RMSDP=1.90D-04 MaxDP=2.85D-03 DE= 3.15D-04 OVMax= 1.28D-02

 Cycle   4  Pass 1  IDiag  1:
 E= -114.249822469829     Delta-E=       -0.000589676785 Rises=F Damp=F
 DIIS: error= 7.56D-04 at cycle   4 NSaved=   4.
 NSaved= 4 IEnMin= 4 EnMin= -114.249822469829     IErMin= 4 ErrMin= 7.56D-04
 ErrMax= 7.56D-04  0.00D+00 EMaxC= 1.00D-01 BMatC= 2.65D-05 BMatP= 1.14D-03
 IDIUse=3 WtCom= 9.92D-01 WtEn= 7.56D-03
 Coeff-Com: -0.359D-01 0.187D+00 0.677D-01 0.781D+00
 Coeff-En:   0.000D+00 0.000D+00 0.000D+00 0.100D+01
 Coeff:     -0.356D-01 0.186D+00 0.672D-01 0.783D+00
 Gap=     0.215 Goal=   None    Shift=    0.000
 Gap=     0.215 Goal=   None    Shift=    0.000
 RMSDP=5.45D-05 MaxDP=7.39D-04 DE=-5.90D-04 OVMax= 4.00D-03

 Cycle   5  Pass 1  IDiag  1:
 E= -114.249836745563     Delta-E=       -0.000014275734 Rises=F Damp=F
 DIIS: error= 3.14D-04 at cycle   5 NSaved=   5.
 NSaved= 5 IEnMin= 5 EnMin= -114.249836745563     IErMin= 5 ErrMin= 3.14D-04
 ErrMax= 3.14D-04  0.00D+00 EMaxC= 1.00D-01 BMatC= 1.52D-05 BMatP= 2.65D-05
 IDIUse=3 WtCom= 9.97D-01 WtEn= 3.14D-03
 Coeff-Com:  0.175D-01-0.235D+00-0.269D-01-0.300D+00 0.154D+01
 Coeff-En:   0.000D+00 0.000D+00 0.000D+00 0.000D+00 0.100D+01
 Coeff:      0.174D-01-0.234D+00-0.268D-01-0.299D+00 0.154D+01
 Gap=     0.215 Goal=   None    Shift=    0.000
 Gap=     0.215 Goal=   None    Shift=    0.000
 RMSDP=6.71D-05 MaxDP=6.61D-04 DE=-1.43D-05 OVMax= 3.09D-03

 Cycle   6  Pass 1  IDiag  1:
 E= -114.249848399835     Delta-E=       -0.000011654272 Rises=F Damp=F
 DIIS: error= 9.61D-05 at cycle   6 NSaved=   6.
 NSaved= 6 IEnMin= 6 EnMin= -114.249848399835     IErMin= 6 ErrMin= 9.61D-05
 ErrMax= 9.61D-05  0.00D+00 EMaxC= 1.00D-01 BMatC= 1.64D-06 BMatP= 1.52D-05
 IDIUse=1 WtCom= 1.00D+00 WtEn= 0.00D+00
 Coeff-Com:  0.619D-04 0.431D-01 0.111D-01-0.405D-01-0.816D+00 0.180D+01
 Coeff:      0.619D-04 0.431D-01 0.111D-01-0.405D-01-0.816D+00 0.180D+01
 Gap=     0.215 Goal=   None    Shift=    0.000
 Gap=     0.215 Goal=   None    Shift=    0.000
 RMSDP=4.93D-05 MaxDP=4.69D-04 DE=-1.17D-05 OVMax= 2.54D-03

 Cycle   7  Pass 1  IDiag  1:
 E= -114.249851034185     Delta-E=       -0.000002634350 Rises=F Damp=F
 DIIS: error= 2.88D-05 at cycle   7 NSaved=   7.
 NSaved= 7 IEnMin= 7 EnMin= -114.249851034185     IErMin= 7 ErrMin= 2.88D-05
 ErrMax= 2.88D-05  0.00D+00 EMaxC= 1.00D-01 BMatC= 1.43D-07 BMatP= 1.64D-06
 IDIUse=1 WtCom= 1.00D+00 WtEn= 0.00D+00
 Coeff-Com: -0.125D-02 0.174D-01 0.911D-02 0.130D-01-0.164D+00 0.137D+00
 Coeff-Com:  0.989D+00
 Coeff:     -0.125D-02 0.174D-01 0.911D-02 0.130D-01-0.164D+00 0.137D+00
 Coeff:      0.989D+00
 Gap=     0.215 Goal=   None    Shift=    0.000
 Gap=     0.215 Goal=   None    Shift=    0.000
 RMSDP=5.04D-06 MaxDP=5.78D-05 DE=-2.63D-06 OVMax= 2.28D-04

 Cycle   8  Pass 1  IDiag  1:
 E= -114.249851083665     Delta-E=       -0.000000049479 Rises=F Damp=F
 DIIS: error= 2.47D-06 at cycle   8 NSaved=   8.
 NSaved= 8 IEnMin= 8 EnMin= -114.249851083665     IErMin= 8 ErrMin= 2.47D-06
 ErrMax= 2.47D-06  0.00D+00 EMaxC= 1.00D-01 BMatC= 1.23D-09 BMatP= 1.43D-07
 IDIUse=1 WtCom= 1.00D+00 WtEn= 0.00D+00
 Coeff-Com:  0.475D-05-0.141D-02-0.308D-04 0.108D-02 0.210D-01-0.491D-01
 Coeff-Com: -0.237D-01 0.105D+01
 Coeff:      0.475D-05-0.141D-02-0.308D-04 0.108D-02 0.210D-01-0.491D-01
 Coeff:     -0.237D-01 0.105D+01
 Gap=     0.215 Goal=   None    Shift=    0.000
 Gap=     0.215 Goal=   None    Shift=    0.000
 RMSDP=4.96D-07 MaxDP=5.22D-06 DE=-4.95D-08 OVMax= 2.06D-05

 Cycle   9  Pass 1  IDiag  1:
 E= -114.249851084098     Delta-E=       -0.000000000433 Rises=F Damp=F
 DIIS: error= 2.42D-07 at cycle   9 NSaved=   9.
 NSaved= 9 IEnMin= 9 EnMin= -114.249851084098     IErMin= 9 ErrMin= 2.42D-07
 ErrMax= 2.42D-07  0.00D+00 EMaxC= 1.00D-01 BMatC= 9.41D-12 BMatP= 1.23D-09
 IDIUse=1 WtCom= 1.00D+00 WtEn= 0.00D+00
 Coeff-Com:  0.307D-04-0.397D-03-0.331D-03 0.173D-05 0.293D-02-0.435D-03
 Coeff-Com: -0.287D-01-0.255D-01 0.105D+01
 Coeff:      0.307D-04-0.397D-03-0.331D-03 0.173D-05 0.293D-02-0.435D-03
 Coeff:     -0.287D-01-0.255D-01 0.105D+01
 Gap=     0.215 Goal=   None    Shift=    0.000
 Gap=     0.215 Goal=   None    Shift=    0.000
 RMSDP=3.84D-08 MaxDP=3.57D-07 DE=-4.33D-10 OVMax= 1.42D-06

 Cycle  10  Pass 1  IDiag  1:
 E= -114.249851084101     Delta-E=       -0.000000000003 Rises=F Damp=F
 DIIS: error= 1.29D-07 at cycle  10 NSaved=  10.
 NSaved=10 IEnMin=10 EnMin= -114.249851084101     IErMin=10 ErrMin= 1.29D-07
 ErrMax= 1.29D-07  0.00D+00 EMaxC= 1.00D-01 BMatC= 1.79D-12 BMatP= 9.41D-12
 IDIUse=1 WtCom= 1.00D+00 WtEn= 0.00D+00
 Coeff-Com:  0.104D-05 0.274D-04-0.840D-05-0.223D-04-0.702D-03 0.179D-02
 Coeff-Com: -0.150D-02-0.382D-01 0.970D-01 0.942D+00
 Coeff:      0.104D-05 0.274D-04-0.840D-05-0.223D-04-0.702D-03 0.179D-02
 Coeff:     -0.150D-02-0.382D-01 0.970D-01 0.942D+00
 Gap=     0.215 Goal=   None    Shift=    0.000
 Gap=     0.215 Goal=   None    Shift=    0.000
 RMSDP=1.23D-08 MaxDP=1.09D-07 DE=-3.13D-12 OVMax= 5.06D-07

 Cycle  11  Pass 1  IDiag  1:
 E= -114.249851084102     Delta-E=       -0.000000000001 Rises=F Damp=F
 DIIS: error= 3.84D-09 at cycle  11 NSaved=  11.
 NSaved=11 IEnMin=11 EnMin= -114.249851084102     IErMin=11 ErrMin= 3.84D-09
 ErrMax= 3.84D-09  0.00D+00 EMaxC= 1.00D-01 BMatC= 3.39D-15 BMatP= 1.79D-12
 IDIUse=1 WtCom= 1.00D+00 WtEn= 0.00D+00
 Coeff-Com: -0.671D-06 0.652D-05 0.794D-05-0.489D-05-0.257D-04-0.119D-04
 Coeff-Com:  0.523D-03 0.165D-02-0.281D-01-0.299D-01 0.106D+01
 Coeff:     -0.671D-06 0.652D-05 0.794D-05-0.489D-05-0.257D-04-0.119D-04
 Coeff:      0.523D-03 0.165D-02-0.281D-01-0.299D-01 0.106D+01
 Gap=     0.215 Goal=   None    Shift=    0.000
 Gap=     0.215 Goal=   None    Shift=    0.000
 RMSDP=2.01D-09 MaxDP=2.49D-08 DE=-5.40D-13 OVMax= 8.71D-08

 SCF Done:  E(UM062X) =  -114.249851084     A.U. after   11 cycles
            NFock= 11  Conv=0.20D-08     -V/T= 2.0088
 <Sx>= 0.0000 <Sy>= 0.0000 <Sz>= 0.0000 <S**2>=-0.0000 S=-0.0000
 <L.S>=  0.00000000000    
 KE= 1.132574521804D+02 PE=-3.137748111640D+02 EE= 6.349541576150D+01
 Annihilation of the first spin contaminant:
 S**2 before annihilation    -0.0000,   after    -0.0000
 Leave Link  502 at Mon Apr 21 18:47:42 2025, MaxMem=   536870912 cpu:              33.1 elap:               4.3
 (Enter /home/szhao/Apps/g16/l701.exe)
 ... and contract with generalized density number  0.
 Compute integral first derivatives.
 Leave Link  701 at Mon Apr 21 18:47:43 2025, MaxMem=   536870912 cpu:               1.9 elap:               0.3
 (Enter /home/szhao/Apps/g16/l702.exe)
 L702 exits ... SP integral derivatives will be done elsewhere.
 Leave Link  702 at Mon Apr 21 18:47:43 2025, MaxMem=   536870912 cpu:               0.6 elap:               0.1
 (Enter /home/szhao/Apps/g16/l703.exe)
 Integral derivatives from FoFJK, PRISM(SPDF).
 Compute integral first derivatives, UseDBF=F ICtDFT=           0.
 Calling FoFJK, ICntrl=      2127 FMM=F ISym2X=0 I1Cent= 0 IOpClX= 1 NMat=1 NMatS=1 NMatT=0.
 FoFJK:  IHMeth= 1 ICntrl=    2127 DoSepK=F KAlg= 0 I1Cent=           0 FoldK=F
 IRaf=         0 NMat=       1 IRICut=       1 DoRegI=T DoRafI=F ISym2E= 0 IDoP0=0 IntGTp=1.
 FoFCou: FMM=F IPFlag=           0 FMFlag=      100000 FMFlg1=         800
         NFxFlg=           0 DoJE=F BraDBF=F KetDBF=F FulRan=T
         wScrn=  0.000000 ICntrl=      2127 IOpCl=  1 I1Cent=           0 NGrid=           0
         NMat0=    1 NMatS0=      1 NMatT0=    0 NMatD0=    1 NMtDS0=    0 NMtDT0=    0
 Symmetry not used in FoFCou.
 Leave Link  703 at Mon Apr 21 18:47:44 2025, MaxMem=   536870912 cpu:               6.8 elap:               0.9
 (Enter /home/szhao/Apps/g16/l716.exe)
 Dipole        =-1.78758301D+00-5.81314876D-07-6.77783903D-07
 -------------------------------------------------------------------
 Center     Atomic                   Forces (Hartrees/Bohr)
 Number     Number              X              Y              Z
 -------------------------------------------------------------------
      1        6          -0.000000000   -0.000000000   -0.000000000
      2        8          -0.000000000   -0.000000000   -0.000000000
      3        1           0.007324880   -0.002343571    0.000000036
      4        1           0.007324972    0.002343673    0.000000037
 -------------------------------------------------------------------
 Cartesian Forces:  Max     0.007324972 RMS     0.003139721
 Leave Link  716 at Mon Apr 21 18:47:45 2025, MaxMem=   536870912 cpu:               0.5 elap:               0.2
 (Enter /home/szhao/Apps/g16/l103.exe)

 GradGradGradGradGradGradGradGradGradGradGradGradGradGradGradGradGradGrad
 Berny optimization.
 Using GEDIIS/GDIIS optimizer.
 FormGI is forming the generalized inverse of G from B-inverse, IUseBI=4.
 Internal  Forces:  Max     0.014649851 RMS     0.005621254
 Search for a local minimum.
 Step number   2 out of a maximum of   22
 All quantities printed in internal units (Hartrees-Bohrs-Radians)
 RMS Force = .52371D-02 SwitMx=.10000D-02 MixMth= 1
 Mixed Optimization -- RFO/linear search
 Update second derivatives using D2CorX and points    1    2
 DE= -2.81D-03 DEPred=-1.94D-03 R= 1.45D+00
 TightC=F SS=  1.41D+00  RLast= 1.44D-01 DXNew= 5.0454D-01 4.3171D-01
 Trust test= 1.45D+00 RLast= 1.44D-01 DXMaxT set to 4.32D-01
 The second derivative matrix:
                          X1        Y1        Z1        X2        Y2
           X1           0.69456
           Y1          -0.00000   0.50000
           Z1          -0.00000   0.00000   0.50000
           X2           0.00000  -0.00000  -0.00000   0.50000
           Y2          -0.00000   0.00000   0.00000  -0.00000   0.50000
           Z2           0.00000  -0.00000  -0.00000   0.00000  -0.00000
           R1          -0.10030   0.00000   0.00000  -0.00000   0.00000
           R2          -0.10031   0.00000   0.00000  -0.00000   0.00000
           A1          -0.03840   0.00000   0.00000  -0.00000   0.00000
           A2          -0.03840   0.00000   0.00000  -0.00000   0.00000
           A3           0.07679  -0.00000  -0.00000   0.00000  -0.00000
           D1          -0.00000   0.00000   0.00000  -0.00000   0.00000
                          Z2        R1        R2        A1        A2
           Z2           0.50000
           R1          -0.00000   0.34787
           R2          -0.00000   0.01645   0.34788
           A1          -0.00000  -0.00741  -0.00741   0.14659
           A2          -0.00000  -0.00741  -0.00741  -0.01341   0.14658
           A3           0.00000   0.01482   0.01482   0.02683   0.02683
           D1          -0.00000   0.00000   0.00000   0.00000   0.00000
                          A3        D1
           A3           0.10634
           D1          -0.00000   0.00230
 ITU=  1  0
 Use linear search instead of GDIIS.
     Eigenvalues ---    0.00230   0.07722   0.16000   0.33142   0.36662
     Eigenvalues --- 1000.000001000.000001000.000001000.000001000.00000
     Eigenvalues --- 1000.000001000.00000
 RFO step:  Lambda=-4.74430974D-04 EMin= 2.30000000D-03
 Quartic linear search produced a step of  0.92315.
 Iteration  1 RMS(Cart)=  0.05705620 RMS(Int)=  0.00194939
 Iteration  2 RMS(Cart)=  0.00195098 RMS(Int)=  0.00000029
 Iteration  3 RMS(Cart)=  0.00000035 RMS(Int)=  0.00000000
 ITry= 1 IFail=0 DXMaxC= 1.30D-01 DCOld= 1.00D+10 DXMaxT= 4.32D-01 DXLimC= 3.00D+00 Rises=F
 Variable       Old X    -DE/DX   Delta X   Delta X   Delta X     New X
                                 (Linear)    (Quad)   (Total)
    X1       -1.79205   0.01465   0.00000   0.00000   0.00000  -1.79205
    Y1        0.00000   0.00000   0.00000   0.00000   0.00000   0.00000
    Z1        0.00000   0.00000   0.00000   0.00000   0.00000   0.00000
    X2        1.79205  -0.00000   0.00000   0.00000   0.00000   1.79205
    Y2        0.00000  -0.00000   0.00000   0.00000   0.00000   0.00000
    Z2        0.00000  -0.00000   0.00000   0.00000   0.00000   0.00000
    R1        2.05346  -0.00145  -0.03191   0.01952  -0.01239   2.04107
    R2        2.05346  -0.00145  -0.03191   0.01952  -0.01239   2.04107
    A1        2.07018  -0.00517  -0.05101  -0.01691  -0.06792   2.00226
    A2        2.07018  -0.00517  -0.05101  -0.01691  -0.06792   2.00226
    A3        2.14283   0.01034   0.10201   0.03383   0.13584   2.27867
    D1        3.14159   0.00000  -0.00000   0.00004   0.00004  -3.14156
         Item               Value     Threshold  Converged?
 Maximum Force            0.010339     0.000450     NO 
 RMS     Force            0.005237     0.000300     NO 
 Maximum Displacement     0.129798     0.001800     NO 
 RMS     Displacement     0.056981     0.001200     NO 
 Predicted change in Energy=-1.061236D-03
 Lowest energy point so far.  Saving SCF results.
 GradGradGradGradGradGradGradGradGradGradGradGradGradGradGradGradGradGrad

 Leave Link  103 at Mon Apr 21 18:47:45 2025, MaxMem=   536870912 cpu:               0.6 elap:               0.1
 (Enter /home/szhao/Apps/g16/l202.exe)
                          Input orientation:                          
 ---------------------------------------------------------------------
 Center     Atomic      Atomic             Coordinates (Angstroms)
 Number     Number       Type             X           Y           Z
 ---------------------------------------------------------------------
      1          6           0       -0.948311    0.000000    0.000000
      2          8           0        0.948311    0.000000    0.000000
      3          1           0       -1.400003   -0.981103    0.000014
      4          1           0       -1.400004    0.981102    0.000014
 ---------------------------------------------------------------------
                    Distance matrix (angstroms):
                    1          2          3          4
     1  C    0.000000
     2  O    1.896622   0.000000
     3  H    1.080087   2.545023   0.000000
     4  H    1.080087   2.545023   1.962205   0.000000
 Symmetry turned off by external request.
 Stoichiometry    CH2O
 Framework group  C1[X(CH2O)]
 Deg. of freedom     6
 Full point group                 C1      NOp   1
 Rotational constants (GHZ):         260.4793317          17.3698297          16.2839492
 Leave Link  202 at Mon Apr 21 18:47:45 2025, MaxMem=   536870912 cpu:               0.1 elap:               0.1
 (Enter /home/szhao/Apps/g16/l301.exe)
 Standard basis: 6-311+G(d,p) (5D, 7F)
 Ernie: Thresh=  0.10000D-02 Tol=  0.10000D-05 Strict=F.
    56 basis functions,    88 primitive gaussians,    58 cartesian basis functions
     8 alpha electrons        8 beta electrons
       nuclear repulsion energy        22.8682752412 Hartrees.
 IExCor= 4336 DFT=T Ex+Corr=M062X ExCW=0 ScaHFX=  0.540000
 ScaDFX=  1.000000  1.000000  1.000000  1.000000 ScalE2=  1.000000  1.000000
 IRadAn=      7 IRanWt=     -1 IRanGd=            0 ICorTp=0 IEmpDi=  4
 NAtoms=    4 NActive=    4 NUniq=    4 SFac= 1.00D+00 NAtFMM=   60 NAOKFM=F Big=F
 Integral buffers will be    131072 words long.
 Raffenetti 2 integral format.
 Two-electron integral symmetry is turned off.
 Leave Link  301 at Mon Apr 21 18:47:46 2025, MaxMem=   536870912 cpu:               1.3 elap:               0.3
 (Enter /home/szhao/Apps/g16/l302.exe)
 NPDir=0 NMtPBC=     1 NCelOv=     1 NCel=       1 NClECP=     1 NCelD=      1
         NCelK=      1 NCelE2=     1 NClLst=     1 CellRange=     0.0.
 One-electron integrals computed using PRISM.
 NBasis=    56 RedAO= T EigKep=  1.36D-02  NBF=    56
 NBsUse=    56 1.00D-06 EigRej= -1.00D+00 NBFU=    56
 Precomputing XC quadrature grid using
 IXCGrd= 4 IRadAn=           7 IRanWt=          -1 IRanGd=           0 AccXCQ= 0.00D+00.
 Generated NRdTot=       0 NPtTot=           0 NUsed=           0 NTot=          32
 NSgBfM=    58    58    58    58    58 MxSgAt=     4 MxSgA2=     4.
 Leave Link  302 at Mon Apr 21 18:47:46 2025, MaxMem=   536870912 cpu:               1.4 elap:               0.3
 (Enter /home/szhao/Apps/g16/l303.exe)
 DipDrv:  MaxL=1.
 Leave Link  303 at Mon Apr 21 18:47:47 2025, MaxMem=   536870912 cpu:               0.4 elap:               0.1
 (Enter /home/szhao/Apps/g16/l401.exe)
 Initial guess from the checkpoint file:  "opt.chk"
 B after Tr=     0.016224    0.000000    0.000003
         Rot=    1.000000   -0.000000   -0.000001    0.000000 Ang=  -0.00 deg.
 Guess basis will be translated and rotated to current coordinates.
 JPrj=2 DoOrth=T DoCkMO=T.
 Initial guess <Sx>= 0.0000 <Sy>= 0.0000 <Sz>= 0.0000 <S**2>=-0.0000 S=-0.0000
 Generating alternative initial guess.
 ExpMin= 4.38D-02 ExpMax= 8.59D+03 ExpMxC= 1.30D+03 IAcc=3 IRadAn=         5 AccDes= 0.00D+00
 Harris functional with IExCor= 1009 and IRadAn=       5 diagonalized for initial guess.
 HarFok:  IExCor= 1009 AccDes= 0.00D+00 IRadAn=         5 IDoV= 1 UseB2=F ITyADJ=14
 ICtDFT=  3500011 ScaDFX=  1.000000  1.000000  1.000000  1.000000
 FoFCou: FMM=F IPFlag=           0 FMFlag=      100000 FMFlg1=           0
         NFxFlg=           0 DoJE=T BraDBF=F KetDBF=T FulRan=T
         wScrn=  0.000000 ICntrl=       500 IOpCl=  0 I1Cent=   200000004 NGrid=           0
         NMat0=    1 NMatS0=      1 NMatT0=    0 NMatD0=    1 NMtDS0=    0 NMtDT0=    0
 Symmetry not used in FoFCou.
 Harris En= -114.247312949457    
 Leave Link  401 at Mon Apr 21 18:47:47 2025, MaxMem=   536870912 cpu:               3.7 elap:               0.5
 (Enter /home/szhao/Apps/g16/l502.exe)
 Keep R1 and R2 ints in memory in canonical form, NReq=9624206.
 FoFCou: FMM=F IPFlag=           0 FMFlag=           0 FMFlg1=           0
         NFxFlg=           0 DoJE=F BraDBF=F KetDBF=F FulRan=T
         wScrn=  0.000000 ICntrl=       600 IOpCl=  0 I1Cent=           0 NGrid=           0
         NMat0=    1 NMatS0=   1596 NMatT0=    0 NMatD0=    1 NMtDS0=    0 NMtDT0=    0
 Symmetry not used in FoFCou.
 Two-electron integral symmetry not used.
 UHF open shell SCF:
 Using DIIS extrapolation, IDIIS=  1040.
 NGot=   536870912 LenX=   534314330 LenY=   534310525
 Requested convergence on RMS density matrix=1.00D-08 within 128 cycles.
 Requested convergence on MAX density matrix=1.00D-06.
 Requested convergence on             energy=1.00D-06.
 No special actions if energy rises.

 Cycle   1  Pass 1  IDiag  1:
 E= -114.250409027433    
 DIIS: error= 2.89D-03 at cycle   1 NSaved=   1.
 NSaved= 1 IEnMin= 1 EnMin= -114.250409027433     IErMin= 1 ErrMin= 2.89D-03
 ErrMax= 2.89D-03  0.00D+00 EMaxC= 1.00D-01 BMatC= 1.53D-03 BMatP= 1.53D-03
 IDIUse=3 WtCom= 9.71D-01 WtEn= 2.89D-02
 Coeff-Com:  0.100D+01
 Coeff-En:   0.100D+01
 Coeff:      0.100D+01
 Gap=     0.581 Goal=   None    Shift=    0.000
 Gap=     0.581 Goal=   None    Shift=    0.000
 GapD=    0.581 DampG=2.000 DampE=1.000 DampFc=2.0000 IDamp=-1.
 RMSDP=3.52D-04 MaxDP=2.70D-03              OVMax= 1.21D-02

 Cycle   2  Pass 1  IDiag  1:
 E= -114.250783887746     Delta-E=       -0.000374860313 Rises=F Damp=F
 DIIS: error= 2.43D-03 at cycle   2 NSaved=   2.
 NSaved= 2 IEnMin= 2 EnMin= -114.250783887746     IErMin= 2 ErrMin= 2.43D-03
 ErrMax= 2.43D-03  0.00D+00 EMaxC= 1.00D-01 BMatC= 7.77D-04 BMatP= 1.53D-03
 IDIUse=3 WtCom= 9.76D-01 WtEn= 2.43D-02
 Coeff-Com:  0.347D+00 0.653D+00
 Coeff-En:   0.000D+00 0.100D+01
 Coeff:      0.338D+00 0.662D+00
 Gap=     0.217 Goal=   None    Shift=    0.000
 Gap=     0.217 Goal=   None    Shift=    0.000
 RMSDP=3.23D-04 MaxDP=3.45D-03 DE=-3.75D-04 OVMax= 1.53D-02

 Cycle   3  Pass 1  IDiag  1:
 E= -114.250324955743     Delta-E=        0.000458932003 Rises=F Damp=F
 DIIS: error= 6.19D-03 at cycle   3 NSaved=   3.
 NSaved= 3 IEnMin= 2 EnMin= -114.250783887746     IErMin= 2 ErrMin= 2.43D-03
 ErrMax= 6.19D-03  0.00D+00 EMaxC= 1.00D-01 BMatC= 2.88D-03 BMatP= 7.77D-04
 IDIUse=3 WtCom= 1.13D-01 WtEn= 8.87D-01
 Coeff-Com: -0.809D-01 0.707D+00 0.373D+00
 Coeff-En:   0.000D+00 0.709D+00 0.291D+00
 Coeff:     -0.912D-02 0.709D+00 0.300D+00
 Gap=     0.214 Goal=   None    Shift=    0.000
 Gap=     0.214 Goal=   None    Shift=    0.000
 RMSDP=1.86D-04 MaxDP=2.77D-03 DE= 4.59D-04 OVMax= 1.28D-02

 Cycle   4  Pass 1  IDiag  1:
 E= -114.250971602396     Delta-E=       -0.000646646653 Rises=F Damp=F
 DIIS: error= 1.15D-03 at cycle   4 NSaved=   4.
 NSaved= 4 IEnMin= 4 EnMin= -114.250971602396     IErMin= 4 ErrMin= 1.15D-03
 ErrMax= 1.15D-03  0.00D+00 EMaxC= 1.00D-01 BMatC= 6.20D-05 BMatP= 7.77D-04
 IDIUse=3 WtCom= 9.89D-01 WtEn= 1.15D-02
 Coeff-Com: -0.222D-01 0.433D-01-0.125D+00 0.110D+01
 Coeff-En:   0.000D+00 0.000D+00 0.000D+00 0.100D+01
 Coeff:     -0.220D-01 0.428D-01-0.124D+00 0.110D+01
 Gap=     0.214 Goal=   None    Shift=    0.000
 Gap=     0.214 Goal=   None    Shift=    0.000
 RMSDP=7.62D-05 MaxDP=1.12D-03 DE=-6.47D-04 OVMax= 5.73D-03

 Cycle   5  Pass 1  IDiag  1:
 E= -114.251000111897     Delta-E=       -0.000028509501 Rises=F Damp=F
 DIIS: error= 3.64D-04 at cycle   5 NSaved=   5.
 NSaved= 5 IEnMin= 5 EnMin= -114.251000111897     IErMin= 5 ErrMin= 3.64D-04
 ErrMax= 3.64D-04  0.00D+00 EMaxC= 1.00D-01 BMatC= 1.61D-05 BMatP= 6.20D-05
 IDIUse=3 WtCom= 9.96D-01 WtEn= 3.64D-03
 Coeff-Com:  0.166D-01-0.206D+00 0.214D-01-0.249D+00 0.142D+01
 Coeff-En:   0.000D+00 0.000D+00 0.000D+00 0.000D+00 0.100D+01
 Coeff:      0.165D-01-0.205D+00 0.213D-01-0.249D+00 0.142D+01
 Gap=     0.214 Goal=   None    Shift=    0.000
 Gap=     0.214 Goal=   None    Shift=    0.000
 RMSDP=6.85D-05 MaxDP=6.95D-04 DE=-2.85D-05 OVMax= 3.25D-03

 Cycle   6  Pass 1  IDiag  1:
 E= -114.251012503864     Delta-E=       -0.000012391968 Rises=F Damp=F
 DIIS: error= 7.96D-05 at cycle   6 NSaved=   6.
 NSaved= 6 IEnMin= 6 EnMin= -114.251012503864     IErMin= 6 ErrMin= 7.96D-05
 ErrMax= 7.96D-05  0.00D+00 EMaxC= 1.00D-01 BMatC= 1.40D-06 BMatP= 1.61D-05
 IDIUse=1 WtCom= 1.00D+00 WtEn= 0.00D+00
 Coeff-Com:  0.544D-02-0.151D-01 0.854D-01-0.488D+00 0.123D+00 0.129D+01
 Coeff:      0.544D-02-0.151D-01 0.854D-01-0.488D+00 0.123D+00 0.129D+01
 Gap=     0.214 Goal=   None    Shift=    0.000
 Gap=     0.214 Goal=   None    Shift=    0.000
 RMSDP=4.54D-05 MaxDP=4.46D-04 DE=-1.24D-05 OVMax= 2.44D-03

 Cycle   7  Pass 1  IDiag  1:
 E= -114.251015061921     Delta-E=       -0.000002558056 Rises=F Damp=F
 DIIS: error= 4.64D-05 at cycle   7 NSaved=   7.
 NSaved= 7 IEnMin= 7 EnMin= -114.251015061921     IErMin= 7 ErrMin= 4.64D-05
 ErrMax= 4.64D-05  0.00D+00 EMaxC= 1.00D-01 BMatC= 3.68D-07 BMatP= 1.40D-06
 IDIUse=1 WtCom= 1.00D+00 WtEn= 0.00D+00
 Coeff-Com: -0.210D-02 0.236D-01 0.165D-01-0.170D-01-0.160D+00 0.638D-01
 Coeff-Com:  0.107D+01
 Coeff:     -0.210D-02 0.236D-01 0.165D-01-0.170D-01-0.160D+00 0.638D-01
 Coeff:      0.107D+01
 Gap=     0.214 Goal=   None    Shift=    0.000
 Gap=     0.214 Goal=   None    Shift=    0.000
 RMSDP=9.19D-06 MaxDP=1.08D-04 DE=-2.56D-06 OVMax= 4.43D-04

 Cycle   8  Pass 1  IDiag  1:
 E= -114.251015208010     Delta-E=       -0.000000146089 Rises=F Damp=F
 DIIS: error= 2.24D-06 at cycle   8 NSaved=   8.
 NSaved= 8 IEnMin= 8 EnMin= -114.251015208010     IErMin= 8 ErrMin= 2.24D-06
 ErrMax= 2.24D-06  0.00D+00 EMaxC= 1.00D-01 BMatC= 8.27D-10 BMatP= 3.68D-07
 IDIUse=1 WtCom= 1.00D+00 WtEn= 0.00D+00
 Coeff-Com: -0.286D-03 0.240D-02 0.438D-03 0.697D-02-0.195D-01-0.144D-01
 Coeff-Com:  0.115D+00 0.909D+00
 Coeff:     -0.286D-03 0.240D-02 0.438D-03 0.697D-02-0.195D-01-0.144D-01
 Coeff:      0.115D+00 0.909D+00
 Gap=     0.214 Goal=   None    Shift=    0.000
 Gap=     0.214 Goal=   None    Shift=    0.000
 RMSDP=3.30D-07 MaxDP=3.48D-06 DE=-1.46D-07 OVMax= 1.02D-05

 Cycle   9  Pass 1  IDiag  1:
 E= -114.251015208248     Delta-E=       -0.000000000238 Rises=F Damp=F
 DIIS: error= 3.78D-07 at cycle   9 NSaved=   9.
 NSaved= 9 IEnMin= 9 EnMin= -114.251015208248     IErMin= 9 ErrMin= 3.78D-07
 ErrMax= 3.78D-07  0.00D+00 EMaxC= 1.00D-01 BMatC= 2.01D-11 BMatP= 8.27D-10
 IDIUse=1 WtCom= 1.00D+00 WtEn= 0.00D+00
 Coeff-Com:  0.102D-03-0.120D-02-0.994D-03 0.182D-02 0.658D-02-0.373D-02
 Coeff-Com: -0.513D-01-0.158D-01 0.106D+01
 Coeff:      0.102D-03-0.120D-02-0.994D-03 0.182D-02 0.658D-02-0.373D-02
 Coeff:     -0.513D-01-0.158D-01 0.106D+01
 Gap=     0.214 Goal=   None    Shift=    0.000
 Gap=     0.214 Goal=   None    Shift=    0.000
 RMSDP=8.13D-08 MaxDP=7.19D-07 DE=-2.38D-10 OVMax= 3.03D-06

 Cycle  10  Pass 1  IDiag  1:
 E= -114.251015208258     Delta-E=       -0.000000000010 Rises=F Damp=F
 DIIS: error= 3.42D-08 at cycle  10 NSaved=  10.
 NSaved=10 IEnMin=10 EnMin= -114.251015208258     IErMin=10 ErrMin= 3.42D-08
 ErrMax= 3.42D-08  0.00D+00 EMaxC= 1.00D-01 BMatC= 2.08D-13 BMatP= 2.01D-11
 IDIUse=1 WtCom= 1.00D+00 WtEn= 0.00D+00
 Coeff-Com: -0.457D-05 0.654D-04 0.732D-04-0.266D-03-0.225D-03 0.795D-03
 Coeff-Com:  0.207D-02-0.191D-01-0.834D-01 0.110D+01
 Coeff:     -0.457D-05 0.654D-04 0.732D-04-0.266D-03-0.225D-03 0.795D-03
 Coeff:      0.207D-02-0.191D-01-0.834D-01 0.110D+01
 Gap=     0.214 Goal=   None    Shift=    0.000
 Gap=     0.214 Goal=   None    Shift=    0.000
 RMSDP=1.22D-08 MaxDP=1.42D-07 DE=-9.83D-12 OVMax= 5.02D-07

 Cycle  11  Pass 1  IDiag  1:
 E= -114.251015208258     Delta-E=       -0.000000000000 Rises=F Damp=F
 DIIS: error= 6.21D-09 at cycle  11 NSaved=  11.
 NSaved=11 IEnMin=11 EnMin= -114.251015208258     IErMin=11 ErrMin= 6.21D-09
 ErrMax= 6.21D-09  0.00D+00 EMaxC= 1.00D-01 BMatC= 5.07D-15 BMatP= 2.08D-13
 IDIUse=1 WtCom= 1.00D+00 WtEn= 0.00D+00
 Coeff-Com: -0.366D-06 0.337D-05 0.497D-05-0.397D-05-0.266D-04-0.180D-04
 Coeff-Com:  0.250D-03 0.971D-03-0.925D-04-0.107D+00 0.111D+01
 Coeff:     -0.366D-06 0.337D-05 0.497D-05-0.397D-05-0.266D-04-0.180D-04
 Coeff:      0.250D-03 0.971D-03-0.925D-04-0.107D+00 0.111D+01
 Gap=     0.214 Goal=   None    Shift=    0.000
 Gap=     0.214 Goal=   None    Shift=    0.000
 RMSDP=1.41D-09 MaxDP=1.38D-08 DE=-2.84D-14 OVMax= 3.36D-08

 SCF Done:  E(UM062X) =  -114.251015208     A.U. after   11 cycles
            NFock= 11  Conv=0.14D-08     -V/T= 2.0087
 <Sx>= 0.0000 <Sy>= 0.0000 <Sz>= 0.0000 <S**2>=-0.0000 S=-0.0000
 <L.S>=  0.00000000000    
 KE= 1.132659662919D+02 PE=-3.139763963959D+02 EE= 6.359113965455D+01
 Annihilation of the first spin contaminant:
 S**2 before annihilation    -0.0000,   after     0.0000
 Leave Link  502 at Mon Apr 21 18:47:52 2025, MaxMem=   536870912 cpu:              31.3 elap:               4.1
 (Enter /home/szhao/Apps/g16/l701.exe)
 ... and contract with generalized density number  0.
 Compute integral first derivatives.
 Leave Link  701 at Mon Apr 21 18:47:52 2025, MaxMem=   536870912 cpu:               1.3 elap:               0.2
 (Enter /home/szhao/Apps/g16/l702.exe)
 L702 exits ... SP integral derivatives will be done elsewhere.
 Leave Link  702 at Mon Apr 21 18:47:52 2025, MaxMem=   536870912 cpu:               0.7 elap:               0.1
 (Enter /home/szhao/Apps/g16/l703.exe)
 Integral derivatives from FoFJK, PRISM(SPDF).
 Compute integral first derivatives, UseDBF=F ICtDFT=           0.
 Calling FoFJK, ICntrl=      2127 FMM=F ISym2X=0 I1Cent= 0 IOpClX= 1 NMat=1 NMatS=1 NMatT=0.
 FoFJK:  IHMeth= 1 ICntrl=    2127 DoSepK=F KAlg= 0 I1Cent=           0 FoldK=F
 IRaf=         0 NMat=       1 IRICut=       1 DoRegI=T DoRafI=F ISym2E= 0 IDoP0=0 IntGTp=1.
 FoFCou: FMM=F IPFlag=           0 FMFlag=      100000 FMFlg1=         800
         NFxFlg=           0 DoJE=F BraDBF=F KetDBF=F FulRan=T
         wScrn=  0.000000 ICntrl=      2127 IOpCl=  1 I1Cent=           0 NGrid=           0
         NMat0=    1 NMatS0=      1 NMatT0=    0 NMatD0=    1 NMtDS0=    0 NMtDT0=    0
 Symmetry not used in FoFCou.
 Leave Link  703 at Mon Apr 21 18:47:53 2025, MaxMem=   536870912 cpu:               6.3 elap:               0.9
 (Enter /home/szhao/Apps/g16/l716.exe)
 Dipole        =-1.76378851D+00-8.11530811D-08 1.09523749D-05
 -------------------------------------------------------------------
 Center     Atomic                   Forces (Hartrees/Bohr)
 Number     Number              X              Y              Z
 -------------------------------------------------------------------
      1        6          -0.000000000   -0.000000000   -0.000000000
      2        8          -0.000000000   -0.000000000   -0.000000000
      3        1           0.000330904   -0.001487503   -0.000000491
      4        1           0.000330906    0.001487542   -0.000000490
 -------------------------------------------------------------------
 Cartesian Forces:  Max     0.001487542 RMS     0.000622123
 Leave Link  716 at Mon Apr 21 18:47:54 2025, MaxMem=   536870912 cpu:               0.9 elap:               0.2
 (Enter /home/szhao/Apps/g16/l103.exe)

 GradGradGradGradGradGradGradGradGradGradGradGradGradGradGradGradGradGrad
 Berny optimization.
 Using GEDIIS/GDIIS optimizer.
 FormGI is forming the generalized inverse of G from B-inverse, IUseBI=4.
 Internal  Forces:  Max     0.001255477 RMS     0.000691867
 Search for a local minimum.
 Step number   3 out of a maximum of   22
 All quantities printed in internal units (Hartrees-Bohrs-Radians)
 RMS Force = .94041D-03 SwitMx=.10000D-02 MixMth= 2
 Mixed Optimization -- En-DIIS/RFO-DIIS
 Update second derivatives using D2CorX and points    1    2    3
 DE= -1.16D-03 DEPred=-1.06D-03 R= 1.10D+00
 TightC=F SS=  1.41D+00  RLast= 1.67D-01 DXNew= 7.2604D-01 5.0187D-01
 Trust test= 1.10D+00 RLast= 1.67D-01 DXMaxT set to 5.02D-01
 The second derivative matrix:
                          X1        Y1        Z1        X2        Y2
           X1           0.64233
           Y1           0.00000   0.50000
           Z1           0.00001   0.00000   0.50000
           X2           0.00000   0.00000   0.00000   0.50000
           Y2          -0.00000  -0.00000  -0.00000  -0.00000   0.50000
           Z2          -0.00000  -0.00000  -0.00000  -0.00000   0.00000
           R1          -0.10571   0.00000  -0.00000  -0.00000   0.00000
           R2          -0.10571   0.00000  -0.00000  -0.00000   0.00000
           A1          -0.02790  -0.00000  -0.00000  -0.00000   0.00000
           A2          -0.02790  -0.00000  -0.00000  -0.00000   0.00000
           A3           0.05579   0.00000   0.00001   0.00000  -0.00000
           D1           0.00001   0.00000   0.00000   0.00000  -0.00000
                          Z2        R1        R2        A1        A2
           Z2           0.50000
           R1           0.00000   0.35432
           R2           0.00000   0.02290   0.35432
           A1           0.00000  -0.00493  -0.00493   0.14478
           A2           0.00000  -0.00493  -0.00493  -0.01522   0.14478
           A3          -0.00000   0.00987   0.00987   0.03044   0.03044
           D1          -0.00000  -0.00000  -0.00000  -0.00000  -0.00000
                          A3        D1
           A3           0.09911
           D1           0.00000   0.00230
 ITU=  1  1  0
 Use linear search instead of GDIIS.
     Eigenvalues ---    0.00230   0.06773   0.16000   0.33142   0.37816
     Eigenvalues --- 1000.000001000.000001000.000001000.000001000.00000
     Eigenvalues --- 1000.000001000.00000
 RFO step:  Lambda=-1.28718229D-05 EMin= 2.30000008D-03
 Quartic linear search produced a step of  0.12664.
 Iteration  1 RMS(Cart)=  0.00788817 RMS(Int)=  0.00003762
 Iteration  2 RMS(Cart)=  0.00003798 RMS(Int)=  0.00000001
 Iteration  3 RMS(Cart)=  0.00000000 RMS(Int)=  0.00000001
 ITry= 1 IFail=0 DXMaxC= 1.64D-02 DCOld= 1.00D+10 DXMaxT= 5.02D-01 DXLimC= 3.00D+00 Rises=F
 Variable       Old X    -DE/DX   Delta X   Delta X   Delta X     New X
                                 (Linear)    (Quad)   (Total)
    X1       -1.79205   0.00066   0.00000   0.00000   0.00000  -1.79205
    Y1        0.00000   0.00000   0.00000   0.00000   0.00000   0.00000
    Z1        0.00000  -0.00000   0.00000   0.00000   0.00000   0.00000
    X2        1.79205  -0.00000   0.00000   0.00000   0.00000   1.79205
    Y2        0.00000  -0.00000   0.00000   0.00000   0.00000   0.00000
    Z2        0.00000   0.00000   0.00000   0.00000   0.00000   0.00000
    R1        2.04107   0.00121  -0.00157   0.00403   0.00246   2.04353
    R2        2.04107   0.00121  -0.00157   0.00403   0.00246   2.04353
    A1        2.00226  -0.00063  -0.00860  -0.00079  -0.00939   1.99287
    A2        2.00226  -0.00063  -0.00860  -0.00079  -0.00939   1.99287
    A3        2.27867   0.00126   0.01720   0.00157   0.01878   2.29744
    D1       -3.14156  -0.00000   0.00000  -0.00036  -0.00036   3.14127
         Item               Value     Threshold  Converged?
 Maximum Force            0.001255     0.000450     NO 
 RMS     Force            0.000940     0.000300     NO 
 Maximum Displacement     0.016438     0.001800     NO 
 RMS     Displacement     0.007893     0.001200     NO 
 Predicted change in Energy=-1.951927D-05
 Lowest energy point so far.  Saving SCF results.
 GradGradGradGradGradGradGradGradGradGradGradGradGradGradGradGradGradGrad

 Leave Link  103 at Mon Apr 21 18:47:54 2025, MaxMem=   536870912 cpu:               0.5 elap:               0.1
 (Enter /home/szhao/Apps/g16/l202.exe)
                          Input orientation:                          
 ---------------------------------------------------------------------
 Center     Atomic      Atomic             Coordinates (Angstroms)
 Number     Number       Type             X           Y           Z
 ---------------------------------------------------------------------
      1          6           0       -0.948311    0.000000    0.000000
      2          8           0        0.948311    0.000000    0.000000
      3          1           0       -1.391305   -0.986487   -0.000131
      4          1           0       -1.391305    0.986487   -0.000130
 ---------------------------------------------------------------------
                    Distance matrix (angstroms):
                    1          2          3          4
     1  C    0.000000
     2  O    1.896622   0.000000
     3  H    1.081388   2.539087   0.000000
     4  H    1.081388   2.539087   1.972974   0.000000
 Symmetry turned off by external request.
 Stoichiometry    CH2O
 Framework group  C1[X(CH2O)]
 Deg. of freedom     6
 Full point group                 C1      NOp   1
 Rotational constants (GHZ):         257.6437039          17.3997777          16.2990344
 Leave Link  202 at Mon Apr 21 18:47:54 2025, MaxMem=   536870912 cpu:               0.2 elap:               0.1
 (Enter /home/szhao/Apps/g16/l301.exe)
 Standard basis: 6-311+G(d,p) (5D, 7F)
 Ernie: Thresh=  0.10000D-02 Tol=  0.10000D-05 Strict=F.
    56 basis functions,    88 primitive gaussians,    58 cartesian basis functions
     8 alpha electrons        8 beta electrons
       nuclear repulsion energy        22.8675090038 Hartrees.
 IExCor= 4336 DFT=T Ex+Corr=M062X ExCW=0 ScaHFX=  0.540000
 ScaDFX=  1.000000  1.000000  1.000000  1.000000 ScalE2=  1.000000  1.000000
 IRadAn=      7 IRanWt=     -1 IRanGd=            0 ICorTp=0 IEmpDi=  4
 NAtoms=    4 NActive=    4 NUniq=    4 SFac= 1.00D+00 NAtFMM=   60 NAOKFM=F Big=F
 Integral buffers will be    131072 words long.
 Raffenetti 2 integral format.
 Two-electron integral symmetry is turned off.
 Leave Link  301 at Mon Apr 21 18:47:54 2025, MaxMem=   536870912 cpu:               0.9 elap:               0.2
 (Enter /home/szhao/Apps/g16/l302.exe)
 NPDir=0 NMtPBC=     1 NCelOv=     1 NCel=       1 NClECP=     1 NCelD=      1
         NCelK=      1 NCelE2=     1 NClLst=     1 CellRange=     0.0.
 One-electron integrals computed using PRISM.
 NBasis=    56 RedAO= T EigKep=  1.35D-02  NBF=    56
 NBsUse=    56 1.00D-06 EigRej= -1.00D+00 NBFU=    56
 Precomputing XC quadrature grid using
 IXCGrd= 4 IRadAn=           7 IRanWt=          -1 IRanGd=           0 AccXCQ= 0.00D+00.
 Generated NRdTot=       0 NPtTot=           0 NUsed=           0 NTot=          32
 NSgBfM=    58    58    58    58    58 MxSgAt=     4 MxSgA2=     4.
 Leave Link  302 at Mon Apr 21 18:47:55 2025, MaxMem=   536870912 cpu:               1.7 elap:               0.4
 (Enter /home/szhao/Apps/g16/l303.exe)
 DipDrv:  MaxL=1.
 Leave Link  303 at Mon Apr 21 18:47:55 2025, MaxMem=   536870912 cpu:               0.6 elap:               0.1
 (Enter /home/szhao/Apps/g16/l401.exe)
 Initial guess from the checkpoint file:  "opt.chk"
 B after Tr=     0.002055    0.000000   -0.000032
         Rot=    1.000000   -0.000000    0.000012    0.000000 Ang=   0.00 deg.
 Guess basis will be translated and rotated to current coordinates.
 JPrj=2 DoOrth=T DoCkMO=T.
 Initial guess <Sx>= 0.0000 <Sy>= 0.0000 <Sz>= 0.0000 <S**2>=-0.0000 S=-0.0000
 Leave Link  401 at Mon Apr 21 18:47:55 2025, MaxMem=   536870912 cpu:               1.4 elap:               0.3
 (Enter /home/szhao/Apps/g16/l502.exe)
 Keep R1 and R2 ints in memory in canonical form, NReq=9624206.
 FoFCou: FMM=F IPFlag=           0 FMFlag=           0 FMFlg1=           0
         NFxFlg=           0 DoJE=F BraDBF=F KetDBF=F FulRan=T
         wScrn=  0.000000 ICntrl=       600 IOpCl=  0 I1Cent=           0 NGrid=           0
         NMat0=    1 NMatS0=   1596 NMatT0=    0 NMatD0=    1 NMtDS0=    0 NMtDT0=    0
 Symmetry not used in FoFCou.
 Two-electron integral symmetry not used.
 UHF open shell SCF:
 Using DIIS extrapolation, IDIIS=  1040.
 NGot=   536870912 LenX=   534314330 LenY=   534310525
 Requested convergence on RMS density matrix=1.00D-08 within 128 cycles.
 Requested convergence on MAX density matrix=1.00D-06.
[...]
 Gap=     0.214 Goal=   None    Shift=    0.000
 RMSDP=3.05D-08 MaxDP=2.82D-07 DE=-7.96D-11 OVMax= 1.93D-06

 Cycle   8  Pass 1  IDiag  1:
 E= -114.251036333471     Delta-E=       -0.000000000002 Rises=F Damp=F
 DIIS: error= 4.12D-08 at cycle   8 NSaved=   8.
 NSaved= 8 IEnMin= 8 EnMin= -114.251036333471     IErMin= 8 ErrMin= 4.12D-08
 ErrMax= 4.12D-08  0.00D+00 EMaxC= 1.00D-01 BMatC= 3.81D-13 BMatP= 1.80D-12
 IDIUse=1 WtCom= 1.00D+00 WtEn= 0.00D+00
 Coeff-Com:  0.184D-03-0.330D-02 0.211D-02 0.136D-01 0.207D-02-0.100D+00
 Coeff-Com:  0.188D+00 0.897D+00
 Coeff:      0.184D-03-0.330D-02 0.211D-02 0.136D-01 0.207D-02-0.100D+00
 Coeff:      0.188D+00 0.897D+00
 Gap=     0.214 Goal=   None    Shift=    0.000
 Gap=     0.214 Goal=   None    Shift=    0.000
 RMSDP=8.61D-09 MaxDP=8.92D-08 DE=-1.79D-12 OVMax= 5.19D-07

 SCF Done:  E(UM062X) =  -114.251036333     A.U. after    8 cycles
            NFock=  8  Conv=0.86D-08     -V/T= 2.0087
 <Sx>= 0.0000 <Sy>= 0.0000 <Sz>= 0.0000 <S**2>=-0.0000 S=-0.0000
 <L.S>=  0.00000000000    
 KE= 1.132612765612D+02 PE=-3.139727742960D+02 EE= 6.359329996797D+01
 Annihilation of the first spin contaminant:
 S**2 before annihilation    -0.0000,   after     0.0000
 Leave Link  502 at Mon Apr 21 18:48:16 2025, MaxMem=   536870912 cpu:              24.6 elap:               3.3
 (Enter /home/szhao/Apps/g16/l701.exe)
 ... and contract with generalized density number  0.
 Compute integral first derivatives.
 Leave Link  701 at Mon Apr 21 18:48:17 2025, MaxMem=   536870912 cpu:               1.4 elap:               0.3
 (Enter /home/szhao/Apps/g16/l702.exe)
 L702 exits ... SP integral derivatives will be done elsewhere.
 Leave Link  702 at Mon Apr 21 18:48:17 2025, MaxMem=   536870912 cpu:               0.4 elap:               0.1
 (Enter /home/szhao/Apps/g16/l703.exe)
 Integral derivatives from FoFJK, PRISM(SPDF).
 Compute integral first derivatives, UseDBF=F ICtDFT=           0.
 Calling FoFJK, ICntrl=      2127 FMM=F ISym2X=0 I1Cent= 0 IOpClX= 1 NMat=1 NMatS=1 NMatT=0.
 FoFJK:  IHMeth= 1 ICntrl=    2127 DoSepK=F KAlg= 0 I1Cent=           0 FoldK=F
 IRaf=         0 NMat=       1 IRICut=       1 DoRegI=T DoRafI=F ISym2E= 0 IDoP0=0 IntGTp=1.
 FoFCou: FMM=F IPFlag=           0 FMFlag=      100000 FMFlg1=         800
         NFxFlg=           0 DoJE=F BraDBF=F KetDBF=F FulRan=T
         wScrn=  0.000000 ICntrl=      2127 IOpCl=  1 I1Cent=           0 NGrid=           0
         NMat0=    1 NMatS0=      1 NMatT0=    0 NMatD0=    1 NMtDS0=    0 NMtDT0=    0
 Symmetry not used in FoFCou.
 Leave Link  703 at Mon Apr 21 18:48:18 2025, MaxMem=   536870912 cpu:               6.6 elap:               0.8
 (Enter /home/szhao/Apps/g16/l716.exe)
 Dipole        =-1.76090771D+00-1.05419367D-08-1.84487103D-05
 -------------------------------------------------------------------
 Center     Atomic                   Forces (Hartrees/Bohr)
 Number     Number              X              Y              Z
 -------------------------------------------------------------------
      1        6          -0.000000000   -0.000000000   -0.000000000
      2        8          -0.000000000   -0.000000000   -0.000000000
      3        1           0.000000551    0.000006937    0.000000846
      4        1           0.000000554   -0.000006936    0.000000847
 -------------------------------------------------------------------
 Cartesian Forces:  Max     0.000006937 RMS     0.000002862
 Leave Link  716 at Mon Apr 21 18:48:18 2025, MaxMem=   536870912 cpu:               0.5 elap:               0.1
 (Enter /home/szhao/Apps/g16/l103.exe)

 GradGradGradGradGradGradGradGradGradGradGradGradGradGradGradGradGradGrad
 Berny optimization.
 Using GEDIIS/GDIIS optimizer.
 FormGI is forming the generalized inverse of G from B-inverse, IUseBI=4.
 Internal  Forces:  Max     0.000006555 RMS     0.000003007
 Search for a local minimum.
 Step number   6 out of a maximum of   22
 All quantities printed in internal units (Hartrees-Bohrs-Radians)
 RMS Force = .41391D-05 SwitMx=.10000D-02 MixMth= 2
 Mixed Optimization -- En-DIIS/RFO-DIIS
 Swapping is turned off.
 Update second derivatives using D2CorX and points    1    2    3    5    6
 DE= -8.48D-08 DEPred=-9.32D-08 R= 9.10D-01
 Trust test= 9.10D-01 RLast= 2.85D-03 DXMaxT set to 2.51D-01
 The second derivative matrix:
                          X1        Y1        Z1        X2        Y2
           X1           0.59698
           Y1          -0.00000   0.50000
           Z1          -0.01476   0.00000   0.55986
           X2           0.00000  -0.00000  -0.00000   0.50000
           Y2          -0.00000  -0.00000  -0.00000   0.00000   0.50000
           Z2           0.00279  -0.00000  -0.01133   0.00000   0.00000
           R1          -0.06884   0.00000   0.01461  -0.00000  -0.00000
           R2          -0.06884   0.00000   0.01461  -0.00000  -0.00000
           A1          -0.01746  -0.00000   0.00148  -0.00000   0.00000
           A2          -0.01746  -0.00000   0.00143  -0.00000   0.00000
           A3           0.03431   0.00000  -0.00285   0.00000  -0.00000
           D1           0.00050   0.00000   0.03525  -0.00000  -0.00000
                          Z2        R1        R2        A1        A2
           Z2           0.50214
           R1          -0.00277   0.28916
           R2          -0.00277  -0.04226   0.28916
           A1          -0.00028  -0.01018  -0.01018   0.14331
           A2          -0.00027  -0.01018  -0.01018  -0.01669   0.14331
           A3           0.00054   0.02096   0.02096   0.03344   0.03344
           D1          -0.00667  -0.00041  -0.00041   0.00002  -0.00001
                          A3        D1
           A3           0.09300
           D1           0.00011   0.02176
 ITU=  0 -1  1  1  1  0
     Eigenvalues ---    0.02176   0.05295   0.16000   0.25358   0.33142
     Eigenvalues --- 1000.000001000.000001000.000001000.000001000.00000
     Eigenvalues --- 1000.000001000.00000
 En-DIIS/RFO-DIIS/Sim-DIIS IScMMF=       -3 using points:     6    5    4    3
 RFO step:  Lambda=-4.31753344D-10.
 NNeg= 0 NGDIIS= 4 SimSw=  2.50D-03 Rises=F DC= -8.48D-08 SmlDif=  1.00D-05
 NRisDI= 0 DoIntr=F SqrtH=F CThrHd= 10.0 CDAdj=  3.0
 RMS Error=  0.2345036240D-04 NUsed= 4 OKEnD=F EnDIS=F
 InvSVX:  RCond= 3.94D-08 Info=           0 Equed=N FErr=  4.43D-15 BErr=  9.43D-17
 DIIS inversion failure, remove point   4.
 InvSVX:  RCond= 8.96D-08 Info=           0 Equed=N FErr=  1.46D-15 BErr=  2.14D-17
 DIIS inversion failure, remove point   3.
 InvSVX:  RCond= 9.17D-06 Info=           0 Equed=N FErr=  9.10D-16 BErr=  7.74D-17
 RFO-DIIS uses    2 points instead of    4
 DidBck=F Rises=F RFO-DIIS coefs:    0.97905    0.02095    0.00000    0.00000
 Iteration  1 RMS(Cart)=  0.00002588 RMS(Int)=  0.00000001
 Iteration  2 RMS(Cart)=  0.00000000 RMS(Int)=  0.00000001
 ITry= 1 IFail=0 DXMaxC= 4.49D-05 DCOld= 1.00D+10 DXMaxT= 2.51D-01 DXLimC= 3.00D+00 Rises=F
 Variable       Old X    -DE/DX   Delta X   Delta X   Delta X     New X
                                 (Linear)    (Quad)   (Total)
    X1       -1.79205   0.00000   0.00000   0.00000   0.00000  -1.79205
    Y1        0.00000   0.00000   0.00000   0.00000   0.00000   0.00000
    Z1        0.00000   0.00000   0.00000   0.00000   0.00000   0.00000
    X2        1.79205  -0.00000   0.00000   0.00000   0.00000   1.79205
    Y2        0.00000  -0.00000   0.00000   0.00000   0.00000   0.00000
    Z2        0.00000  -0.00000   0.00000   0.00000   0.00000   0.00000
    R1        2.04368  -0.00001  -0.00000  -0.00002  -0.00002   2.04366
    R2        2.04368  -0.00001  -0.00000  -0.00002  -0.00002   2.04366
    A1        1.99265   0.00000   0.00000   0.00002   0.00002   1.99267
    A2        1.99265   0.00000   0.00000   0.00002   0.00002   1.99267
    A3        2.29788  -0.00000  -0.00000  -0.00004  -0.00004   2.29785
    D1        3.14153   0.00000   0.00006  -0.00000   0.00006  -3.14159
         Item               Value     Threshold  Converged?
 Maximum Force            0.000007     0.000450     YES
 RMS     Force            0.000004     0.000300     YES
 Maximum Displacement     0.000045     0.001800     YES
 RMS     Displacement     0.000026     0.001200     YES
 Predicted change in Energy=-2.712638D-10
 Optimization completed.
    -- Stationary point found.
                           ----------------------------
                           !   Optimized Parameters   !
                           ! (Angstroms and Degrees)  !
 --------------------------                            --------------------------
 ! Name  Definition              Value          Derivative Info.                !
 --------------------------------------------------------------------------------
 ! X1    R(1,-1)                -0.9483         -DE/DX =    0.0                 !
 ! Y1    R(1,-2)                 0.0            -DE/DX =    0.0                 !
 ! Z1    R(1,-3)                 0.0            -DE/DX =    0.0                 !
 ! X2    R(2,-1)                 0.9483         -DE/DX =    0.0                 !
 ! Y2    R(2,-2)                 0.0            -DE/DX =    0.0                 !
 ! Z2    R(2,-3)                 0.0            -DE/DX =    0.0                 !
 ! R1    R(1,3)                  1.0815         -DE/DX =    0.0                 !
 ! R2    R(1,4)                  1.0815         -DE/DX =    0.0                 !
 ! A1    A(2,1,3)              114.1705         -DE/DX =    0.0                 !
 ! A2    A(2,1,4)              114.1705         -DE/DX =    0.0                 !
 ! A3    A(3,1,4)              131.6591         -DE/DX =    0.0                 !
 ! D1    D(2,1,4,3)           -180.0033         -DE/DX =    0.0                 !
 --------------------------------------------------------------------------------
 Lowest energy point so far.  Saving SCF results.
 Largest change from initial coordinates is atom    4       0.147 Angstoms.
 GradGradGradGradGradGradGradGradGradGradGradGradGradGradGradGradGradGrad

 Leave Link  103 at Mon Apr 21 18:48:19 2025, MaxMem=   536870912 cpu:               1.1 elap:               0.2
 (Enter /home/szhao/Apps/g16/l202.exe)
                          Input orientation:                          
 ---------------------------------------------------------------------
 Center     Atomic      Atomic             Coordinates (Angstroms)
 Number     Number       Type             X           Y           Z
 ---------------------------------------------------------------------
      1          6           0       -0.948311    0.000000    0.000000
      2          8           0        0.948311    0.000000    0.000000
      3          1           0       -1.391121   -0.986658   -0.000024
      4          1           0       -1.391121    0.986658   -0.000023
 ---------------------------------------------------------------------
                    Distance matrix (angstroms):
                    1          2          3          4
     1  C    0.000000
     2  O    1.896622   0.000000
     3  H    1.081469   2.538983   0.000000
     4  H    1.081469   2.538983   1.973315   0.000000
 Symmetry turned off by external request.
 Stoichiometry    CH2O
 Framework group  C1[X(CH2O)]
 Deg. of freedom     6
 Full point group                 C1      NOp   1
 Rotational constants (GHZ):         257.5544670          17.4004112          16.2992330
 Leave Link  202 at Mon Apr 21 18:48:19 2025, MaxMem=   536870912 cpu:               0.1 elap:               0.1
 (Enter /home/szhao/Apps/g16/l601.exe)
 Copying SCF densities to generalized density rwf, IOpCl= 1 IROHF=0.

 **********************************************************************

            Population analysis using the SCF density.

 **********************************************************************

 Alpha  occ. eigenvalues --  -19.67441 -10.71377  -0.99741  -0.80781  -0.58970
 Alpha  occ. eigenvalues --   -0.42009  -0.36185  -0.34714
 Alpha virt. eigenvalues --   -0.13345  -0.02692   0.01683   0.04155   0.06641
 Alpha virt. eigenvalues --    0.07431   0.13128   0.18541   0.21334   0.23860
 Alpha virt. eigenvalues --    0.26484   0.33094   0.39693   0.45970   0.53694
 Alpha virt. eigenvalues --    0.57821   0.65627   0.73145   1.01718   1.07929
 Alpha virt. eigenvalues --    1.14387   1.15511   1.29037   1.29339   1.32809
 Alpha virt. eigenvalues --    1.46940   1.67971   1.68117   1.74336   1.89457
 Alpha virt. eigenvalues --    1.97175   2.36901   2.47465   2.54288   2.60446
 Alpha virt. eigenvalues --    2.69339   2.73210   2.92132   2.92478   2.92659
 Alpha virt. eigenvalues --    3.00041   3.37516   3.63905   5.06334   5.10053
 Alpha virt. eigenvalues --    5.10497  23.72772  49.86860
  Beta  occ. eigenvalues --  -19.67441 -10.71377  -0.99741  -0.80781  -0.58970
  Beta  occ. eigenvalues --   -0.42009  -0.36185  -0.34714
  Beta virt. eigenvalues --   -0.13345  -0.02692   0.01683   0.04155   0.06641
  Beta virt. eigenvalues --    0.07431   0.13128   0.18541   0.21334   0.23860
  Beta virt. eigenvalues --    0.26484   0.33094   0.39693   0.45970   0.53694
  Beta virt. eigenvalues --    0.57821   0.65627   0.73145   1.01718   1.07929
  Beta virt. eigenvalues --    1.14387   1.15511   1.29037   1.29339   1.32809
  Beta virt. eigenvalues --    1.46940   1.67971   1.68117   1.74336   1.89457
  Beta virt. eigenvalues --    1.97175   2.36901   2.47465   2.54288   2.60446
  Beta virt. eigenvalues --    2.69339   2.73210   2.92132   2.92478   2.92659
  Beta virt. eigenvalues --    3.00041   3.37516   3.63905   5.06334   5.10053
  Beta virt. eigenvalues --    5.10497  23.72772  49.86860
          Condensed to atoms (all electrons):
               1          2          3          4
     1  C    5.122694   0.268609   0.359497   0.359497
     2  O    0.268609   8.079487  -0.016924  -0.016924
     3  H    0.359497  -0.016924   0.476497  -0.031343
     4  H    0.359497  -0.016924  -0.031343   0.476497
          Atomic-Atomic Spin Densities.
               1          2          3          4
     1  C    0.000000   0.000000  -0.000000  -0.000000
     2  O    0.000000  -0.000000   0.000000   0.000000
     3  H   -0.000000   0.000000  -0.000000   0.000000
     4  H   -0.000000   0.000000   0.000000  -0.000000
 Mulliken charges and spin densities:
               1          2
     1  C   -0.110298   0.000000
     2  O   -0.314247  -0.000000
     3  H    0.212272  -0.000000
     4  H    0.212272  -0.000000
 Sum of Mulliken charges =  -0.00000   0.00000
 Mulliken charges and spin densities with hydrogens summed into heavy atoms:
               1          2
     1  C    0.314247   0.000000
     2  O   -0.314247  -0.000000
 Electronic spatial extent (au):  <R**2>=             91.8325
 Charge=             -0.0000 electrons
 Dipole moment (field-independent basis, Debye):
    X=             -4.4758    Y=             -0.0000    Z=             -0.0000  Tot=              4.4758
 Quadrupole moment (field-independent basis, Debye-Ang):
   XX=            -10.5331   YY=            -11.4075   ZZ=            -13.1620
   XY=             -0.0000   XZ=              0.0000   YZ=              0.0000
 Traceless Quadrupole moment (field-independent basis, Debye-Ang):
   XX=              1.1678   YY=              0.2933   ZZ=             -1.4611
   XY=             -0.0000   XZ=              0.0000   YZ=              0.0000
 Octapole moment (field-independent basis, Debye-Ang**2):
  XXX=             -0.7033  YYY=             -0.0000  ZZZ=              0.0001  XYY=             -2.6374
  XXY=              0.0000  XXZ=             -0.0001  XZZ=              1.0096  YZZ=              0.0000
  YYZ=             -0.0000  XYZ=             -0.0000
 Hexadecapole moment (field-independent basis, Debye-Ang**3):
 XXXX=            -81.4773 YYYY=            -17.0006 ZZZZ=            -14.3342 XXXY=             -0.0000
 XXXZ=             -0.0001 YYYX=              0.0000 YYYZ=              0.0000 ZZZX=             -0.0001
 ZZZY=             -0.0000 XXYY=            -14.0343 XXZZ=            -16.8538 YYZZ=             -5.8551
 XXYZ=              0.0000 YYXZ=              0.0001 ZZXY=              0.0000
 N-N= 2.286716143335D+01 E-N=-3.139727733512D+02  KE= 1.132612765612D+02
                          Isotropic Fermi Contact Couplings
        Atom                 a.u.       MegaHertz       Gauss      10(-4) cm-1
     1  C(13)              0.00000       0.00000       0.00000       0.00000
     2  O(17)             -0.00000       0.00000       0.00000       0.00000
     3  H(1)              -0.00000      -0.00000      -0.00000      -0.00000
     4  H(1)              -0.00000      -0.00000      -0.00000      -0.00000
 --------------------------------------------------------
       Center         ----  Spin Dipole Couplings  ----
                      3XX-RR        3YY-RR        3ZZ-RR
 --------------------------------------------------------
     1   Atom       -0.000000     -0.000000      0.000000
     2   Atom        0.000000      0.000000     -0.000000
     3   Atom       -0.000000      0.000000     -0.000000
     4   Atom       -0.000000      0.000000     -0.000000
 --------------------------------------------------------
                        XY            XZ            YZ
 --------------------------------------------------------
     1   Atom       -0.000000     -0.000000     -0.000000
     2   Atom       -0.000000      0.000000     -0.000000
     3   Atom        0.000000      0.000000      0.000000
     4   Atom       -0.000000      0.000000     -0.000000
 --------------------------------------------------------


 ---------------------------------------------------------------------------------
              Anisotropic Spin Dipole Couplings in Principal Axis System
 ---------------------------------------------------------------------------------

       Atom             a.u.   MegaHertz   Gauss  10(-4) cm-1        Axes

              Baa    -0.0000    -0.000    -0.000    -0.000  0.0000  1.0000  0.0000
     1 C(13)  Bbb    -0.0000    -0.000    -0.000    -0.000  1.0000 -0.0000  0.0000
              Bcc     0.0000     0.000     0.000     0.000 -0.0000 -0.0000  1.0000
 
              Baa    -0.0000     0.000     0.000     0.000 -0.0000  0.0000  1.0000
     2 O(17)  Bbb     0.0000    -0.000    -0.000    -0.000  1.0000  0.0000  0.0000
              Bcc     0.0000    -0.000    -0.000    -0.000 -0.0000  1.0000 -0.0000
 
              Baa    -0.0000    -0.000    -0.000    -0.000  0.9434 -0.3317  0.0000
     3 H(1)   Bbb    -0.0000    -0.000    -0.000    -0.000 -0.0000 -0.0000  1.0000
              Bcc     0.0000     0.000     0.000     0.000  0.3317  0.9434  0.0000
 
              Baa    -0.0000    -0.000    -0.000    -0.000  0.9434  0.3317  0.0000
     4 H(1)   Bbb    -0.0000    -0.000    -0.000    -0.000 -0.0000  0.0000  1.0000
              Bcc     0.0000     0.000     0.000     0.000 -0.3317  0.9434 -0.0000
 

 ---------------------------------------------------------------------------------

 No NMR shielding tensors so no spin-rotation constants.
 Leave Link  601 at Mon Apr 21 18:48:20 2025, MaxMem=   536870912 cpu:               1.8 elap:               0.3
 (Enter /home/szhao/Apps/g16/l9999.exe)
 1\1\GINC-NODE06\FOpt\UM062X\6-311+G(d,p)\C1H2O1\SZHAO\21-Apr-2025\0\\#
 p opt UM062X/6-311+G** nosymm int=superfine\\Title Card Required\\0,1\
 C,-0.948311,0.,0.\O,0.948311,0.,0.\H,-1.3911212172,-0.986657667,-0.000
 0238868\H,-1.3911212985,0.9866576307,-0.0000232961\\Version=ES64L-G16R
 evA.03\HF=-114.2510363\S2=0.\S2-1=0.\S2A=0.\RMSD=8.609e-09\RMSF=2.862e
 -06\Dipole=-1.7609077,0.,-0.0000184\Quadrupole=0.8682036,0.2180864,-1.
 08629,0.,0.0000203,0.0000004\PG=C01 [X(C1H2O1)]\\@


 ONLY THE DAY DAWNS TO WHICH YOU ARE AWAKE.

                                 -- THOREAU
 Job cpu time:       0 days  0 hours  4 minutes 46.6 seconds.
 Elapsed time:       0 days  0 hours  0 minutes 41.6 seconds.
 File lengths (MBytes):  RWF=     17 Int=      0 D2E=      0 Chk=      2 Scr=      2
 Normal termination of Gaussian 16 at Mon Apr 21 18:48:20 2025.
