 Entering Gaussian System, Link 0=g16
 Initial command:
 /home/szhao/Apps/g16/l1.exe "/home/szhao/tmp/Gau-102808.inp" -scrdir="/home/szhao/tmp/"
 Default is to use a total of  16 processors:
                               16 via shared-memory
                                1 via Linda
 Entering Link 1 = /home/szhao/Apps/g16/l1.exe PID=    102809.
  
 Copyright (c) 1988,1990,1992,1993,1995,1998,2003,2009,2016,
            Gaussian, Inc.  All Rights Reserved.
  
 This is part of the Gaussian(R) 16 program.  It is based on
 the Gaussian(R) 09 system (copyright 2009, Gaussian, Inc.),
 the Gaussian(R) 03 system (copyright 2003, Gaussian, Inc.),
 the Gaussian(R) 98 system (copyright 1998, Gaussian, Inc.),
 the Gaussian(R) 94 system (copyright 1995, Gaussian, Inc.),
 the Gaussian 92(TM) system (copyright 1992, Gaussian, Inc.),
 the Gaussian 90(TM) system (copyright 1990, Gaussian, Inc.),
 the Gaussian 88(TM) system (copyright 1988, Gaussian, Inc.),
 the Gaussian 86(TM) system (copyright 1986, Carnegie Mellon
 University), and the Gaussian 82(TM) system (copyright 1983,
 Carnegie Mellon University). Gaussian is a federally registered
 trademark of Gaussian, Inc.
  
 This software contains proprietary and confidential information,
 including trade secrets, belonging to Gaussian, Inc.
  
 This software is provided under written license and may be
 used, copied, transmitted, or stored only in accord with that
 written license.
  
 The following legend is applicable only to US Government
 contracts under FAR:
  
                    RESTRICTED RIGHTS LEGEND
  
 Use, reproduction and disclosure by the US Government is
 subject to restrictions as set forth in subparagraphs (a)
 and (c) of the Commercial Computer Software - Restricted
 Rights clause in FAR 52.227-19.
  
 Gaussian, Inc.
 340 Quinnipiac St., Bldg. 40, Wallingford CT 06492
  
  
 ---------------------------------------------------------------
 Warning -- This program may not be used in any manner that
 competes with the business of Gaussian, Inc. or will provide
 assistance to any competitor of Gaussian, Inc.  The licensee
 of this program is prohibited from giving any competitor of
 Gaussian, Inc. access to this program.  By using this program,
 the user acknowledges that Gaussian, Inc. is engaged in the
 business of creating and licensing software in the field of
 computational chemistry and represents and warrants to the
 licensee that it is not a competitor of Gaussian, Inc. and that
 it will not use this program in any manner prohibited above.
 ---------------------------------------------------------------
  

 Cite this work as:
 Gaussian 16, Revision A.03,
 M. J. Frisch, G. W. Trucks, H. B. Schlegel, G. E. Scuseria, 
 M. A. Robb, J. R. Cheeseman, G. Scalmani, V. Barone, 
 G. A. Petersson, H. Nakatsuji, X. Li, M. Caricato, A. V. Marenich, 
 J. Bloino, B. G. Janesko, R. Gomperts, B. Mennucci, H. P. Hratchian, 
 J. V. Ortiz, A. F. Izmaylov, J. L. Sonnenberg, D. Williams-Young, 
 F. Ding, F. Lipparini, F. Egidi, J. Goings, B. Peng, A. Petrone, 
 T. Henderson, D. Ranasinghe, V. G. Zakrzewski, J. Gao, N. Rega, 
 G. Zheng, W. Liang, M. Hada, M. Ehara, K. Toyota, R. Fukuda, 
 J. Hasegawa, M. Ishida, T. Nakajima, Y. Honda, O. Kitao, H. Nakai, 
 T. Vreven, K. Throssell, J. A. Montgomery, Jr., J. E. Peralta, 
 F. Ogliaro, M. J. Bearpark, J. J. Heyd, E. N. Brothers, K. N. Kudin, 
 V. N. Staroverov, T. A. Keith, R. Kobayashi, J. Normand, 
 K. Raghavachari, A. P. Rendell, J. C. Burant, S. S. Iyengar, 
 J. Tomasi, M. Cossi, J. M. Millam, M. Klene, C. Adamo, R. Cammi, 
 J. W. Ochterski, R. L. Martin, K. Morokuma, O. Farkas, 
 J. B. Foresman, and D. J. Fox, Gaussian, Inc., Wallingford CT, 2016.
 
 ******************************************
 Gaussian 16:  ES64L-G16RevA.03 25-Dec-2016
                22-Apr-2025 
 ******************************************
 %oldchk=../00220/opt.chk
 %chk=opt.chk
 %mem=4GB
 %nprocshared=8
 Will use up to    8 processors via shared memory.
 Copying data from "../00220/opt.chk" to current chk file "opt.chk"
 IOpt=  2 FromEx=T IUOpen= 4 IOptOp= 5 NList=   0 IFRang= 0 IUIn= 4 IUOut= 2.
 ----------------------------------------------------------------------
 #p opt UM062X/6-311+G** nosymm int=superfine SCF=(MaxCycle=200,NoVarAc
 c,noincfock) guess=read
 ----------------------------------------------------------------------
 1/18=20,19=15,26=5,38=1/1,3;
 2/9=110,12=2,15=1,17=6,18=5,40=1/2;
 3/5=4,6=6,7=111,11=2,25=1,30=1,71=1,74=-55,75=-7,116=2/1,2,3;
 4/5=1/1;
 5/5=100002,7=200,38=6/2;
 6/7=2,8=2,9=2,10=2,28=1/1;
 7/30=1/1,2,3,16;
 1/18=20,19=15,26=5/3(2);
 2/9=110,15=1/2;
 99//99;
 2/9=110,15=1/2;
 3/5=4,6=6,7=111,11=2,25=1,30=1,71=1,74=-55,75=-7,116=2/1,2,3;
 4/5=5,16=3,69=1/1;
 5/5=100002,7=200,38=1/2;
 7/30=1/1,2,3,16;
 1/18=20,19=15,26=5/3(-5);
 2/9=110,15=1/2;
 6/7=2,8=2,9=2,10=2,19=2,28=1/1;
 99/9=1/99;
 Leave Link    1 at Tue Apr 22 00:06:42 2025, MaxMem=   536870912 cpu:               1.1 elap:               0.1
 (Enter /home/szhao/Apps/g16/l101.exe)
 -------------------
 Title Card Required
 -------------------
 Symbolic Z-matrix:
 Charge =  1 Multiplicity = 2
 C                    -1   -1.91943   0.        0. 
 P                    -1    1.91943   0.        0. 
 H                    0    -3.00418   0.        0. 
 
 Add virtual bond connecting atoms P2         and C1         Dist= 7.25D+00.
 ITRead=  2  2  0
 MicOpt= -2 -2 -1
 NAtoms=      3 NQM=        1 NQMF=       2 NMMI=      0 NMMIF=      0
                NMic=       0 NMicF=      0.
                    Isotopes and Nuclear Properties:
 (Nuclear quadrupole moments (NQMom) in fm**2, nuclear magnetic moments (NMagM)
  in nuclear magnetons)

  Atom         1           2           3
 IAtWgt=          12          31           1
 AtmWgt=  12.0000000  30.9737634   1.0078250
 NucSpn=           0           1           1
 AtZEff=  -0.0000000  -0.0000000  -0.0000000
 NQMom=    0.0000000   0.0000000   0.0000000
 NMagM=    0.0000000   1.1316000   2.7928460
 AtZNuc=   6.0000000  15.0000000   1.0000000
 Leave Link  101 at Tue Apr 22 00:06:42 2025, MaxMem=   536870912 cpu:               6.4 elap:               0.8
 (Enter /home/szhao/Apps/g16/l103.exe)

 GradGradGradGradGradGradGradGradGradGradGradGradGradGradGradGradGradGrad
 Berny optimization.
 Initialization pass.
                           ----------------------------
                           !    Initial Parameters    !
                           ! (Angstroms and Degrees)  !
 --------------------------                            --------------------------
 ! Name  Definition              Value          Derivative Info.                !
 --------------------------------------------------------------------------------
 ! X1    R(1,-1)                -1.9194         Frozen                          !
 ! Y1    R(1,-2)                 0.0            Frozen                          !
 ! Z1    R(1,-3)                 0.0            Frozen                          !
 ! X2    R(2,-1)                 1.9194         Frozen                          !
 ! Y2    R(2,-2)                 0.0            Frozen                          !
 ! Z2    R(2,-3)                 0.0            Frozen                          !
 ! R1    R(1,3)                  1.0848         estimate D2E/DX2                !
 ! A1    L(2,1,3,-2,-1)        180.0            estimate D2E/DX2                !
 ! A2    L(2,1,3,-3,-2)        180.0            estimate D2E/DX2                !
 --------------------------------------------------------------------------------
 Trust Radius=3.00D-01 FncErr=1.00D-07 GrdErr=1.00D-07 EigMax=2.50D+02 EigMin=1.00D-04
 Number of steps in this run=     20 maximum allowed number of steps=    100.
 GradGradGradGradGradGradGradGradGradGradGradGradGradGradGradGradGradGrad

 Leave Link  103 at Tue Apr 22 00:06:43 2025, MaxMem=   536870912 cpu:               0.1 elap:               0.0
 (Enter /home/szhao/Apps/g16/l202.exe)
                          Input orientation:                          
 ---------------------------------------------------------------------
 Center     Atomic      Atomic             Coordinates (Angstroms)
 Number     Number       Type             X           Y           Z
 ---------------------------------------------------------------------
      1          6           0       -1.919427    0.000000    0.000000
      2         15           0        1.919427    0.000000    0.000000
      3          1           0       -3.004184    0.000000    0.000000
 ---------------------------------------------------------------------
                    Distance matrix (angstroms):
                    1          2          3
     1  C    0.000000
     2  P    3.838854   0.000000
     3  H    1.084757   4.923611   0.000000
 Symmetry turned off by external request.
 Stoichiometry    CHP(1+,2)
 Framework group  C*V[C*(HCP)]
 Deg. of freedom     2
 Full point group                 C*V     NOp   4
 Rotational constants (GHZ):           0.0000000           3.5572784           3.5572784
 Leave Link  202 at Tue Apr 22 00:06:43 2025, MaxMem=   536870912 cpu:               0.0 elap:               0.0
 (Enter /home/szhao/Apps/g16/l301.exe)
 Standard basis: 6-311+G(d,p) (5D, 7F)
 Ernie: Thresh=  0.10000D-02 Tol=  0.10000D-05 Strict=F.
    58 basis functions,    94 primitive gaussians,    60 cartesian basis functions
    11 alpha electrons       10 beta electrons
       nuclear repulsion energy        16.9454364305 Hartrees.
 IExCor= 4336 DFT=T Ex+Corr=M062X ExCW=0 ScaHFX=  0.540000
 ScaDFX=  1.000000  1.000000  1.000000  1.000000 ScalE2=  1.000000  1.000000
 IRadAn=      7 IRanWt=     -1 IRanGd=            0 ICorTp=0 IEmpDi=  4
 NAtoms=    3 NActive=    3 NUniq=    3 SFac= 1.00D+00 NAtFMM=   60 NAOKFM=F Big=F
 Integral buffers will be    131072 words long.
 Raffenetti 2 integral format.
 Two-electron integral symmetry is turned off.
 Leave Link  301 at Tue Apr 22 00:06:43 2025, MaxMem=   536870912 cpu:               0.5 elap:               0.1
 (Enter /home/szhao/Apps/g16/l302.exe)
 NPDir=0 NMtPBC=     1 NCelOv=     1 NCel=       1 NClECP=     1 NCelD=      1
         NCelK=      1 NCelE2=     1 NClLst=     1 CellRange=     0.0.
 One-electron integrals computed using PRISM.
 NBasis=    58 RedAO= T EigKep=  1.71D-02  NBF=    58
 NBsUse=    58 1.00D-06 EigRej= -1.00D+00 NBFU=    58
 Precomputing XC quadrature grid using
 IXCGrd= 4 IRadAn=           7 IRanWt=          -1 IRanGd=           0 AccXCQ= 0.00D+00.
 Generated NRdTot=       0 NPtTot=           0 NUsed=           0 NTot=          32
 NSgBfM=    57    57    57    57    57 MxSgAt=     3 MxSgA2=     3.
 Leave Link  302 at Tue Apr 22 00:06:43 2025, MaxMem=   536870912 cpu:               2.0 elap:               0.3
 (Enter /home/szhao/Apps/g16/l303.exe)
 DipDrv:  MaxL=1.
 Leave Link  303 at Tue Apr 22 00:06:43 2025, MaxMem=   536870912 cpu:               0.7 elap:               0.1
 (Enter /home/szhao/Apps/g16/l401.exe)
 Initial guess from the checkpoint file:  "opt.chk"
 B after Tr=    -0.065450    0.091151    0.143302
         Rot=    0.708916    0.704725   -0.027656   -0.006049 Ang=  89.71 deg.
 Guess basis will be translated and rotated to current coordinates.
 JPrj=2 DoOrth=T DoCkMO=T.
 Initial guess <Sx>= 0.0000 <Sy>= 0.0000 <Sz>= 0.5000 <S**2>= 0.7599 S= 0.5050
 Leave Link  401 at Tue Apr 22 00:06:43 2025, MaxMem=   536870912 cpu:               1.4 elap:               0.2
 (Enter /home/szhao/Apps/g16/l502.exe)
 Keep R1 and R2 ints in memory in canonical form, NReq=10036953.
 FoFCou: FMM=F IPFlag=           0 FMFlag=           0 FMFlg1=           0
         NFxFlg=           0 DoJE=F BraDBF=F KetDBF=F FulRan=T
         wScrn=  0.000000 ICntrl=       600 IOpCl=  0 I1Cent=           0 NGrid=           0
         NMat0=    1 NMatS0=   1711 NMatT0=    0 NMatD0=    1 NMtDS0=    0 NMtDT0=    0
 Symmetry not used in FoFCou.
 Two-electron integral symmetry not used.
 UHF open shell SCF:
 Using DIIS extrapolation, IDIIS=  1040.
 NGot=   536870912 LenX=   533933447 LenY=   533929406
 Requested convergence on RMS density matrix=1.00D-08 within 200 cycles.
 Requested convergence on MAX density matrix=1.00D-06.
 Requested convergence on             energy=1.00D-06.
 No special actions if energy rises.

 Cycle   1  Pass 1  IDiag  1:
 E= -378.968280021560    
 DIIS: error= 3.88D-02 at cycle   1 NSaved=   1.
 NSaved= 1 IEnMin= 1 EnMin= -378.968280021560     IErMin= 1 ErrMin= 3.88D-02
 ErrMax= 3.88D-02  0.00D+00 EMaxC= 1.00D-01 BMatC= 3.63D-01 BMatP= 3.63D-01
 IDIUse=3 WtCom= 6.12D-01 WtEn= 3.88D-01
 Coeff-Com:  0.100D+01
 Coeff-En:   0.100D+01
 Coeff:      0.100D+01
 Gap=     0.321 Goal=   None    Shift=    0.000
 Gap=     0.369 Goal=   None    Shift=    0.000
 GapD=    0.321 DampG=1.000 DampE=0.500 DampFc=0.5000 IDamp=-1.
 Damping current iteration by 5.00D-01
 RMSDP=9.00D-03 MaxDP=1.26D-01              OVMax= 3.63D-01

 Cycle   2  Pass 1  IDiag  1:
 E= -379.068973858218     Delta-E=       -0.100693836658 Rises=F Damp=T
 DIIS: error= 2.20D-02 at cycle   2 NSaved=   2.
 NSaved= 2 IEnMin= 2 EnMin= -379.068973858218     IErMin= 2 ErrMin= 2.20D-02
 ErrMax= 2.20D-02  0.00D+00 EMaxC= 1.00D-01 BMatC= 1.38D-01 BMatP= 3.63D-01
 IDIUse=3 WtCom= 7.80D-01 WtEn= 2.20D-01
 Coeff-Com: -0.695D+00 0.169D+01
 Coeff-En:   0.000D+00 0.100D+01
 Coeff:     -0.542D+00 0.154D+01
 Gap=     0.013 Goal=   None    Shift=    0.000
 Gap=     0.061 Goal=   None    Shift=    0.000
 RMSDP=1.25D-02 MaxDP=1.88D-01 DE=-1.01D-01 OVMax= 8.12D-01

 Cycle   3  Pass 1  IDiag  1:
 E= -378.866836713138     Delta-E=        0.202137145080 Rises=F Damp=F
 DIIS: error= 5.41D-02 at cycle   3 NSaved=   3.
 NSaved= 3 IEnMin= 2 EnMin= -379.068973858218     IErMin= 2 ErrMin= 2.20D-02
 ErrMax= 5.41D-02  0.00D+00 EMaxC= 1.00D-01 BMatC= 7.30D-01 BMatP= 1.38D-01
 IDIUse=2 WtCom= 0.00D+00 WtEn= 1.00D+00
 Coeff-En:   0.000D+00 0.788D+00 0.212D+00
 Coeff:      0.000D+00 0.788D+00 0.212D+00
 Gap=     0.007 Goal=   None    Shift=    0.000
 Gap=     0.215 Goal=   None    Shift=    0.000
 RMSDP=1.21D-02 MaxDP=2.43D-01 DE= 2.02D-01 OVMax= 7.74D-01

 Cycle   4  Pass 1  IDiag  1:
 E= -379.153449107655     Delta-E=       -0.286612394517 Rises=F Damp=F
 DIIS: error= 3.70D-02 at cycle   4 NSaved=   4.
 NSaved= 4 IEnMin= 4 EnMin= -379.153449107655     IErMin= 2 ErrMin= 2.20D-02
 ErrMax= 3.70D-02  0.00D+00 EMaxC= 1.00D-01 BMatC= 1.90D-01 BMatP= 1.38D-01
 IDIUse=2 WtCom= 0.00D+00 WtEn= 1.00D+00
 Coeff-En:   0.000D+00 0.000D+00 0.299D+00 0.701D+00
 Coeff:      0.000D+00 0.000D+00 0.299D+00 0.701D+00
 Gap=     0.021 Goal=   None    Shift=    0.000
 Gap=     0.051 Goal=   None    Shift=    0.000
 RMSDP=8.59D-03 MaxDP=1.87D-01 DE=-2.87D-01 OVMax= 6.43D-01

 Cycle   5  Pass 1  IDiag  1:
 E= -379.252729307815     Delta-E=       -0.099280200160 Rises=F Damp=F
 DIIS: error= 1.68D-02 at cycle   5 NSaved=   5.
 NSaved= 5 IEnMin= 5 EnMin= -379.252729307815     IErMin= 5 ErrMin= 1.68D-02
 ErrMax= 1.68D-02  0.00D+00 EMaxC= 1.00D-01 BMatC= 7.96D-02 BMatP= 1.38D-01
 IDIUse=3 WtCom= 8.32D-01 WtEn= 1.68D-01
 Coeff-Com:  0.894D-02-0.649D-01-0.127D+00 0.342D+00 0.841D+00
 Coeff-En:   0.000D+00 0.000D+00 0.000D+00 0.282D+00 0.718D+00
 Coeff:      0.744D-02-0.540D-01-0.106D+00 0.332D+00 0.820D+00
 Gap=     0.117 Goal=   None    Shift=    0.000
 Gap=     0.117 Goal=   None    Shift=    0.000
 RMSDP=2.18D-03 MaxDP=4.73D-02 DE=-9.93D-02 OVMax= 1.24D-01

 Cycle   6  Pass 1  IDiag  1:
 E= -379.291712000635     Delta-E=       -0.038982692820 Rises=F Damp=F
 DIIS: error= 6.69D-03 at cycle   6 NSaved=   6.
 NSaved= 6 IEnMin= 6 EnMin= -379.291712000635     IErMin= 6 ErrMin= 6.69D-03
 ErrMax= 6.69D-03  0.00D+00 EMaxC= 1.00D-01 BMatC= 1.38D-02 BMatP= 7.96D-02
 IDIUse=3 WtCom= 9.33D-01 WtEn= 6.69D-02
 Coeff-Com: -0.239D-01 0.228D-01 0.244D-01 0.112D+00-0.392D+00 0.126D+01
 Coeff-En:   0.000D+00 0.000D+00 0.000D+00 0.000D+00 0.000D+00 0.100D+01
 Coeff:     -0.223D-01 0.212D-01 0.227D-01 0.105D+00-0.366D+00 0.124D+01
 Gap=     0.060 Goal=   None    Shift=    0.000
 Gap=     0.070 Goal=   None    Shift=    0.000
 RMSDP=2.63D-03 MaxDP=8.45D-02 DE=-3.90D-02 OVMax= 2.21D-01

 Cycle   7  Pass 1  IDiag  1:
 E= -379.302830876810     Delta-E=       -0.011118876175 Rises=F Damp=F
 DIIS: error= 6.48D-03 at cycle   7 NSaved=   7.
 NSaved= 7 IEnMin= 7 EnMin= -379.302830876810     IErMin= 7 ErrMin= 6.48D-03
 ErrMax= 6.48D-03  0.00D+00 EMaxC= 1.00D-01 BMatC= 5.69D-03 BMatP= 1.38D-02
 IDIUse=3 WtCom= 9.35D-01 WtEn= 6.48D-02
 Coeff-Com: -0.476D-01 0.786D-01 0.337D-02-0.252D-01-0.654D-01 0.473D+00
 Coeff-Com:  0.583D+00
 Coeff-En:   0.000D+00 0.000D+00 0.000D+00 0.000D+00 0.000D+00 0.185D-01
 Coeff-En:   0.981D+00
 Coeff:     -0.445D-01 0.735D-01 0.315D-02-0.236D-01-0.612D-01 0.443D+00
 Coeff:      0.609D+00
 Gap=     0.072 Goal=   None    Shift=    0.000
 Gap=     0.093 Goal=   None    Shift=    0.000
 RMSDP=1.42D-03 MaxDP=3.35D-02 DE=-1.11D-02 OVMax= 1.26D-01

 Cycle   8  Pass 1  IDiag  1:
 E= -379.310339916078     Delta-E=       -0.007509039267 Rises=F Damp=F
 DIIS: error= 3.35D-03 at cycle   8 NSaved=   8.
 NSaved= 8 IEnMin= 8 EnMin= -379.310339916078     IErMin= 8 ErrMin= 3.35D-03
 ErrMax= 3.35D-03  0.00D+00 EMaxC= 1.00D-01 BMatC= 1.82D-03 BMatP= 5.69D-03
 IDIUse=3 WtCom= 9.67D-01 WtEn= 3.35D-02
 Coeff-Com: -0.545D-01 0.904D-01 0.277D-02-0.354D-01-0.715D-01 0.583D+00
 Coeff-Com:  0.760D+00-0.275D+00
 Coeff-En:   0.000D+00 0.000D+00 0.000D+00 0.000D+00 0.000D+00 0.000D+00
 Coeff-En:   0.000D+00 0.100D+01
 Coeff:     -0.526D-01 0.874D-01 0.268D-02-0.342D-01-0.691D-01 0.564D+00
 Coeff:      0.735D+00-0.232D+00
 Gap=     0.072 Goal=   None    Shift=    0.000
 Gap=     0.087 Goal=   None    Shift=    0.000
 RMSDP=6.46D-04 MaxDP=1.27D-02 DE=-7.51D-03 OVMax= 5.37D-02

 Cycle   9  Pass 1  IDiag  1:
 E= -379.307406776546     Delta-E=        0.002933139531 Rises=F Damp=F
 DIIS: error= 3.00D-03 at cycle   9 NSaved=   9.
 NSaved= 9 IEnMin= 8 EnMin= -379.310339916078     IErMin= 9 ErrMin= 3.00D-03
 ErrMax= 3.00D-03  0.00D+00 EMaxC= 1.00D-01 BMatC= 1.39D-03 BMatP= 1.82D-03
 IDIUse=3 WtCom= 9.70D-01 WtEn= 3.00D-02
 Rare condition: small coef for last iteration:  0.000D+00
 Coeff-Com: -0.309D-01 0.500D-01-0.103D-02-0.207D-02 0.232D-01-0.594D-01
 Coeff-Com: -0.727D+00-0.367D+01 0.542D+01
 Coeff-En:   0.000D+00 0.000D+00 0.000D+00 0.000D+00 0.000D+00 0.000D+00
 Coeff-En:   0.000D+00 0.000D+00 0.100D+01
 Coeff:     -0.309D-01 0.500D-01-0.103D-02-0.207D-02 0.232D-01-0.594D-01
 Coeff:     -0.727D+00-0.367D+01 0.542D+01
 Gap=     0.079 Goal=   None    Shift=    0.000
 Gap=     0.078 Goal=   None    Shift=    0.000
 RMSDP=1.89D-03 MaxDP=4.13D-02 DE= 2.93D-03 OVMax= 1.38D-01

 Cycle  10  Pass 1  IDiag  1:
 E= -379.305724497185     Delta-E=        0.001682279362 Rises=F Damp=F
 DIIS: error= 2.87D-03 at cycle  10 NSaved=  10.
 NSaved=10 IEnMin= 8 EnMin= -379.310339916078     IErMin=10 ErrMin= 2.87D-03
 ErrMax= 2.87D-03  0.00D+00 EMaxC= 1.00D-01 BMatC= 7.88D-04 BMatP= 1.39D-03
 IDIUse=3 WtCom= 9.71D-01 WtEn= 2.87D-02
 Rare condition: small coef for last iteration:  0.000D+00
 Coeff-Com: -0.158D-01 0.214D-01-0.779D-04 0.785D-02-0.123D-01 0.110D+00
 Coeff-Com:  0.118D+00 0.572D+00-0.657D+00 0.856D+00
 Coeff-En:   0.000D+00 0.000D+00 0.000D+00 0.000D+00 0.000D+00 0.000D+00
 Coeff-En:   0.000D+00 0.000D+00 0.000D+00 0.100D+01
 Coeff:     -0.158D-01 0.214D-01-0.779D-04 0.785D-02-0.123D-01 0.110D+00
 Coeff:      0.118D+00 0.572D+00-0.657D+00 0.856D+00
 Gap=     0.079 Goal=   None    Shift=    0.000
 Gap=     0.078 Goal=   None    Shift=    0.000
 RMSDP=1.40D-03 MaxDP=2.31D-02 DE= 1.68D-03 OVMax= 1.01D-01

 Cycle  11  Pass 1  IDiag  1:
 E= -379.308298071330     Delta-E=       -0.002573574145 Rises=F Damp=F
 DIIS: error= 3.05D-03 at cycle  11 NSaved=  11.
 NSaved=11 IEnMin= 8 EnMin= -379.310339916078     IErMin=10 ErrMin= 2.87D-03
 ErrMax= 3.05D-03  0.00D+00 EMaxC= 1.00D-01 BMatC= 2.38D-03 BMatP= 7.88D-04
 IDIUse=3 WtCom= 9.71D-01 WtEn= 2.87D-02
 Coeff-Com: -0.846D-02 0.104D-01 0.349D-02 0.110D-01-0.371D-01 0.751D-01
 Coeff-Com:  0.406D+00 0.503D+00-0.948D+00 0.353D+00 0.631D+00
 Coeff-En:   0.000D+00 0.000D+00 0.000D+00 0.000D+00 0.000D+00 0.000D+00
 Coeff-En:   0.000D+00 0.000D+00 0.000D+00 0.000D+00 0.100D+01
 Coeff:     -0.821D-02 0.101D-01 0.339D-02 0.107D-01-0.361D-01 0.730D-01
 Coeff:      0.394D+00 0.489D+00-0.921D+00 0.343D+00 0.642D+00
 Gap=     0.077 Goal=   None    Shift=    0.000
 Gap=     0.077 Goal=   None    Shift=    0.000
 RMSDP=7.97D-04 MaxDP=2.04D-02 DE=-2.57D-03 OVMax= 5.37D-02

 Cycle  12  Pass 1  IDiag  1:
 E= -379.311214132211     Delta-E=       -0.002916060881 Rises=F Damp=F
 DIIS: error= 2.47D-03 at cycle  12 NSaved=  12.
 NSaved=12 IEnMin=12 EnMin= -379.311214132211     IErMin=12 ErrMin= 2.47D-03
 ErrMax= 2.47D-03  0.00D+00 EMaxC= 1.00D-01 BMatC= 1.10D-03 BMatP= 7.88D-04
 IDIUse=3 WtCom= 9.71D-01 WtEn= 2.87D-02
 Coeff-Com: -0.110D-01 0.179D-01-0.137D-01 0.137D-01 0.111D+00 0.261D+00
 Coeff-Com: -0.220D-02 0.143D+01-0.209D+01-0.458D+00-0.509D+01 0.683D+01
 Coeff-En:   0.000D+00 0.000D+00 0.000D+00 0.000D+00 0.000D+00 0.000D+00
 Coeff-En:   0.000D+00 0.000D+00 0.000D+00 0.000D+00 0.000D+00 0.100D+01
 Coeff:     -0.107D-01 0.173D-01-0.134D-01 0.133D-01 0.107D+00 0.254D+00
 Coeff:     -0.214D-02 0.139D+01-0.203D+01-0.445D+00-0.494D+01 0.666D+01
 Gap=     0.077 Goal=   None    Shift=    0.000
 Gap=     0.072 Goal=   None    Shift=    0.000
 RMSDP=4.40D-03 MaxDP=8.15D-02 DE=-2.92D-03 OVMax= 2.97D-01

 Cycle  13  Pass 1  IDiag  1:
 E= -379.314480618326     Delta-E=       -0.003266486115 Rises=F Damp=F
 DIIS: error= 6.67D-03 at cycle  13 NSaved=  13.
 NSaved=13 IEnMin=13 EnMin= -379.314480618326     IErMin=12 ErrMin= 2.47D-03
 ErrMax= 6.67D-03  0.00D+00 EMaxC= 1.00D-01 BMatC= 4.74D-03 BMatP= 7.88D-04
 IDIUse=3 WtCom= 9.71D-01 WtEn= 2.87D-02
 Coeff-Com: -0.112D-01 0.195D-01-0.115D-01-0.194D-01 0.972D-01-0.176D-01
 Coeff-Com: -0.337D-01 0.113D+00-0.137D-01 0.135D+00-0.309D+01 0.337D+01
 Coeff-Com:  0.464D+00
 Coeff-En:   0.000D+00 0.000D+00 0.000D+00 0.000D+00 0.000D+00 0.000D+00
 Coeff-En:   0.000D+00 0.000D+00 0.000D+00 0.000D+00 0.000D+00 0.000D+00
 Coeff-En:   0.100D+01
 Coeff:     -0.109D-01 0.189D-01-0.112D-01-0.188D-01 0.944D-01-0.171D-01
 Coeff:     -0.327D-01 0.110D+00-0.133D-01 0.131D+00-0.300D+01 0.327D+01
 Coeff:      0.479D+00
 Gap=     0.078 Goal=   None    Shift=    0.000
 Gap=     0.074 Goal=   None    Shift=    0.000
 RMSDP=1.07D-03 MaxDP=1.80D-02 DE=-3.27D-03 OVMax= 8.09D-02

 Cycle  14  Pass 1  IDiag  1:
 E= -379.318135582258     Delta-E=       -0.003654963932 Rises=F Damp=F
 DIIS: error= 9.43D-04 at cycle  14 NSaved=  14.
 NSaved=14 IEnMin=14 EnMin= -379.318135582258     IErMin=14 ErrMin= 9.43D-04
 ErrMax= 9.43D-04  0.00D+00 EMaxC= 1.00D-01 BMatC= 9.24D-05 BMatP= 7.88D-04
 IDIUse=3 WtCom= 9.91D-01 WtEn= 9.43D-03
 Coeff-Com:  0.477D-02-0.104D-01-0.232D-02 0.101D-01 0.394D-01-0.717D-01
 Coeff-Com: -0.579D-01 0.159D+00-0.160D+00 0.111D+00-0.168D+00 0.166D+00
 Coeff-Com: -0.120D+00 0.110D+01
 Coeff-En:   0.000D+00 0.000D+00 0.000D+00 0.000D+00 0.000D+00 0.000D+00
 Coeff-En:   0.000D+00 0.000D+00 0.000D+00 0.000D+00 0.000D+00 0.000D+00
 Coeff-En:   0.000D+00 0.100D+01
 Coeff:      0.472D-02-0.103D-01-0.230D-02 0.998D-02 0.391D-01-0.711D-01
 Coeff:     -0.574D-01 0.158D+00-0.159D+00 0.110D+00-0.166D+00 0.165D+00
 Coeff:     -0.119D+00 0.110D+01
 Gap=     0.078 Goal=   None    Shift=    0.000
 Gap=     0.073 Goal=   None    Shift=    0.000
 RMSDP=2.02D-04 MaxDP=4.21D-03 DE=-3.65D-03 OVMax= 1.26D-02

 Cycle  15  Pass 1  IDiag  1:
 E= -379.318256487490     Delta-E=       -0.000120905232 Rises=F Damp=F
 DIIS: error= 3.76D-04 at cycle  15 NSaved=  15.
 NSaved=15 IEnMin=15 EnMin= -379.318256487490     IErMin=15 ErrMin= 3.76D-04
 ErrMax= 3.76D-04  0.00D+00 EMaxC= 1.00D-01 BMatC= 2.66D-05 BMatP= 9.24D-05
 IDIUse=3 WtCom= 9.96D-01 WtEn= 3.76D-03
 Coeff-Com:  0.283D-02-0.596D-02 0.921D-03 0.506D-02-0.597D-02 0.995D-02
 Coeff-Com:  0.118D+00 0.298D+00-0.459D+00 0.598D-01 0.483D+00-0.574D+00
 Coeff-Com: -0.870D-01-0.151D+00 0.131D+01
 Coeff-En:   0.000D+00 0.000D+00 0.000D+00 0.000D+00 0.000D+00 0.000D+00
 Coeff-En:   0.000D+00 0.000D+00 0.000D+00 0.000D+00 0.000D+00 0.000D+00
 Coeff-En:   0.000D+00 0.000D+00 0.100D+01
 Coeff:      0.282D-02-0.593D-02 0.918D-03 0.505D-02-0.595D-02 0.991D-02
 Coeff:      0.117D+00 0.296D+00-0.457D+00 0.596D-01 0.481D+00-0.571D+00
 Coeff:     -0.867D-01-0.151D+00 0.130D+01
 Gap=     0.077 Goal=   None    Shift=    0.000
 Gap=     0.073 Goal=   None    Shift=    0.000
 RMSDP=1.79D-04 MaxDP=3.72D-03 DE=-1.21D-04 OVMax= 1.27D-02

 Cycle  16  Pass 1  IDiag  1:
 E= -379.318313577049     Delta-E=       -0.000057089559 Rises=F Damp=F
 DIIS: error= 2.81D-04 at cycle  16 NSaved=  16.
 NSaved=16 IEnMin=16 EnMin= -379.318313577049     IErMin=16 ErrMin= 2.81D-04
 ErrMax= 2.81D-04  0.00D+00 EMaxC= 1.00D-01 BMatC= 9.88D-06 BMatP= 2.66D-05
 IDIUse=3 WtCom= 9.97D-01 WtEn= 2.81D-03
 Coeff-Com:  0.141D-02-0.305D-02 0.826D-03 0.314D-02-0.336D-02 0.540D-02
 Coeff-Com:  0.277D-01 0.224D+00-0.294D+00 0.847D-01 0.132D+00-0.245D+00
 Coeff-Com: -0.224D-01 0.118D+00 0.119D+00 0.851D+00
 Coeff-En:   0.000D+00 0.000D+00 0.000D+00 0.000D+00 0.000D+00 0.000D+00
 Coeff-En:   0.000D+00 0.000D+00 0.000D+00 0.000D+00 0.000D+00 0.000D+00
 Coeff-En:   0.000D+00 0.000D+00 0.000D+00 0.100D+01
 Coeff:      0.141D-02-0.304D-02 0.824D-03 0.313D-02-0.335D-02 0.539D-02
 Coeff:      0.276D-01 0.224D+00-0.294D+00 0.845D-01 0.132D+00-0.245D+00
 Coeff:     -0.223D-01 0.118D+00 0.119D+00 0.851D+00
 Gap=     0.078 Goal=   None    Shift=    0.000
 Gap=     0.073 Goal=   None    Shift=    0.000
 RMSDP=1.68D-04 MaxDP=3.70D-03 DE=-5.71D-05 OVMax= 1.46D-02

 Cycle  17  Pass 1  IDiag  1:
 E= -379.318344387555     Delta-E=       -0.000030810505 Rises=F Damp=F
 DIIS: error= 3.19D-04 at cycle  17 NSaved=  17.
 NSaved=17 IEnMin=17 EnMin= -379.318344387555     IErMin=16 ErrMin= 2.81D-04
 ErrMax= 3.19D-04  0.00D+00 EMaxC= 1.00D-01 BMatC= 1.86D-05 BMatP= 9.88D-06
 IDIUse=3 WtCom= 9.97D-01 WtEn= 2.81D-03
 Coeff-Com:  0.111D-02-0.263D-02 0.791D-03 0.331D-02-0.104D-02 0.652D-04
 Coeff-Com:  0.242D-01 0.207D+00-0.261D+00 0.880D-01 0.110D+00-0.195D+00
 Coeff-Com: -0.626D-01 0.179D+00-0.446D-01 0.418D-01 0.912D+00
 Coeff-En:   0.000D+00 0.000D+00 0.000D+00 0.000D+00 0.000D+00 0.000D+00
 Coeff-En:   0.000D+00 0.000D+00 0.000D+00 0.000D+00 0.000D+00 0.000D+00
 Coeff-En:   0.000D+00 0.000D+00 0.000D+00 0.000D+00 0.100D+01
 Coeff:      0.111D-02-0.262D-02 0.788D-03 0.330D-02-0.104D-02 0.650D-04
 Coeff:      0.242D-01 0.206D+00-0.260D+00 0.878D-01 0.109D+00-0.194D+00
 Coeff:     -0.624D-01 0.178D+00-0.445D-01 0.417D-01 0.912D+00
 Gap=     0.077 Goal=   None    Shift=    0.000
 Gap=     0.073 Goal=   None    Shift=    0.000
 RMSDP=9.55D-05 MaxDP=1.53D-03 DE=-3.08D-05 OVMax= 7.54D-03

 Cycle  18  Pass 1  IDiag  1:
 E= -379.318371044674     Delta-E=       -0.000026657119 Rises=F Damp=F
 DIIS: error= 2.47D-04 at cycle  18 NSaved=  18.
 NSaved=18 IEnMin=18 EnMin= -379.318371044674     IErMin=18 ErrMin= 2.47D-04
 ErrMax= 2.47D-04  0.00D+00 EMaxC= 1.00D-01 BMatC= 1.28D-05 BMatP= 9.88D-06
 IDIUse=3 WtCom= 9.97D-01 WtEn= 2.81D-03
 Coeff-Com:  0.941D-03-0.230D-02 0.786D-03 0.315D-02-0.743D-03-0.720D-03
 Coeff-Com:  0.216D-01 0.201D+00-0.249D+00 0.920D-01 0.105D+00-0.192D+00
 Coeff-Com: -0.624D-01 0.162D+00-0.981D-01 0.279D+00 0.156D+01-0.824D+00
 Coeff-En:   0.000D+00 0.000D+00 0.000D+00 0.000D+00 0.000D+00 0.000D+00
 Coeff-En:   0.000D+00 0.000D+00 0.000D+00 0.000D+00 0.000D+00 0.000D+00
 Coeff-En:   0.000D+00 0.000D+00 0.000D+00 0.000D+00 0.000D+00 0.100D+01
 Coeff:      0.939D-03-0.229D-02 0.784D-03 0.314D-02-0.741D-03-0.718D-03
 Coeff:      0.216D-01 0.200D+00-0.249D+00 0.918D-01 0.105D+00-0.191D+00
 Coeff:     -0.622D-01 0.162D+00-0.978D-01 0.278D+00 0.156D+01-0.819D+00
 Gap=     0.077 Goal=   None    Shift=    0.000
 Gap=     0.073 Goal=   None    Shift=    0.000
 RMSDP=7.62D-05 MaxDP=1.48D-03 DE=-2.67D-05 OVMax= 5.37D-03

 Cycle  19  Pass 1  IDiag  1:
 E= -379.318349854153     Delta-E=        0.000021190521 Rises=F Damp=F
 DIIS: error= 2.48D-04 at cycle  19 NSaved=  19.
 NSaved=19 IEnMin=18 EnMin= -379.318371044674     IErMin=18 ErrMin= 2.47D-04
 ErrMax= 2.48D-04  0.00D+00 EMaxC= 1.00D-01 BMatC= 1.17D-05 BMatP= 9.88D-06
 IDIUse=3 WtCom= 9.97D-01 WtEn= 2.81D-03
 Large coefficients: NSaved= 19 BigCof=   10.52 CofMax=   10.00 Det=-6.29D-10
 Inversion failed.  Reducing to 18 matrices.
 Rare condition: small coef for last iteration:  0.000D+00
 Coeff-Com:  0.807D-03-0.205D-02 0.273D-02 0.390D-02-0.291D-02 0.511D-02
 Coeff-Com:  0.170D+00-0.200D+00 0.938D-01 0.133D-01-0.101D+00-0.460D-01
 Coeff-Com:  0.210D+00-0.177D+00-0.190D+00 0.197D+01-0.785D+01 0.710D+01
 Coeff-En:   0.000D+00 0.000D+00 0.000D+00 0.000D+00 0.000D+00 0.000D+00
 Coeff-En:   0.000D+00 0.000D+00 0.000D+00 0.000D+00 0.000D+00 0.000D+00
 Coeff-En:   0.000D+00 0.000D+00 0.000D+00 0.000D+00 0.000D+00 0.100D+01
 Coeff:      0.807D-03-0.205D-02 0.273D-02 0.390D-02-0.291D-02 0.511D-02
 Coeff:      0.170D+00-0.200D+00 0.938D-01 0.133D-01-0.101D+00-0.460D-01
 Coeff:      0.210D+00-0.177D+00-0.190D+00 0.197D+01-0.785D+01 0.710D+01
 Gap=     0.078 Goal=   None    Shift=    0.000
 Gap=     0.073 Goal=   None    Shift=    0.000
 RMSDP=5.03D-04 MaxDP=9.32D-03 DE= 2.12D-05 OVMax= 3.18D-02

 Cycle  20  Pass 1  IDiag  1:
 E= -379.318205214734     Delta-E=        0.000144639419 Rises=F Damp=F
 DIIS: error= 3.26D-04 at cycle  20 NSaved=  19.
 NSaved=19 IEnMin=17 EnMin= -379.318371044674     IErMin=17 ErrMin= 2.47D-04
 ErrMax= 3.26D-04  0.00D+00 EMaxC= 1.00D-01 BMatC= 2.18D-05 BMatP= 9.88D-06
 IDIUse=3 WtCom= 9.97D-01 WtEn= 2.81D-03
 Large coefficients: NSaved= 19 BigCof=   12.44 CofMax=   10.00 Det=-5.42D-10
 Inversion failed.  Reducing to 18 matrices.
 Large coefficients: NSaved= 18 BigCof=   12.86 CofMax=   10.00 Det=-5.69D-10
 Inversion failed.  Reducing to 17 matrices.
 Large coefficients: NSaved= 17 BigCof=   13.64 CofMax=   10.00 Det=-5.76D-10
 Inversion failed.  Reducing to 16 matrices.
 Large coefficients: NSaved= 16 BigCof=   14.63 CofMax=   10.00 Det=-5.81D-10
 Inversion failed.  Reducing to 15 matrices.
 Large coefficients: NSaved= 15 BigCof=   15.61 CofMax=   10.00 Det=-6.06D-10
 Inversion failed.  Reducing to 14 matrices.
 Large coefficients: NSaved= 14 BigCof=   15.89 CofMax=   10.00 Det=-6.14D-10
 Inversion failed.  Reducing to 13 matrices.
 Large coefficients: NSaved= 13 BigCof=   14.99 CofMax=   10.00 Det=-8.32D-10
 Inversion failed.  Reducing to 12 matrices.
 Large coefficients: NSaved= 12 BigCof=   12.46 CofMax=   10.00 Det=-8.39D-10
 Inversion failed.  Reducing to 11 matrices.
 Large coefficients: NSaved= 11 BigCof=   12.39 CofMax=   10.00 Det=-8.49D-10
 Inversion failed.  Reducing to 10 matrices.
 Large coefficients: NSaved= 10 BigCof=   12.38 CofMax=   10.00 Det=-8.51D-10
 Inversion failed.  Reducing to  9 matrices.
 Large coefficients: NSaved=  9 BigCof=   12.80 CofMax=   10.00 Det=-9.82D-10
 Inversion failed.  Reducing to  8 matrices.
 Large coefficients: NSaved=  8 BigCof=   13.64 CofMax=   10.00 Det=-9.88D-10
 Inversion failed.  Reducing to  7 matrices.
 Large coefficients: NSaved=  7 BigCof=   14.98 CofMax=   10.00 Det=-1.10D-09
 Inversion failed.  Reducing to  6 matrices.
 Rare condition: small coef for last iteration:  0.000D+00
 Coeff-Com:  0.294D-01 0.281D-01 0.346D+01-0.899D+01 0.871D+01-0.223D+01
 Coeff-En:   0.000D+00 0.000D+00 0.000D+00 0.000D+00 0.000D+00 0.100D+01
 Coeff:      0.294D-01 0.281D-01 0.346D+01-0.899D+01 0.871D+01-0.223D+01
 Gap=     0.077 Goal=   None    Shift=    0.000
 Gap=     0.074 Goal=   None    Shift=    0.000
 RMSDP=9.90D-04 MaxDP=1.83D-02 DE= 1.45D-04 OVMax= 6.46D-02

 Cycle  21  Pass 1  IDiag  1:
 E= -379.318491262600     Delta-E=       -0.000286047866 Rises=F Damp=F
 DIIS: error= 3.36D-04 at cycle  21 NSaved=   7.
 NSaved= 7 IEnMin= 7 EnMin= -379.318491262600     IErMin= 4 ErrMin= 2.47D-04
 ErrMax= 3.36D-04  0.00D+00 EMaxC= 1.00D-01 BMatC= 1.66D-05 BMatP= 9.88D-06
 IDIUse=3 WtCom= 9.97D-01 WtEn= 2.81D-03
 Coeff-Com:  0.466D-01 0.169D-01 0.348D+01-0.858D+01 0.842D+01-0.231D+01
 Coeff-Com: -0.747D-01
 Coeff-En:   0.000D+00 0.000D+00 0.000D+00 0.000D+00 0.000D+00 0.000D+00
 Coeff-En:   0.100D+01
 Coeff:      0.464D-01 0.169D-01 0.347D+01-0.855D+01 0.839D+01-0.230D+01
 Coeff:     -0.717D-01
 Gap=     0.078 Goal=   None    Shift=    0.000
 Gap=     0.074 Goal=   None    Shift=    0.000
 RMSDP=3.21D-05 MaxDP=6.47D-04 DE=-2.86D-04 OVMax= 2.04D-03

 Cycle  22  Pass 1  IDiag  1:
 E= -379.318497917102     Delta-E=       -0.000006654502 Rises=F Damp=F
 DIIS: error= 3.37D-04 at cycle  22 NSaved=   8.
 NSaved= 8 IEnMin= 8 EnMin= -379.318497917102     IErMin= 4 ErrMin= 2.47D-04
 ErrMax= 3.37D-04  0.00D+00 EMaxC= 1.00D-01 BMatC= 1.74D-05 BMatP= 9.88D-06
 IDIUse=3 WtCom= 9.97D-01 WtEn= 2.81D-03
 Large coefficients: NSaved=  8 BigCof=   19.47 CofMax=   10.00 Det=-1.16D-09
 Inversion failed.  Reducing to  7 matrices.
 Large coefficients: NSaved=  7 BigCof=   31.93 CofMax=   10.00 Det=-1.39D-09
 Inversion failed.  Reducing to  6 matrices.
 Large coefficients: NSaved=  6 BigCof=   31.81 CofMax=   10.00 Det=-1.39D-09
 Inversion failed.  Reducing to  5 matrices.
 Large coefficients: NSaved=  5 BigCof=   23.15 CofMax=   10.00 Det=-2.99D-09
 Inversion failed.  Reducing to  4 matrices.
 Large coefficients: NSaved=  4 BigCof=   15.08 CofMax=   10.00 Det=-1.09D-08
 Inversion failed.  Reducing to  3 matrices.
 Coeff-Com:  0.114D+01 0.581D+01-0.594D+01
 Coeff-En:   0.000D+00 0.000D+00 0.100D+01
 Coeff:      0.113D+01 0.579D+01-0.592D+01
 Gap=     0.078 Goal=   None    Shift=    0.000
 Gap=     0.072 Goal=   None    Shift=    0.000
 RMSDP=6.08D-04 MaxDP=1.22D-02 DE=-6.65D-06 OVMax= 3.91D-02

 Cycle  23  Pass 1  IDiag  1:
 E= -379.318376381498     Delta-E=        0.000121535604 Rises=F Damp=F
 DIIS: error= 7.42D-04 at cycle  23 NSaved=   4.
 NSaved= 4 IEnMin= 3 EnMin= -379.318497917102     IErMin= 1 ErrMin= 2.47D-04
 ErrMax= 7.42D-04  0.00D+00 EMaxC= 1.00D-01 BMatC= 2.12D-05 BMatP= 1.28D-05
 IDIUse=3 WtCom= 9.97D-01 WtEn= 2.81D-03
 Large coefficients: NSaved=  4 BigCof=   32.71 CofMax=   10.00 Det=-1.24D-09
 Inversion failed.  Reducing to  3 matrices.
 Large coefficients: NSaved=  3 BigCof=   27.29 CofMax=   10.00 Det=-1.26D-09
 Inversion failed.  Reducing to  2 matrices.
 Coeff-Com:  0.575D+00 0.425D+00
 Coeff-En:   0.000D+00 0.100D+01
 Coeff:      0.573D+00 0.427D+00
 Gap=     0.078 Goal=   None    Shift=    0.000
 Gap=     0.072 Goal=   None    Shift=    0.000
 RMSDP=4.55D-04 MaxDP=7.67D-03 DE= 1.22D-04 OVMax= 2.91D-02

 Cycle  24  Pass 1  IDiag  1:
 E= -379.318564881562     Delta-E=       -0.000188500063 Rises=F Damp=F
 DIIS: error= 1.45D-03 at cycle  24 NSaved=   3.
 NSaved= 3 IEnMin= 3 EnMin= -379.318564881562     IErMin= 1 ErrMin= 3.37D-04
 ErrMax= 1.45D-03  0.00D+00 EMaxC= 1.00D-01 BMatC= 6.77D-05 BMatP= 1.74D-05
 IDIUse=3 WtCom= 9.97D-01 WtEn= 2.81D-03
 Coeff-Com: -0.547D+00 0.288D+01-0.133D+01
 Coeff-En:   0.000D+00 0.000D+00 0.100D+01
 Coeff:     -0.546D+00 0.287D+01-0.132D+01
 Gap=     0.078 Goal=   None    Shift=    0.000
 Gap=     0.071 Goal=   None    Shift=    0.000
 RMSDP=1.23D-03 MaxDP=2.35D-02 DE=-1.89D-04 OVMax= 8.01D-02

 Cycle  25  Pass 1  IDiag  1:
 E= -379.318166726616     Delta-E=        0.000398154946 Rises=F Damp=F
 DIIS: error= 5.31D-04 at cycle  25 NSaved=   4.
 NSaved= 4 IEnMin= 3 EnMin= -379.318564881562     IErMin= 1 ErrMin= 3.37D-04
 ErrMax= 5.31D-04  0.00D+00 EMaxC= 1.00D-01 BMatC= 2.20D-05 BMatP= 1.74D-05
 IDIUse=3 WtCom= 9.97D-01 WtEn= 2.81D-03
 Rare condition: small coef for last iteration:  0.000D+00
 Coeff-Com:  0.125D+01 0.160D+01-0.312D-01-0.183D+01
 Coeff-En:   0.000D+00 0.000D+00 0.000D+00 0.100D+01
 Coeff:      0.125D+01 0.160D+01-0.312D-01-0.183D+01
 Gap=     0.074 Goal=   None    Shift=    0.000
 Gap=     0.073 Goal=   None    Shift=    0.000
 RMSDP=3.01D-03 MaxDP=5.12D-02 DE= 3.98D-04 OVMax= 1.94D-01

 Cycle  26  Pass 1  IDiag  1:
 E= -379.318700612434     Delta-E=       -0.000533885818 Rises=F Damp=F
 DIIS: error= 1.89D-03 at cycle  26 NSaved=   5.
 NSaved= 5 IEnMin= 5 EnMin= -379.318700612434     IErMin= 1 ErrMin= 3.37D-04
 ErrMax= 1.89D-03  0.00D+00 EMaxC= 1.00D-01 BMatC= 3.45D-04 BMatP= 1.74D-05
 IDIUse=3 WtCom= 9.97D-01 WtEn= 2.81D-03
 Coeff-Com:  0.124D+01 0.162D+01-0.311D-01-0.184D+01 0.422D-02
 Coeff-En:   0.000D+00 0.000D+00 0.000D+00 0.000D+00 0.100D+01
 Coeff:      0.124D+01 0.162D+01-0.310D-01-0.184D+01 0.702D-02
 Gap=     0.081 Goal=   None    Shift=    0.000
 Gap=     0.079 Goal=   None    Shift=    0.000
 RMSDP=1.57D-05 MaxDP=2.40D-04 DE=-5.34D-04 OVMax= 1.00D-03

 Cycle  27  Pass 1  IDiag  1:
 E= -379.318705229029     Delta-E=       -0.000004616595 Rises=F Damp=F
 DIIS: error= 1.89D-03 at cycle  27 NSaved=   6.
 NSaved= 6 IEnMin= 6 EnMin= -379.318705229029     IErMin= 1 ErrMin= 3.37D-04
 ErrMax= 1.89D-03  0.00D+00 EMaxC= 1.00D-01 BMatC= 3.44D-04 BMatP= 1.74D-05
 IDIUse=3 WtCom= 9.97D-01 WtEn= 2.81D-03
 Large coefficients: NSaved=  6 BigCof=   24.64 CofMax=   10.00 Det=-1.45D-09
 Inversion failed.  Reducing to  5 matrices.
 Large coefficients: NSaved=  5 BigCof=   32.43 CofMax=   10.00 Det=-1.77D-09
 Inversion failed.  Reducing to  4 matrices.
 Large coefficients: NSaved=  4 BigCof=   28.29 CofMax=   10.00 Det=-1.93D-09
 Inversion failed.  Reducing to  3 matrices.
 Large coefficients: NSaved=  3 BigCof=   25.97 CofMax=   10.00 Det=-2.79D-09
 Inversion failed.  Reducing to  2 matrices.
 Large coefficients: NSaved=  2 BigCof=  131.43 CofMax=   10.00 Det=-3.81D-09
 Coeff-Com: -0.130D+03 0.131D+03
 Coeff-En:   0.000D+00 0.100D+01
 Coeff:     -0.130D+03 0.131D+03
 Gap=     0.070 Goal=   None    Shift=    0.000
 Gap=     0.066 Goal=   None    Shift=    0.000
 RMSDP=2.26D-03 MaxDP=3.74D-02 DE=-4.62D-06 OVMax= 1.56D-01

 Cycle  28  Pass 1  IDiag  1:
 E= -379.318166800512     Delta-E=        0.000538428516 Rises=F Damp=F
 DIIS: error= 7.45D-03 at cycle  28 NSaved=   3.
 NSaved= 3 IEnMin= 2 EnMin= -379.318705229029     IErMin= 2 ErrMin= 1.89D-03
 ErrMax= 7.45D-03  0.00D+00 EMaxC= 1.00D-01 BMatC= 3.36D-03 BMatP= 3.44D-04
 IDIUse=3 WtCom= 9.97D-01 WtEn= 2.81D-03
 Large coefficients: NSaved=  3 BigCof=   69.47 CofMax=   10.00 Det=-2.39D-09
 Inversion failed.  Reducing to  2 matrices.
 Coeff-Com:  0.766D+00 0.234D+00
 Coeff-En:   0.000D+00 0.100D+01
 Coeff:      0.764D+00 0.236D+00
 Gap=     0.075 Goal=   None    Shift=    0.000
 Gap=     0.071 Goal=   None    Shift=    0.000
 RMSDP=1.54D-03 MaxDP=2.73D-02 DE= 5.38D-04 OVMax= 9.83D-02

 Cycle  29  Pass 1  IDiag  1:
 E= -379.319233126266     Delta-E=       -0.001066325754 Rises=F Damp=F
 DIIS: error= 2.61D-03 at cycle  29 NSaved=   3.
 NSaved= 3 IEnMin= 3 EnMin= -379.319233126266     IErMin= 1 ErrMin= 1.89D-03
 ErrMax= 2.61D-03  0.00D+00 EMaxC= 1.00D-01 BMatC= 2.38D-04 BMatP= 3.44D-04
 IDIUse=3 WtCom= 9.97D-01 WtEn= 2.81D-03
 Coeff-Com:  0.572D+00 0.944D-01 0.333D+00
 Coeff-En:   0.000D+00 0.000D+00 0.100D+01
 Coeff:      0.571D+00 0.941D-01 0.335D+00
 Gap=     0.078 Goal=   None    Shift=    0.000
 Gap=     0.072 Goal=   None    Shift=    0.000
 RMSDP=1.78D-04 MaxDP=3.03D-03 DE=-1.07D-03 OVMax= 1.46D-02

 Cycle  30  Pass 1  IDiag  1:
 E= -379.319416750932     Delta-E=       -0.000183624666 Rises=F Damp=F
 DIIS: error= 2.58D-03 at cycle  30 NSaved=   4.
 NSaved= 4 IEnMin= 4 EnMin= -379.319416750932     IErMin= 1 ErrMin= 1.89D-03
 ErrMax= 2.58D-03  0.00D+00 EMaxC= 1.00D-01 BMatC= 1.98D-04 BMatP= 2.38D-04
 IDIUse=3 WtCom= 9.97D-01 WtEn= 2.81D-03
 Coeff-Com:  0.378D+00-0.196D+00 0.288D+01-0.206D+01
 Coeff-En:   0.000D+00 0.000D+00 0.000D+00 0.100D+01
 Coeff:      0.377D+00-0.195D+00 0.287D+01-0.205D+01
 Gap=     0.077 Goal=   None    Shift=    0.000
 Gap=     0.076 Goal=   None    Shift=    0.000
 RMSDP=6.11D-04 MaxDP=1.35D-02 DE=-1.84D-04 OVMax= 5.04D-02

 Cycle  31  Pass 1  IDiag  1:
 E= -379.319044268618     Delta-E=        0.000372482314 Rises=F Damp=F
 DIIS: error= 2.60D-04 at cycle  31 NSaved=   5.
 NSaved= 5 IEnMin= 4 EnMin= -379.319416750932     IErMin= 5 ErrMin= 2.60D-04
 ErrMax= 2.60D-04  0.00D+00 EMaxC= 1.00D-01 BMatC= 9.93D-06 BMatP= 1.98D-04
 IDIUse=3 WtCom= 9.97D-01 WtEn= 2.60D-03
 Rare condition: small coef for last iteration:  0.000D+00
 Coeff-Com: -0.282D-02-0.956D-01 0.583D+00-0.400D+00 0.915D+00
 Coeff-En:   0.000D+00 0.000D+00 0.000D+00 0.000D+00 0.100D+01
 Coeff:     -0.282D-02-0.956D-01 0.583D+00-0.400D+00 0.915D+00
 Gap=     0.077 Goal=   None    Shift=    0.000
 Gap=     0.077 Goal=   None    Shift=    0.000
 RMSDP=5.00D-05 MaxDP=1.24D-03 DE= 3.72D-04 OVMax= 4.47D-03

 Cycle  32  Pass 1  IDiag  1:
 E= -379.319049723844     Delta-E=       -0.000005455226 Rises=F Damp=F
 DIIS: error= 2.13D-04 at cycle  32 NSaved=   6.
 NSaved= 6 IEnMin= 4 EnMin= -379.319416750932     IErMin= 6 ErrMin= 2.13D-04
 ErrMax= 2.13D-04  0.00D+00 EMaxC= 1.00D-01 BMatC= 6.52D-06 BMatP= 9.93D-06
 IDIUse=3 WtCom= 9.98D-01 WtEn= 2.13D-03
 Coeff-Com: -0.397D-01-0.526D-01 0.260D+00-0.155D+00 0.365D+00 0.622D+00
 Coeff-En:   0.000D+00 0.000D+00 0.000D+00 0.000D+00 0.000D+00 0.100D+01
 Coeff:     -0.397D-01-0.525D-01 0.260D+00-0.154D+00 0.364D+00 0.623D+00
 Gap=     0.077 Goal=   None    Shift=    0.000
 Gap=     0.077 Goal=   None    Shift=    0.000
 RMSDP=5.55D-05 MaxDP=8.07D-04 DE=-5.46D-06 OVMax= 3.80D-03

 Cycle  33  Pass 1  IDiag  1:
 E= -379.319065601881     Delta-E=       -0.000015878037 Rises=F Damp=F
 DIIS: error= 2.11D-04 at cycle  33 NSaved=   7.
 NSaved= 7 IEnMin= 4 EnMin= -379.319416750932     IErMin= 7 ErrMin= 2.11D-04
 ErrMax= 2.11D-04  0.00D+00 EMaxC= 1.00D-01 BMatC= 6.49D-06 BMatP= 6.52D-06
 IDIUse=3 WtCom= 9.98D-01 WtEn= 2.11D-03
 Coeff-Com: -0.104D+00-0.593D-01 0.704D-01 0.138D-01 0.460D+00 0.270D+01
 Coeff-Com: -0.209D+01
 Coeff-En:   0.000D+00 0.000D+00 0.000D+00 0.000D+00 0.000D+00 0.000D+00
 Coeff-En:   0.100D+01
 Coeff:     -0.104D+00-0.592D-01 0.702D-01 0.138D-01 0.459D+00 0.270D+01
 Coeff:     -0.208D+01
 Gap=     0.077 Goal=   None    Shift=    0.000
 Gap=     0.077 Goal=   None    Shift=    0.000
 RMSDP=1.25D-04 MaxDP=1.77D-03 DE=-1.59D-05 OVMax= 8.46D-03

 Cycle  34  Pass 1  IDiag  1:
 E= -379.319029761368     Delta-E=        0.000035840513 Rises=F Damp=F
 DIIS: error= 2.15D-04 at cycle  34 NSaved=   8.
 NSaved= 8 IEnMin= 4 EnMin= -379.319416750932     IErMin= 7 ErrMin= 2.11D-04
 ErrMax= 2.15D-04  0.00D+00 EMaxC= 1.00D-01 BMatC= 6.96D-06 BMatP= 6.49D-06
 IDIUse=3 WtCom= 9.98D-01 WtEn= 2.11D-03
 Rare condition: small coef for last iteration:  0.000D+00
 Coeff-Com: -0.112D+00-0.346D-01 0.123D+00-0.365D-01 0.278D+00 0.113D+01
 Coeff-Com: -0.342D+01 0.307D+01
 Coeff-En:   0.000D+00 0.000D+00 0.000D+00 0.000D+00 0.000D+00 0.000D+00
 Coeff-En:   0.000D+00 0.100D+01
 Coeff:     -0.112D+00-0.346D-01 0.123D+00-0.365D-01 0.278D+00 0.113D+01
 Coeff:     -0.342D+01 0.307D+01
 Gap=     0.077 Goal=   None    Shift=    0.000
 Gap=     0.076 Goal=   None    Shift=    0.000
 RMSDP=2.51D-04 MaxDP=3.21D-03 DE= 3.58D-05 OVMax= 1.75D-02

 Cycle  35  Pass 1  IDiag  1:
 E= -379.318966173207     Delta-E=        0.000063588161 Rises=F Damp=F
 DIIS: error= 2.15D-04 at cycle  35 NSaved=   9.
 NSaved= 9 IEnMin= 4 EnMin= -379.319416750932     IErMin= 7 ErrMin= 2.11D-04
 ErrMax= 2.15D-04  0.00D+00 EMaxC= 1.00D-01 BMatC= 6.32D-06 BMatP= 6.49D-06
 IDIUse=3 WtCom= 9.98D-01 WtEn= 2.11D-03
 Rare condition: small coef for last iteration:  0.000D+00
 Coeff-Com:  0.121D+00-0.789D-01 0.586D+00-0.464D+00 0.230D+00-0.125D+01
 Coeff-Com:  0.712D+01-0.906D+01 0.380D+01
 Coeff-En:   0.000D+00 0.000D+00 0.000D+00 0.000D+00 0.000D+00 0.000D+00
 Coeff-En:   0.000D+00 0.000D+00 0.100D+01
 Coeff:      0.121D+00-0.789D-01 0.586D+00-0.464D+00 0.230D+00-0.125D+01
 Coeff:      0.712D+01-0.906D+01 0.380D+01
 Gap=     0.077 Goal=   None    Shift=    0.000
 Gap=     0.076 Goal=   None    Shift=    0.000
 RMSDP=1.53D-04 MaxDP=2.38D-03 DE= 6.36D-05 OVMax= 9.95D-03

 Cycle  36  Pass 1  IDiag  1:
 E= -379.319005851656     Delta-E=       -0.000039678449 Rises=F Damp=F
 DIIS: error= 2.14D-04 at cycle  36 NSaved=  10.
 NSaved=10 IEnMin= 4 EnMin= -379.319416750932     IErMin= 7 ErrMin= 2.11D-04
 ErrMax= 2.14D-04  0.00D+00 EMaxC= 1.00D-01 BMatC= 5.75D-06 BMatP= 6.32D-06
 IDIUse=3 WtCom= 9.98D-01 WtEn= 2.11D-03
 Coeff-Com:  0.211D+00-0.827D-01 0.554D+00-0.408D+00 0.410D+00-0.133D+01
 Coeff-Com:  0.667D+01-0.811D+01 0.871D+00 0.222D+01
 Coeff-En:   0.000D+00 0.000D+00 0.000D+00 0.000D+00 0.000D+00 0.000D+00
 Coeff-En:   0.000D+00 0.000D+00 0.000D+00 0.100D+01
 Coeff:      0.211D+00-0.826D-01 0.553D+00-0.407D+00 0.410D+00-0.133D+01
 Coeff:      0.665D+01-0.810D+01 0.869D+00 0.222D+01
 Gap=     0.077 Goal=   None    Shift=    0.000
 Gap=     0.077 Goal=   None    Shift=    0.000
 RMSDP=3.90D-04 MaxDP=6.25D-03 DE=-3.97D-05 OVMax= 2.47D-02

 Cycle  37  Pass 1  IDiag  1:
 E= -379.319110679901     Delta-E=       -0.000104828244 Rises=F Damp=F
 DIIS: error= 2.22D-04 at cycle  37 NSaved=  11.
 NSaved=11 IEnMin= 4 EnMin= -379.319416750932     IErMin= 7 ErrMin= 2.11D-04
 ErrMax= 2.22D-04  0.00D+00 EMaxC= 1.00D-01 BMatC= 5.97D-06 BMatP= 5.75D-06
 IDIUse=3 WtCom= 9.98D-01 WtEn= 2.11D-03
 Coeff-Com: -0.333D+00-0.431D-01 0.149D+00-0.645D-01-0.123D+00 0.893D+00
 Coeff-Com:  0.858D+00-0.203D+01 0.297D+01-0.730D+01 0.603D+01
 Coeff-En:   0.000D+00 0.000D+00 0.000D+00 0.000D+00 0.000D+00 0.000D+00
 Coeff-En:   0.000D+00 0.000D+00 0.000D+00 0.000D+00 0.100D+01
 Coeff:     -0.332D+00-0.430D-01 0.149D+00-0.643D-01-0.123D+00 0.891D+00
 Coeff:      0.856D+00-0.203D+01 0.296D+01-0.729D+01 0.602D+01
 Gap=     0.077 Goal=   None    Shift=    0.000
 Gap=     0.079 Goal=   None    Shift=    0.000
 RMSDP=1.73D-03 MaxDP=2.91D-02 DE=-1.05D-04 OVMax= 1.09D-01

 Cycle  38  Pass 1  IDiag  1:
 E= -379.319437924599     Delta-E=       -0.000327244698 Rises=F Damp=F
 DIIS: error= 1.56D-03 at cycle  38 NSaved=  12.
 NSaved=12 IEnMin=12 EnMin= -379.319437924599     IErMin= 7 ErrMin= 2.11D-04
 ErrMax= 1.56D-03  0.00D+00 EMaxC= 1.00D-01 BMatC= 1.73D-04 BMatP= 5.75D-06
 IDIUse=3 WtCom= 9.98D-01 WtEn= 2.11D-03
 Coeff-Com: -0.507D+00 0.791D-01-0.215D+00 0.179D+00-0.829D+00-0.242D+01
 Coeff-Com:  0.391D+01-0.134D+01 0.159D+01-0.273D+00 0.246D-02 0.831D+00
 Coeff-En:   0.000D+00 0.000D+00 0.000D+00 0.000D+00 0.000D+00 0.000D+00
 Coeff-En:   0.000D+00 0.000D+00 0.000D+00 0.000D+00 0.000D+00 0.100D+01
 Coeff:     -0.506D+00 0.789D-01-0.215D+00 0.179D+00-0.828D+00-0.241D+01
 Coeff:      0.390D+01-0.134D+01 0.158D+01-0.272D+00 0.245D-02 0.831D+00
 Gap=     0.077 Goal=   None    Shift=    0.000
 Gap=     0.078 Goal=   None    Shift=    0.000
 RMSDP=2.09D-04 MaxDP=5.30D-03 DE=-3.27D-04 OVMax= 1.51D-02

 Cycle  39  Pass 1  IDiag  1:
 E= -379.319546653053     Delta-E=       -0.000108728455 Rises=F Damp=F
 DIIS: error= 2.14D-04 at cycle  39 NSaved=  13.
 NSaved=13 IEnMin=13 EnMin= -379.319546653053     IErMin= 7 ErrMin= 2.11D-04
 ErrMax= 2.14D-04  0.00D+00 EMaxC= 1.00D-01 BMatC= 4.82D-06 BMatP= 5.75D-06
 IDIUse=3 WtCom= 9.98D-01 WtEn= 2.11D-03
 Coeff-Com: -0.178D+00-0.327D-02-0.807D+00 0.525D+00 0.115D+01 0.396D+01
 Coeff-Com: -0.723D+01 0.291D+01-0.324D+01 0.670D+01-0.768D+01 0.298D+00
 Coeff-Com:  0.459D+01
 Coeff-En:   0.000D+00 0.000D+00 0.000D+00 0.000D+00 0.000D+00 0.000D+00
 Coeff-En:   0.000D+00 0.000D+00 0.000D+00 0.000D+00 0.000D+00 0.000D+00
 Coeff-En:   0.100D+01
 Coeff:     -0.178D+00-0.326D-02-0.805D+00 0.524D+00 0.115D+01 0.395D+01
 Coeff:     -0.721D+01 0.290D+01-0.323D+01 0.668D+01-0.766D+01 0.297D+00
 Coeff:      0.458D+01
 Gap=     0.080 Goal=   None    Shift=    0.000
 Gap=     0.086 Goal=   None    Shift=    0.000
 RMSDP=4.41D-03 MaxDP=8.32D-02 DE=-1.09D-04 OVMax= 2.83D-01

 Cycle  40  Pass 1  IDiag  1:
 E= -379.316383564765     Delta-E=        0.003163088288 Rises=F Damp=F
 DIIS: error= 7.94D-03 at cycle  40 NSaved=  14.
 NSaved=14 IEnMin=13 EnMin= -379.319546653053     IErMin= 7 ErrMin= 2.11D-04
 ErrMax= 7.94D-03  0.00D+00 EMaxC= 1.00D-01 BMatC= 5.15D-03 BMatP= 4.82D-06
 IDIUse=3 WtCom= 9.98D-01 WtEn= 2.11D-03
 Rare condition: small coef for last iteration:  0.000D+00
 Coeff-Com: -0.128D+00-0.414D-02-0.845D+00 0.555D+00 0.117D+01 0.464D+01
 Coeff-Com: -0.898D+01 0.447D+01-0.351D+01 0.535D+01-0.636D+01-0.186D-01
 Coeff-Com:  0.463D+01 0.200D-01
 Coeff-En:   0.000D+00 0.000D+00 0.000D+00 0.000D+00 0.000D+00 0.000D+00
 Coeff-En:   0.000D+00 0.000D+00 0.000D+00 0.000D+00 0.000D+00 0.000D+00
 Coeff-En:   0.000D+00 0.100D+01
 Coeff:     -0.128D+00-0.414D-02-0.845D+00 0.555D+00 0.117D+01 0.464D+01
 Coeff:     -0.898D+01 0.447D+01-0.351D+01 0.535D+01-0.636D+01-0.186D-01
 Coeff:      0.463D+01 0.200D-01
 Gap=     0.095 Goal=   None    Shift=    0.000
 Gap=     0.101 Goal=   None    Shift=    0.000
 RMSDP=3.57D-05 MaxDP=6.28D-04 DE= 3.16D-03 OVMax= 2.30D-03

 Cycle  41  Pass 1  IDiag  1:
 E= -379.316470868562     Delta-E=       -0.000087303797 Rises=F Damp=F
 DIIS: error= 7.87D-03 at cycle  41 NSaved=  15.
 NSaved=15 IEnMin=13 EnMin= -379.319546653053     IErMin= 7 ErrMin= 2.11D-04
 ErrMax= 7.87D-03  0.00D+00 EMaxC= 1.00D-01 BMatC= 5.03D-03 BMatP= 4.82D-06
 IDIUse=3 WtCom= 9.98D-01 WtEn= 2.11D-03
 Coeff-Com: -0.466D-01-0.303D-01-0.849D+00 0.576D+00 0.124D+01 0.509D+01
 Coeff-Com: -0.996D+01 0.552D+01-0.393D+01 0.436D+01-0.514D+01-0.494D+00
 Coeff-Com:  0.458D+01-0.237D+01 0.245D+01
 Coeff-En:   0.000D+00 0.000D+00 0.000D+00 0.000D+00 0.000D+00 0.000D+00
 Coeff-En:   0.000D+00 0.000D+00 0.000D+00 0.000D+00 0.000D+00 0.000D+00
 Coeff-En:   0.000D+00 0.000D+00 0.100D+01
 Coeff:     -0.465D-01-0.302D-01-0.847D+00 0.575D+00 0.124D+01 0.508D+01
 Coeff:     -0.994D+01 0.551D+01-0.392D+01 0.435D+01-0.513D+01-0.493D+00
 Coeff:      0.457D+01-0.236D+01 0.245D+01
 Gap=     0.092 Goal=   None    Shift=    0.000
 Gap=     0.098 Goal=   None    Shift=    0.000
 RMSDP=2.83D-04 MaxDP=5.06D-03 DE=-8.73D-05 OVMax= 1.85D-02

 Cycle  42  Pass 1  IDiag  1:
 E= -379.317283068978     Delta-E=       -0.000812200416 Rises=F Damp=F
 DIIS: error= 7.14D-03 at cycle  42 NSaved=  16.
 NSaved=16 IEnMin=13 EnMin= -379.319546653053     IErMin= 7 ErrMin= 2.11D-04
 ErrMax= 7.14D-03  0.00D+00 EMaxC= 1.00D-01 BMatC= 3.99D-03 BMatP= 4.82D-06
 IDIUse=3 WtCom= 9.98D-01 WtEn= 2.11D-03
 Large coefficients: NSaved= 16 BigCof=   10.98 CofMax=   10.00 Det=-1.09D-09
 Inversion failed.  Reducing to 15 matrices.
 Large coefficients: NSaved= 15 BigCof=   10.75 CofMax=   10.00 Det=-1.10D-09
 Inversion failed.  Reducing to 14 matrices.
 Large coefficients: NSaved= 14 BigCof=   10.32 CofMax=   10.00 Det=-1.34D-09
 Inversion failed.  Reducing to 13 matrices.
 Large coefficients: NSaved= 13 BigCof=   10.84 CofMax=   10.00 Det=-1.36D-09
 Inversion failed.  Reducing to 12 matrices.
 Coeff-Com: -0.680D+00 0.373D+00 0.792D+00 0.321D+01-0.549D+01 0.133D+01
 Coeff-Com:  0.125D+01-0.346D+01-0.772D+00 0.427D+01-0.589D+00 0.769D+00
 Coeff-En:   0.000D+00 0.000D+00 0.000D+00 0.000D+00 0.000D+00 0.000D+00
 Coeff-En:   0.000D+00 0.000D+00 0.000D+00 0.000D+00 0.000D+00 0.100D+01
 Coeff:     -0.678D+00 0.372D+00 0.790D+00 0.320D+01-0.548D+01 0.133D+01
 Coeff:      0.124D+01-0.345D+01-0.771D+00 0.426D+01-0.588D+00 0.769D+00
 Gap=     0.089 Goal=   None    Shift=    0.000
 Gap=     0.094 Goal=   None    Shift=    0.000
 RMSDP=2.63D-04 MaxDP=4.23D-03 DE=-8.12D-04 OVMax= 1.74D-02

 Cycle  43  Pass 1  IDiag  1:
 E= -379.318139034503     Delta-E=       -0.000855965525 Rises=F Damp=F
 DIIS: error= 6.19D-03 at cycle  43 NSaved=  13.
 NSaved=13 IEnMin=10 EnMin= -379.319546653053     IErMin= 5 ErrMin= 2.11D-04
 ErrMax= 6.19D-03  0.00D+00 EMaxC= 1.00D-01 BMatC= 2.90D-03 BMatP= 4.82D-06
 IDIUse=3 WtCom= 9.98D-01 WtEn= 2.11D-03
 Coeff-Com: -0.767D+00 0.426D+00 0.885D+00 0.454D+01-0.791D+01 0.339D+01
 Coeff-Com: -0.151D+01-0.165D+01-0.109D+01 0.444D+01 0.144D+00-0.869D+00
 Coeff-Com:  0.976D+00
 Coeff-En:   0.000D+00 0.000D+00 0.000D+00 0.000D+00 0.000D+00 0.000D+00
 Coeff-En:   0.000D+00 0.000D+00 0.000D+00 0.000D+00 0.000D+00 0.000D+00
 Coeff-En:   0.100D+01
 Coeff:     -0.765D+00 0.425D+00 0.883D+00 0.453D+01-0.789D+01 0.338D+01
 Coeff:     -0.150D+01-0.165D+01-0.109D+01 0.443D+01 0.144D+00-0.867D+00
 Coeff:      0.976D+00
 Gap=     0.093 Goal=   None    Shift=    0.000
 Gap=     0.099 Goal=   None    Shift=    0.000
 RMSDP=4.81D-04 MaxDP=8.91D-03 DE=-8.56D-04 OVMax= 3.11D-02

 Cycle  44  Pass 1  IDiag  1:
 E= -379.317129823250     Delta-E=        0.001009211253 Rises=F Damp=F
 DIIS: error= 7.30D-03 at cycle  44 NSaved=  14.
 NSaved=14 IEnMin=10 EnMin= -379.319546653053     IErMin= 5 ErrMin= 2.11D-04
 ErrMax= 7.30D-03  0.00D+00 EMaxC= 1.00D-01 BMatC= 4.23D-03 BMatP= 4.82D-06
 IDIUse=3 WtCom= 9.98D-01 WtEn= 2.11D-03
 Rare condition: small coef for last iteration:  0.000D+00
 Coeff-Com: -0.662D+00 0.347D+00 0.944D+00 0.431D+01-0.769D+01 0.311D+01
 Coeff-Com: -0.929D+00-0.239D+01-0.541D+00 0.439D+01-0.173D+00-0.186D+01
 Coeff-Com:  0.648D+00 0.149D+01
 Coeff-En:   0.000D+00 0.000D+00 0.000D+00 0.000D+00 0.000D+00 0.000D+00
 Coeff-En:   0.000D+00 0.000D+00 0.000D+00 0.000D+00 0.000D+00 0.000D+00
 Coeff-En:   0.000D+00 0.100D+01
 Coeff:     -0.662D+00 0.347D+00 0.944D+00 0.431D+01-0.769D+01 0.311D+01
 Coeff:     -0.929D+00-0.239D+01-0.541D+00 0.439D+01-0.173D+00-0.186D+01
 Coeff:      0.648D+00 0.149D+01
 Gap=     0.095 Goal=   None    Shift=    0.000
 Gap=     0.100 Goal=   None    Shift=    0.000
 RMSDP=1.81D-04 MaxDP=3.36D-03 DE= 1.01D-03 OVMax= 1.15D-02

 Cycle  45  Pass 1  IDiag  1:
 E= -379.316722518167     Delta-E=        0.000407305084 Rises=F Damp=F
 DIIS: error= 7.68D-03 at cycle  45 NSaved=  15.
 NSaved=15 IEnMin=10 EnMin= -379.319546653053     IErMin= 5 ErrMin= 2.11D-04
 ErrMax= 7.68D-03  0.00D+00 EMaxC= 1.00D-01 BMatC= 4.75D-03 BMatP= 4.82D-06
 IDIUse=3 WtCom= 9.98D-01 WtEn= 2.11D-03
 Rare condition: small coef for last iteration:  0.000D+00
 Coeff-Com: -0.663D+00 0.346D+00 0.954D+00 0.438D+01-0.781D+01 0.316D+01
 Coeff-Com: -0.958D+00-0.240D+01-0.540D+00 0.442D+01-0.109D+00-0.198D+01
 Coeff-Com:  0.630D+00 0.174D+01-0.174D+00
 Coeff-En:   0.000D+00 0.000D+00 0.000D+00 0.000D+00 0.000D+00 0.000D+00
 Coeff-En:   0.000D+00 0.000D+00 0.000D+00 0.000D+00 0.000D+00 0.000D+00
 Coeff-En:   0.000D+00 0.000D+00 0.100D+01
 Coeff:     -0.663D+00 0.346D+00 0.954D+00 0.438D+01-0.781D+01 0.316D+01
 Coeff:     -0.958D+00-0.240D+01-0.540D+00 0.442D+01-0.109D+00-0.198D+01
 Coeff:      0.630D+00 0.174D+01-0.174D+00
 Gap=     0.095 Goal=   None    Shift=    0.000
 Gap=     0.101 Goal=   None    Shift=    0.000
 RMSDP=3.45D-05 MaxDP=6.33D-04 DE= 4.07D-04 OVMax= 2.24D-03

 Cycle  46  Pass 1  IDiag  1:
 E= -379.316628033051     Delta-E=        0.000094485116 Rises=F Damp=F
 DIIS: error= 7.76D-03 at cycle  46 NSaved=  16.
 NSaved=16 IEnMin=10 EnMin= -379.319546653053     IErMin= 5 ErrMin= 2.11D-04
 ErrMax= 7.76D-03  0.00D+00 EMaxC= 1.00D-01 BMatC= 4.87D-03 BMatP= 4.82D-06
 IDIUse=3 WtCom= 9.98D-01 WtEn= 2.11D-03
 Rare condition: small coef for last iteration:  0.000D+00
 Coeff-Com: -0.650D+00 0.338D+00 0.879D+00 0.433D+01-0.775D+01 0.325D+01
 Coeff-Com: -0.105D+01-0.226D+01-0.562D+00 0.435D+01-0.425D+00-0.173D+01
 Coeff-Com:  0.738D+00 0.264D+01-0.848D+01 0.737D+01
 Coeff-En:   0.000D+00 0.000D+00 0.000D+00 0.000D+00 0.000D+00 0.000D+00
 Coeff-En:   0.000D+00 0.000D+00 0.000D+00 0.000D+00 0.000D+00 0.000D+00
 Coeff-En:   0.000D+00 0.000D+00 0.000D+00 0.100D+01
 Coeff:     -0.650D+00 0.338D+00 0.879D+00 0.433D+01-0.775D+01 0.325D+01
 Coeff:     -0.105D+01-0.226D+01-0.562D+00 0.435D+01-0.425D+00-0.173D+01
 Coeff:      0.738D+00 0.264D+01-0.848D+01 0.737D+01
 Gap=     0.095 Goal=   None    Shift=    0.000
 Gap=     0.100 Goal=   None    Shift=    0.000
 RMSDP=5.27D-05 MaxDP=9.40D-04 DE= 9.45D-05 OVMax= 3.35D-03

 Cycle  47  Pass 1  IDiag  1:
 E= -379.316788317668     Delta-E=       -0.000160284617 Rises=F Damp=F
 DIIS: error= 7.62D-03 at cycle  47 NSaved=  17.
 NSaved=17 IEnMin=10 EnMin= -379.319546653053     IErMin= 5 ErrMin= 2.11D-04
 ErrMax= 7.62D-03  0.00D+00 EMaxC= 1.00D-01 BMatC= 4.67D-03 BMatP= 4.82D-06
 IDIUse=3 WtCom= 9.98D-01 WtEn= 2.11D-03
 Coeff-Com: -0.723D+00 0.386D+00 0.978D+00 0.464D+01-0.790D+01 0.297D+01
 Coeff-Com: -0.110D+01-0.234D+01-0.478D+00 0.451D+01 0.766D+00-0.318D+01
 Coeff-Com:  0.440D+00 0.278D+01-0.331D+01-0.256D+01 0.513D+01
 Coeff-En:   0.000D+00 0.000D+00 0.000D+00 0.000D+00 0.000D+00 0.000D+00
 Coeff-En:   0.000D+00 0.000D+00 0.000D+00 0.000D+00 0.000D+00 0.000D+00
 Coeff-En:   0.000D+00 0.000D+00 0.000D+00 0.000D+00 0.100D+01
 Coeff:     -0.721D+00 0.385D+00 0.976D+00 0.463D+01-0.788D+01 0.296D+01
 Coeff:     -0.110D+01-0.233D+01-0.477D+00 0.450D+01 0.765D+00-0.317D+01
 Coeff:      0.439D+00 0.277D+01-0.330D+01-0.256D+01 0.512D+01
 Gap=     0.096 Goal=   None    Shift=    0.000
 Gap=     0.102 Goal=   None    Shift=    0.000
 RMSDP=1.70D-04 MaxDP=3.11D-03 DE=-1.60D-04 OVMax= 1.11D-02

 Cycle  48  Pass 1  IDiag  1:
 E= -379.316283498617     Delta-E=        0.000504819051 Rises=F Damp=F
 DIIS: error= 8.04D-03 at cycle  48 NSaved=  18.
 NSaved=18 IEnMin=10 EnMin= -379.319546653053     IErMin= 5 ErrMin= 2.11D-04
 ErrMax= 8.04D-03  0.00D+00 EMaxC= 1.00D-01 BMatC= 5.29D-03 BMatP= 4.82D-06
 IDIUse=3 WtCom= 9.98D-01 WtEn= 2.11D-03
 Large coefficients: NSaved= 18 BigCof=   40.16 CofMax=   10.00 Det=-3.29D-11
 Inversion failed.  Reducing to 17 matrices.
 Rare condition: small coef for last iteration:  0.000D+00
 Coeff-Com: -0.728D+00 0.412D+00 0.820D+00 0.447D+01-0.862D+01 0.435D+01
 Coeff-Com: -0.197D+01-0.139D+01-0.825D+00 0.430D+01-0.225D+01 0.110D+01
 Coeff-Com:  0.214D+01 0.728D+01-0.724D+01-0.292D+01 0.208D+01
 Coeff-En:   0.000D+00 0.000D+00 0.000D+00 0.000D+00 0.000D+00 0.000D+00
 Coeff-En:   0.000D+00 0.000D+00 0.000D+00 0.000D+00 0.000D+00 0.000D+00
 Coeff-En:   0.000D+00 0.000D+00 0.000D+00 0.000D+00 0.100D+01
 Coeff:     -0.728D+00 0.412D+00 0.820D+00 0.447D+01-0.862D+01 0.435D+01
 Coeff:     -0.197D+01-0.139D+01-0.825D+00 0.430D+01-0.225D+01 0.110D+01
 Coeff:      0.214D+01 0.728D+01-0.724D+01-0.292D+01 0.208D+01
 Gap=     0.094 Goal=   None    Shift=    0.000
 Gap=     0.099 Goal=   None    Shift=    0.000
 RMSDP=2.51D-04 MaxDP=4.51D-03 DE= 5.05D-04 OVMax= 1.64D-02

 Cycle  49  Pass 1  IDiag  1:
 E= -379.317054911801     Delta-E=       -0.000771413184 Rises=F Damp=F
 DIIS: error= 7.39D-03 at cycle  49 NSaved=  18.
 NSaved=18 IEnMin=10 EnMin= -379.319546653053     IErMin= 5 ErrMin= 2.11D-04
 ErrMax= 7.39D-03  0.00D+00 EMaxC= 1.00D-01 BMatC= 4.33D-03 BMatP= 4.82D-06
 IDIUse=3 WtCom= 9.98D-01 WtEn= 2.11D-03
 Large coefficients: NSaved= 18 BigCof=   13.88 CofMax=   10.00 Det=-7.08D-11
 Inversion failed.  Reducing to 17 matrices.
 Coeff-Com: -0.712D+00 0.384D+00 0.845D+00 0.448D+01-0.838D+01 0.401D+01
 Coeff-Com: -0.202D+01-0.141D+01-0.803D+00 0.441D+01-0.248D+01 0.159D+01
 Coeff-Com:  0.216D+01-0.398D+01 0.480D+01 0.839D+00-0.273D+01
 Coeff-En:   0.000D+00 0.000D+00 0.000D+00 0.000D+00 0.000D+00 0.000D+00
 Coeff-En:   0.000D+00 0.000D+00 0.000D+00 0.000D+00 0.000D+00 0.000D+00
 Coeff-En:   0.000D+00 0.000D+00 0.000D+00 0.000D+00 0.100D+01
 Coeff:     -0.710D+00 0.383D+00 0.843D+00 0.447D+01-0.836D+01 0.400D+01
 Coeff:     -0.201D+01-0.141D+01-0.801D+00 0.440D+01-0.247D+01 0.158D+01
 Coeff:      0.215D+01-0.397D+01 0.479D+01 0.837D+00-0.272D+01
 Gap=     0.096 Goal=   None    Shift=    0.000
 Gap=     0.102 Goal=   None    Shift=    0.000
 RMSDP=2.18D-04 MaxDP=4.00D-03 DE=-7.71D-04 OVMax= 1.42D-02

 Cycle  50  Pass 1  IDiag  1:
 E= -379.316441645506     Delta-E=        0.000613266295 Rises=F Damp=F
 DIIS: error= 7.91D-03 at cycle  50 NSaved=  18.
 NSaved=18 IEnMin=10 EnMin= -379.319546653053     IErMin= 5 ErrMin= 2.11D-04
 ErrMax= 7.91D-03  0.00D+00 EMaxC= 1.00D-01 BMatC= 5.10D-03 BMatP= 4.82D-06
 IDIUse=3 WtCom= 9.98D-01 WtEn= 2.11D-03
 Large coefficients: NSaved= 18 BigCof=   14.43 CofMax=   10.00 Det=-2.36D-10
 Inversion failed.  Reducing to 17 matrices.
 Large coefficients: NSaved= 17 BigCof=   15.58 CofMax=   10.00 Det=-2.37D-10
 Inversion failed.  Reducing to 16 matrices.
 Rare condition: small coef for last iteration:  0.000D+00
 Coeff-Com: -0.676D+00 0.352D+00 0.923D+00 0.451D+01-0.810D+01 0.360D+01
 Coeff-Com: -0.161D+01-0.188D+01-0.693D+00 0.441D+01-0.222D+01 0.128D+01
 Coeff-Com:  0.147D+01 0.318D+00-0.115D+01 0.459D+00
 Coeff-En:   0.000D+00 0.000D+00 0.000D+00 0.000D+00 0.000D+00 0.000D+00
 Coeff-En:   0.000D+00 0.000D+00 0.000D+00 0.000D+00 0.000D+00 0.000D+00
 Coeff-En:   0.000D+00 0.000D+00 0.000D+00 0.100D+01
 Coeff:     -0.676D+00 0.352D+00 0.923D+00 0.451D+01-0.810D+01 0.360D+01
 Coeff:     -0.161D+01-0.188D+01-0.693D+00 0.441D+01-0.222D+01 0.128D+01
 Coeff:      0.147D+01 0.318D+00-0.115D+01 0.459D+00
 Gap=     0.096 Goal=   None    Shift=    0.000
 Gap=     0.101 Goal=   None    Shift=    0.000
 RMSDP=3.32D-05 MaxDP=6.38D-04 DE= 6.13D-04 OVMax= 2.22D-03

 Cycle  51  Pass 1  IDiag  1:
 E= -379.316475476893     Delta-E=       -0.000033831387 Rises=F Damp=F
 DIIS: error= 7.88D-03 at cycle  51 NSaved=  17.
 NSaved=17 IEnMin=10 EnMin= -379.319546653053     IErMin= 5 ErrMin= 2.11D-04
 ErrMax= 7.88D-03  0.00D+00 EMaxC= 1.00D-01 BMatC= 5.06D-03 BMatP= 4.82D-06
 IDIUse=3 WtCom= 9.98D-01 WtEn= 2.11D-03
 Large coefficients: NSaved= 17 BigCof=   11.62 CofMax=   10.00 Det=-4.57D-10
 Inversion failed.  Reducing to 16 matrices.
 Coeff-Com: -0.701D+00 0.374D+00 0.859D+00 0.448D+01-0.848D+01 0.404D+01
 Coeff-Com: -0.157D+01-0.192D+01-0.655D+00 0.447D+01-0.235D+01 0.432D+00
 Coeff-Com:  0.388D+01-0.136D+01 0.183D+01-0.232D+01
 Coeff-En:   0.000D+00 0.000D+00 0.000D+00 0.000D+00 0.000D+00 0.000D+00
 Coeff-En:   0.000D+00 0.000D+00 0.000D+00 0.000D+00 0.000D+00 0.000D+00
 Coeff-En:   0.000D+00 0.000D+00 0.000D+00 0.100D+01
 Coeff:     -0.699D+00 0.374D+00 0.857D+00 0.447D+01-0.846D+01 0.403D+01
 Coeff:     -0.157D+01-0.191D+01-0.653D+00 0.446D+01-0.235D+01 0.431D+00
 Coeff:      0.387D+01-0.136D+01 0.183D+01-0.231D+01
 Gap=     0.095 Goal=   None    Shift=    0.000
 Gap=     0.101 Goal=   None    Shift=    0.000
 RMSDP=7.82D-05 MaxDP=1.38D-03 DE=-3.38D-05 OVMax= 4.93D-03

 Cycle  52  Pass 1  IDiag  1:
 E= -379.316712063068     Delta-E=       -0.000236586175 Rises=F Damp=F
 DIIS: error= 7.69D-03 at cycle  52 NSaved=  17.
 NSaved=17 IEnMin=10 EnMin= -379.319546653053     IErMin= 5 ErrMin= 2.11D-04
 ErrMax= 7.69D-03  0.00D+00 EMaxC= 1.00D-01 BMatC= 4.75D-03 BMatP= 4.82D-06
 IDIUse=3 WtCom= 9.98D-01 WtEn= 2.11D-03
 Coeff-Com: -0.704D+00 0.367D+00 0.957D+00 0.469D+01-0.821D+01 0.332D+01
 Coeff-Com: -0.113D+01-0.247D+01-0.532D+00 0.464D+01-0.226D+01 0.219D+00
 Coeff-Com:  0.449D+01-0.662D+00 0.384D+01-0.319D+01-0.235D+01
 Coeff-En:   0.000D+00 0.000D+00 0.000D+00 0.000D+00 0.000D+00 0.000D+00
 Coeff-En:   0.000D+00 0.000D+00 0.000D+00 0.000D+00 0.000D+00 0.000D+00
 Coeff-En:   0.000D+00 0.000D+00 0.000D+00 0.000D+00 0.100D+01
 Coeff:     -0.702D+00 0.367D+00 0.955D+00 0.468D+01-0.819D+01 0.331D+01
 Coeff:     -0.113D+01-0.247D+01-0.531D+00 0.463D+01-0.225D+01 0.218D+00
 Coeff:      0.448D+01-0.661D+00 0.383D+01-0.318D+01-0.235D+01
 Gap=     0.097 Goal=   None    Shift=    0.000
 Gap=     0.103 Goal=   None    Shift=    0.000
 RMSDP=2.05D-04 MaxDP=3.70D-03 DE=-2.37D-04 OVMax= 1.33D-02

 Cycle  53  Pass 1  IDiag  1:
 E= -379.316076156005     Delta-E=        0.000635907063 Rises=F Damp=F
 DIIS: error= 8.19D-03 at cycle  53 NSaved=  18.
 NSaved=18 IEnMin=10 EnMin= -379.319546653053     IErMin= 5 ErrMin= 2.11D-04
 ErrMax= 8.19D-03  0.00D+00 EMaxC= 1.00D-01 BMatC= 5.54D-03 BMatP= 4.82D-06
 IDIUse=3 WtCom= 9.98D-01 WtEn= 2.11D-03
 Rare condition: small coef for last iteration:  0.000D+00
 Coeff-Com: -0.712D+00 0.371D+00 0.972D+00 0.506D+01-0.878D+01 0.371D+01
 Coeff-Com: -0.182D+01-0.191D+01-0.670D+00 0.466D+01-0.245D+01 0.716D+00
 Coeff-Com:  0.458D+01-0.360D+00 0.335D+01-0.338D+01-0.349D+01 0.116D+01
 Coeff-En:   0.000D+00 0.000D+00 0.000D+00 0.000D+00 0.000D+00 0.000D+00
 Coeff-En:   0.000D+00 0.000D+00 0.000D+00 0.000D+00 0.000D+00 0.000D+00
 Coeff-En:   0.000D+00 0.000D+00 0.000D+00 0.000D+00 0.000D+00 0.100D+01
 Coeff:     -0.712D+00 0.371D+00 0.972D+00 0.506D+01-0.878D+01 0.371D+01
 Coeff:     -0.182D+01-0.191D+01-0.670D+00 0.466D+01-0.245D+01 0.716D+00
 Coeff:      0.458D+01-0.360D+00 0.335D+01-0.338D+01-0.349D+01 0.116D+01
 Gap=     0.098 Goal=   None    Shift=    0.000
 Gap=     0.104 Goal=   None    Shift=    0.000
 RMSDP=1.34D-04 MaxDP=2.42D-03 DE= 6.36D-04 OVMax= 8.69D-03

 Cycle  54  Pass 1  IDiag  1:
 E= -379.315644550187     Delta-E=        0.000431605818 Rises=F Damp=F
 DIIS: error= 8.50D-03 at cycle  54 NSaved=  19.
 NSaved=19 IEnMin=10 EnMin= -379.319546653053     IErMin= 5 ErrMin= 2.11D-04
 ErrMax= 8.50D-03  0.00D+00 EMaxC= 1.00D-01 BMatC= 6.08D-03 BMatP= 4.82D-06
 IDIUse=3 WtCom= 9.98D-01 WtEn= 2.11D-03
 Rare condition: small coef for last iteration:  0.000D+00
 Coeff-Com: -0.719D+00 0.378D+00 0.987D+00 0.510D+01-0.894D+01 0.383D+01
 Coeff-Com: -0.190D+01-0.186D+01-0.675D+00 0.467D+01-0.242D+01 0.699D+00
 Coeff-Com:  0.452D+01 0.162D+00 0.352D+01-0.348D+01-0.463D+01 0.234D+01
 Coeff-Com: -0.572D+00
 Coeff-En:   0.000D+00 0.000D+00 0.000D+00 0.000D+00 0.000D+00 0.000D+00
 Coeff-En:   0.000D+00 0.000D+00 0.000D+00 0.000D+00 0.000D+00 0.000D+00
 Coeff-En:   0.000D+00 0.000D+00 0.000D+00 0.000D+00 0.000D+00 0.000D+00
 Coeff-En:   0.100D+01
 Coeff:     -0.719D+00 0.378D+00 0.987D+00 0.510D+01-0.894D+01 0.383D+01
 Coeff:     -0.190D+01-0.186D+01-0.675D+00 0.467D+01-0.242D+01 0.699D+00
 Coeff:      0.452D+01 0.162D+00 0.352D+01-0.348D+01-0.463D+01 0.234D+01
 Coeff:     -0.572D+00
 Gap=     0.097 Goal=   None    Shift=    0.000
 Gap=     0.104 Goal=   None    Shift=    0.000
 RMSDP=2.18D-06 MaxDP=4.23D-05 DE= 4.32D-04 OVMax= 1.86D-04

 Cycle  55  Pass 1  IDiag  1:
 E= -379.315643069320     Delta-E=        0.000001480867 Rises=F Damp=F
 DIIS: error= 8.50D-03 at cycle  55 NSaved=  20.
 NSaved=20 IEnMin=10 EnMin= -379.319546653053     IErMin= 5 ErrMin= 2.11D-04
 ErrMax= 8.50D-03  0.00D+00 EMaxC= 1.00D-01 BMatC= 6.08D-03 BMatP= 4.82D-06
 IDIUse=3 WtCom= 9.98D-01 WtEn= 2.11D-03
 Large coefficients: NSaved= 20 BigCof=   14.86 CofMax=   10.00 Det=-7.87D-11
 Inversion failed.  Reducing to 19 matrices.
 Large coefficients: NSaved= 19 BigCof=   15.16 CofMax=   10.00 Det=-8.08D-11
 Inversion failed.  Reducing to 18 matrices.
 Rare condition: small coef for last iteration:  0.000D+00
 Coeff-Com: -0.686D+00 0.360D+00 0.866D+00 0.480D+01-0.890D+01 0.434D+01
 Coeff-Com: -0.234D+01-0.123D+01-0.826D+00 0.442D+01-0.259D+01 0.127D+01
 Coeff-Com:  0.318D+01-0.146D+01-0.155D+01 0.630D+00 0.190D+01-0.119D+01
 Coeff-En:   0.000D+00 0.000D+00 0.000D+00 0.000D+00 0.000D+00 0.000D+00
 Coeff-En:   0.000D+00 0.000D+00 0.000D+00 0.000D+00 0.000D+00 0.000D+00
 Coeff-En:   0.000D+00 0.000D+00 0.000D+00 0.000D+00 0.000D+00 0.100D+01
 Coeff:     -0.686D+00 0.360D+00 0.866D+00 0.480D+01-0.890D+01 0.434D+01
 Coeff:     -0.234D+01-0.123D+01-0.826D+00 0.442D+01-0.259D+01 0.127D+01
 Coeff:      0.318D+01-0.146D+01-0.155D+01 0.630D+00 0.190D+01-0.119D+01
 Gap=     0.098 Goal=   None    Shift=    0.000
 Gap=     0.102 Goal=   None    Shift=    0.000
 RMSDP=2.00D-04 MaxDP=3.61D-03 DE= 1.48D-06 OVMax= 1.31D-02

 Cycle  56  Pass 1  IDiag  1:
 E= -379.316322611203     Delta-E=       -0.000679541883 Rises=F Damp=F
 DIIS: error= 8.00D-03 at cycle  56 NSaved=  19.
 NSaved=19 IEnMin=10 EnMin= -379.319546653053     IErMin= 5 ErrMin= 2.11D-04
 ErrMax= 8.00D-03  0.00D+00 EMaxC= 1.00D-01 BMatC= 5.25D-03 BMatP= 4.82D-06
 IDIUse=3 WtCom= 9.98D-01 WtEn= 2.11D-03
 Coeff-Com: -0.699D+00 0.373D+00 0.883D+00 0.496D+01-0.916D+01 0.445D+01
 Coeff-Com: -0.259D+01-0.966D+00-0.886D+00 0.441D+01-0.259D+01 0.128D+01
 Coeff-Com:  0.322D+01-0.456D+00-0.156D+01 0.344D+00 0.403D+01-0.249D+01
 Coeff-Com: -0.155D+01
 Coeff-En:   0.000D+00 0.000D+00 0.000D+00 0.000D+00 0.000D+00 0.000D+00
 Coeff-En:   0.000D+00 0.000D+00 0.000D+00 0.000D+00 0.000D+00 0.000D+00
 Coeff-En:   0.000D+00 0.000D+00 0.000D+00 0.000D+00 0.000D+00 0.000D+00
 Coeff-En:   0.100D+01
 Coeff:     -0.697D+00 0.372D+00 0.881D+00 0.495D+01-0.914D+01 0.445D+01
 Coeff:     -0.259D+01-0.964D+00-0.884D+00 0.440D+01-0.258D+01 0.127D+01
 Coeff:      0.321D+01-0.455D+00-0.156D+01 0.343D+00 0.402D+01-0.249D+01
 Coeff:     -0.154D+01
 Gap=     0.096 Goal=   None    Shift=    0.000
 Gap=     0.102 Goal=   None    Shift=    0.000
 RMSDP=3.25D-05 MaxDP=6.39D-04 DE=-6.80D-04 OVMax= 2.08D-03

 Cycle  57  Pass 1  IDiag  1:
 E= -379.316294628621     Delta-E=        0.000027982582 Rises=F Damp=F
 DIIS: error= 8.03D-03 at cycle  57 NSaved=  20.
 NSaved=20 IEnMin=10 EnMin= -379.319546653053     IErMin= 5 ErrMin= 2.11D-04
 ErrMax= 8.03D-03  0.00D+00 EMaxC= 1.00D-01 BMatC= 5.28D-03 BMatP= 4.82D-06
 IDIUse=3 WtCom= 9.98D-01 WtEn= 2.11D-03
 Large coefficients: NSaved= 20 BigCof=   29.23 CofMax=   10.00 Det=-4.47D-11
 Inversion failed.  Reducing to 19 matrices.
 Rare condition: small coef for last iteration:  0.000D+00
 Coeff-Com: -0.776D+00 0.430D+00 0.846D+00 0.541D+01-0.993D+01 0.497D+01
 Coeff-Com: -0.351D+01-0.183D+00-0.109D+01 0.460D+01-0.322D+01 0.152D+01
 Coeff-Com:  0.326D+01-0.218D+01-0.250D+01 0.387D+01 0.138D+01 0.313D+01
 Coeff-Com: -0.501D+01
 Coeff-En:   0.000D+00 0.000D+00 0.000D+00 0.000D+00 0.000D+00 0.000D+00
 Coeff-En:   0.000D+00 0.000D+00 0.000D+00 0.000D+00 0.000D+00 0.000D+00
 Coeff-En:   0.000D+00 0.000D+00 0.000D+00 0.000D+00 0.000D+00 0.000D+00
 Coeff-En:   0.100D+01
 Coeff:     -0.776D+00 0.430D+00 0.846D+00 0.541D+01-0.993D+01 0.497D+01
 Coeff:     -0.351D+01-0.183D+00-0.109D+01 0.460D+01-0.322D+01 0.152D+01
 Coeff:      0.326D+01-0.218D+01-0.250D+01 0.387D+01 0.138D+01 0.313D+01
 Coeff:     -0.501D+01
 Gap=     0.099 Goal=   None    Shift=    0.000
 Gap=     0.105 Goal=   None    Shift=    0.000
 RMSDP=2.30D-04 MaxDP=4.00D-03 DE= 2.80D-05 OVMax= 1.50D-02

 Cycle  58  Pass 1  IDiag  1:
 E= -379.315449563363     Delta-E=        0.000845065258 Rises=F Damp=F
 DIIS: error= 8.63D-03 at cycle  58 NSaved=  20.
 NSaved=20 IEnMin=10 EnMin= -379.319546653053     IErMin= 5 ErrMin= 2.11D-04
 ErrMax= 8.63D-03  0.00D+00 EMaxC= 1.00D-01 BMatC= 6.33D-03 BMatP= 4.82D-06
 IDIUse=3 WtCom= 9.98D-01 WtEn= 2.11D-03
 Large coefficients: NSaved= 20 BigCof=   11.42 CofMax=   10.00 Det=-8.13D-10
 Inversion failed.  Reducing to 19 matrices.
 Large coefficients: NSaved= 19 BigCof=   11.04 CofMax=   10.00 Det=-1.09D-09
 Inversion failed.  Reducing to 18 matrices.
 Large coefficients: NSaved= 18 BigCof=   11.08 CofMax=   10.00 Det=-1.34D-09
 Inversion failed.  Reducing to 17 matrices.
 Rare condition: small coef for last iteration:  0.000D+00
 Coeff-Com: -0.754D+00 0.411D+00 0.914D+00 0.504D+01-0.887D+01 0.407D+01
 Coeff-Com: -0.264D+01-0.102D+01-0.972D+00 0.458D+01-0.257D+01 0.131D+01
 Coeff-Com:  0.188D+01-0.990D+00 0.278D+01-0.320D+01 0.102D+01
 Coeff-En:   0.000D+00 0.000D+00 0.000D+00 0.000D+00 0.000D+00 0.000D+00
 Coeff-En:   0.000D+00 0.000D+00 0.000D+00 0.000D+00 0.000D+00 0.000D+00
 Coeff-En:   0.000D+00 0.000D+00 0.000D+00 0.000D+00 0.100D+01
 Coeff:     -0.754D+00 0.411D+00 0.914D+00 0.504D+01-0.887D+01 0.407D+01
 Coeff:     -0.264D+01-0.102D+01-0.972D+00 0.458D+01-0.257D+01 0.131D+01
 Coeff:      0.188D+01-0.990D+00 0.278D+01-0.320D+01 0.102D+01
 Gap=     0.098 Goal=   None    Shift=    0.000
 Gap=     0.104 Goal=   None    Shift=    0.000
 RMSDP=8.41D-05 MaxDP=1.41D-03 DE= 8.45D-04 OVMax= 4.97D-03

 Cycle  59  Pass 1  IDiag  1:
 E= -379.315672312311     Delta-E=       -0.000222748949 Rises=F Damp=F
 DIIS: error= 8.48D-03 at cycle  59 NSaved=  18.
 NSaved=18 IEnMin=10 EnMin= -379.319546653053     IErMin= 5 ErrMin= 2.11D-04
 ErrMax= 8.48D-03  0.00D+00 EMaxC= 1.00D-01 BMatC= 6.06D-03 BMatP= 4.82D-06
 IDIUse=3 WtCom= 9.98D-01 WtEn= 2.11D-03
 Large coefficients: NSaved= 18 BigCof=   11.37 CofMax=   10.00 Det=-1.04D-09
 Inversion failed.  Reducing to 17 matrices.
 Coeff-Com: -0.683D+00 0.356D+00 0.849D+00 0.461D+01-0.861D+01 0.418D+01
 Coeff-Com: -0.197D+01-0.160D+01-0.759D+00 0.446D+01-0.249D+01 0.103D+01
 Coeff-Com:  0.308D+01-0.218D+01 0.914D+00 0.663D+00-0.863D+00
 Coeff-En:   0.000D+00 0.000D+00 0.000D+00 0.000D+00 0.000D+00 0.000D+00
 Coeff-En:   0.000D+00 0.000D+00 0.000D+00 0.000D+00 0.000D+00 0.000D+00
 Coeff-En:   0.000D+00 0.000D+00 0.000D+00 0.000D+00 0.100D+01
 Coeff:     -0.682D+00 0.356D+00 0.847D+00 0.460D+01-0.859D+01 0.417D+01
 Coeff:     -0.196D+01-0.160D+01-0.757D+00 0.445D+01-0.249D+01 0.103D+01
 Coeff:      0.307D+01-0.217D+01 0.912D+00 0.661D+00-0.859D+00
 Gap=     0.097 Goal=   None    Shift=    0.000
 Gap=     0.101 Goal=   None    Shift=    0.000
 RMSDP=2.48D-04 MaxDP=4.37D-03 DE=-2.23D-04 OVMax= 1.61D-02

 Cycle  60  Pass 1  IDiag  1:
 E= -379.316515324405     Delta-E=       -0.000843012094 Rises=F Damp=F
 DIIS: error= 7.84D-03 at cycle  60 NSaved=  18.
 NSaved=18 IEnMin=10 EnMin= -379.319546653053     IErMin= 5 ErrMin= 2.11D-04
 ErrMax= 7.84D-03  0.00D+00 EMaxC= 1.00D-01 BMatC= 5.00D-03 BMatP= 4.82D-06
 IDIUse=3 WtCom= 9.98D-01 WtEn= 2.11D-03
 Large coefficients: NSaved= 18 BigCof=   10.13 CofMax=   10.00 Det=-1.99D-09
 Inversion failed.  Reducing to 17 matrices.
 Coeff-Com: -0.730D+00 0.402D+00 0.872D+00 0.453D+01-0.856D+01 0.407D+01
 Coeff-Com: -0.163D+01-0.185D+01-0.707D+00 0.448D+01-0.223D+01 0.513D+00
 Coeff-Com:  0.241D+01-0.137D+01 0.251D+01-0.195D+00-0.153D+01
 Coeff-En:   0.000D+00 0.000D+00 0.000D+00 0.000D+00 0.000D+00 0.000D+00
 Coeff-En:   0.000D+00 0.000D+00 0.000D+00 0.000D+00 0.000D+00 0.000D+00
 Coeff-En:   0.000D+00 0.000D+00 0.000D+00 0.000D+00 0.100D+01
 Coeff:     -0.729D+00 0.401D+00 0.870D+00 0.453D+01-0.854D+01 0.407D+01
 Coeff:     -0.162D+01-0.184D+01-0.705D+00 0.447D+01-0.222D+01 0.512D+00
 Coeff:      0.240D+01-0.136D+01 0.250D+01-0.195D+00-0.152D+01
 Gap=     0.095 Goal=   None    Shift=    0.000
 Gap=     0.100 Goal=   None    Shift=    0.000
 RMSDP=1.07D-04 MaxDP=1.93D-03 DE=-8.43D-04 OVMax= 6.78D-03

 Cycle  61  Pass 1  IDiag  1:
 E= -379.316775807774     Delta-E=       -0.000260483369 Rises=F Damp=F
 DIIS: error= 7.63D-03 at cycle  61 NSaved=  18.
 NSaved=18 IEnMin=10 EnMin= -379.319546653053     IErMin= 5 ErrMin= 2.11D-04
 ErrMax= 7.63D-03  0.00D+00 EMaxC= 1.00D-01 BMatC= 4.68D-03 BMatP= 4.82D-06
 IDIUse=3 WtCom= 9.98D-01 WtEn= 2.11D-03
 Large coefficients: NSaved= 18 BigCof=   12.83 CofMax=   10.00 Det=-8.55D-10
 Inversion failed.  Reducing to 17 matrices.
 Coeff-Com: -0.837D+00 0.480D+00 0.878D+00 0.520D+01-0.970D+01 0.455D+01
 Coeff-Com: -0.221D+01-0.147D+01-0.784D+00 0.482D+01-0.266D+01-0.852D-01
 Coeff-Com:  0.487D+01-0.239D+01 0.936D+01-0.521D+01-0.382D+01
 Coeff-En:   0.000D+00 0.000D+00 0.000D+00 0.000D+00 0.000D+00 0.000D+00
 Coeff-En:   0.000D+00 0.000D+00 0.000D+00 0.000D+00 0.000D+00 0.000D+00
 Coeff-En:   0.000D+00 0.000D+00 0.000D+00 0.000D+00 0.100D+01
 Coeff:     -0.835D+00 0.479D+00 0.876D+00 0.519D+01-0.968D+01 0.454D+01
 Coeff:     -0.220D+01-0.147D+01-0.782D+00 0.481D+01-0.265D+01-0.850D-01
 Coeff:      0.486D+01-0.238D+01 0.934D+01-0.520D+01-0.381D+01
 Gap=     0.098 Goal=   None    Shift=    0.000
 Gap=     0.104 Goal=   None    Shift=    0.000
 RMSDP=3.05D-04 MaxDP=5.46D-03 DE=-2.60D-04 OVMax= 1.97D-02

 Cycle  62  Pass 1  IDiag  1:
 E= -379.315802945430     Delta-E=        0.000972862344 Rises=F Damp=F
 DIIS: error= 8.40D-03 at cycle  62 NSaved=  18.
 NSaved=18 IEnMin=10 EnMin= -379.319546653053     IErMin= 5 ErrMin= 2.11D-04
 ErrMax= 8.40D-03  0.00D+00 EMaxC= 1.00D-01 BMatC= 5.87D-03 BMatP= 4.82D-06
 IDIUse=3 WtCom= 9.98D-01 WtEn= 2.11D-03
 Large coefficients: NSaved= 18 BigCof=   11.03 CofMax=   10.00 Det=-1.07D-09
 Inversion failed.  Reducing to 17 matrices.
 Rare condition: small coef for last iteration:  0.000D+00
 Coeff-Com: -0.686D+00 0.355D+00 0.885D+00 0.486D+01-0.883D+01 0.419D+01
 Coeff-Com: -0.237D+01-0.125D+01-0.819D+00 0.447D+01-0.267D+01 0.154D+01
 Coeff-Com:  0.293D+01-0.190D+01 0.173D+01-0.182D+01 0.383D+00
 Coeff-En:   0.000D+00 0.000D+00 0.000D+00 0.000D+00 0.000D+00 0.000D+00
 Coeff-En:   0.000D+00 0.000D+00 0.000D+00 0.000D+00 0.000D+00 0.000D+00
 Coeff-En:   0.000D+00 0.000D+00 0.000D+00 0.000D+00 0.100D+01
 Coeff:     -0.686D+00 0.355D+00 0.885D+00 0.486D+01-0.883D+01 0.419D+01
 Coeff:     -0.237D+01-0.125D+01-0.819D+00 0.447D+01-0.267D+01 0.154D+01
 Coeff:      0.293D+01-0.190D+01 0.173D+01-0.182D+01 0.383D+00
 Gap=     0.098 Goal=   None    Shift=    0.000
 Gap=     0.103 Goal=   None    Shift=    0.000
 RMSDP=6.30D-05 MaxDP=9.08D-04 DE= 9.73D-04 OVMax= 4.09D-03

 Cycle  63  Pass 1  IDiag  1:
 E= -379.316048528916     Delta-E=       -0.000245583485 Rises=F Damp=F
 DIIS: error= 8.21D-03 at cycle  63 NSaved=  18.
 NSaved=18 IEnMin=10 EnMin= -379.319546653053     IErMin= 5 ErrMin= 2.11D-04
 ErrMax= 8.21D-03  0.00D+00 EMaxC= 1.00D-01 BMatC= 5.59D-03 BMatP= 4.82D-06
 IDIUse=3 WtCom= 9.98D-01 WtEn= 2.11D-03
 Large coefficients: NSaved= 18 BigCof=   10.16 CofMax=   10.00 Det=-1.88D-09
 Inversion failed.  Reducing to 17 matrices.
 Coeff-Com: -0.745D+00 0.393D+00 0.974D+00 0.550D+01-0.952D+01 0.427D+01
 Coeff-Com: -0.263D+01-0.131D+01-0.867D+00 0.477D+01-0.267D+01 0.964D+00
 Coeff-Com:  0.405D+01-0.902D+00-0.150D+01 0.118D+01-0.943D+00
 Coeff-En:   0.000D+00 0.000D+00 0.000D+00 0.000D+00 0.000D+00 0.000D+00
 Coeff-En:   0.000D+00 0.000D+00 0.000D+00 0.000D+00 0.000D+00 0.000D+00
 Coeff-En:   0.000D+00 0.000D+00 0.000D+00 0.000D+00 0.100D+01
 Coeff:     -0.743D+00 0.392D+00 0.972D+00 0.549D+01-0.950D+01 0.426D+01
 Coeff:     -0.263D+01-0.131D+01-0.865D+00 0.476D+01-0.267D+01 0.962D+00
 Coeff:      0.404D+01-0.900D+00-0.149D+01 0.117D+01-0.939D+00
 Gap=     0.100 Goal=   None    Shift=    0.000
 Gap=     0.106 Goal=   None    Shift=    0.000
 RMSDP=2.42D-04 MaxDP=4.32D-03 DE=-2.46D-04 OVMax= 1.57D-02

 Cycle  64  Pass 1  IDiag  1:
 E= -379.315237208780     Delta-E=        0.000811320135 Rises=F Damp=F
 DIIS: error= 8.76D-03 at cycle  64 NSaved=  18.
 NSaved=18 IEnMin=10 EnMin= -379.319546653053     IErMin= 5 ErrMin= 2.11D-04
 ErrMax= 8.76D-03  0.00D+00 EMaxC= 1.00D-01 BMatC= 6.57D-03 BMatP= 4.82D-06
 IDIUse=3 WtCom= 9.98D-01 WtEn= 2.11D-03
 Rare condition: small coef for last iteration:  0.000D+00
 Coeff-Com: -0.796D+00 0.424D+00 0.101D+01 0.573D+01-0.969D+01 0.416D+01
 Coeff-Com: -0.255D+01-0.162D+01-0.813D+00 0.504D+01-0.274D+01 0.591D+00
 Coeff-Com:  0.446D+01-0.177D+01-0.112D+01 0.161D+01 0.112D+00-0.103D+01
 Coeff-En:   0.000D+00 0.000D+00 0.000D+00 0.000D+00 0.000D+00 0.000D+00
 Coeff-En:   0.000D+00 0.000D+00 0.000D+00 0.000D+00 0.000D+00 0.000D+00
 Coeff-En:   0.000D+00 0.000D+00 0.000D+00 0.000D+00 0.000D+00 0.100D+01
 Coeff:     -0.796D+00 0.424D+00 0.101D+01 0.573D+01-0.969D+01 0.416D+01
 Coeff:     -0.255D+01-0.162D+01-0.813D+00 0.504D+01-0.274D+01 0.591D+00
 Coeff:      0.446D+01-0.177D+01-0.112D+01 0.161D+01 0.112D+00-0.103D+01
 Gap=     0.097 Goal=   None    Shift=    0.000
 Gap=     0.108 Goal=   None    Shift=    0.000
 RMSDP=1.58D-04 MaxDP=2.66D-03 DE= 8.11D-04 OVMax= 1.03D-02

 Cycle  65  Pass 1  IDiag  1:
 E= -379.314527327296     Delta-E=        0.000709881485 Rises=F Damp=F
 DIIS: error= 9.19D-03 at cycle  65 NSaved=  19.
 NSaved=19 IEnMin=10 EnMin= -379.319546653053     IErMin= 5 ErrMin= 2.11D-04
 ErrMax= 9.19D-03  0.00D+00 EMaxC= 1.00D-01 BMatC= 7.43D-03 BMatP= 4.82D-06
 IDIUse=3 WtCom= 9.98D-01 WtEn= 2.11D-03
 Rare condition: small coef for last iteration:  0.000D+00
 Coeff-Com: -0.804D+00 0.432D+00 0.102D+01 0.594D+01-0.977D+01 0.405D+01
 Coeff-Com: -0.285D+01-0.128D+01-0.913D+00 0.501D+01-0.281D+01 0.691D+00
 Coeff-Com:  0.445D+01-0.102D+01-0.128D+01 0.152D+01-0.438D+00-0.164D+01
 Coeff-Com:  0.680D+00
 Coeff-En:   0.000D+00 0.000D+00 0.000D+00 0.000D+00 0.000D+00 0.000D+00
 Coeff-En:   0.000D+00 0.000D+00 0.000D+00 0.000D+00 0.000D+00 0.000D+00
 Coeff-En:   0.000D+00 0.000D+00 0.000D+00 0.000D+00 0.000D+00 0.000D+00
 Coeff-En:   0.100D+01
 Coeff:     -0.804D+00 0.432D+00 0.102D+01 0.594D+01-0.977D+01 0.405D+01
 Coeff:     -0.285D+01-0.128D+01-0.913D+00 0.501D+01-0.281D+01 0.691D+00
 Coeff:      0.445D+01-0.102D+01-0.128D+01 0.152D+01-0.438D+00-0.164D+01
 Coeff:      0.680D+00
 Gap=     0.097 Goal=   None    Shift=    0.000
 Gap=     0.109 Goal=   None    Shift=    0.000
 RMSDP=8.29D-05 MaxDP=1.55D-03 DE= 7.10D-04 OVMax= 5.32D-03

 Cycle  66  Pass 1  IDiag  1:
[...]
 IDIUse=3 WtCom= 9.99D-01 WtEn= 1.02D-03
 Rare condition: small coef for last iteration:  0.000D+00
 Coeff-Com: -0.766D-01 0.247D+00-0.169D+00 0.305D+00-0.972D-01-0.212D+01
 Coeff-Com:  0.378D+01-0.179D+00-0.614D+01 0.614D+01-0.797D+01 0.763D+01
 Coeff-Com: -0.397D+01 0.371D+01-0.479D+00 0.545D+00 0.188D+01-0.225D+01
 Coeff-Com:  0.444D+01-0.424D+01
 Coeff-En:   0.000D+00 0.000D+00 0.000D+00 0.000D+00 0.000D+00 0.000D+00
 Coeff-En:   0.000D+00 0.000D+00 0.000D+00 0.000D+00 0.000D+00 0.000D+00
 Coeff-En:   0.000D+00 0.000D+00 0.000D+00 0.000D+00 0.000D+00 0.000D+00
 Coeff-En:   0.000D+00 0.100D+01
 Coeff:     -0.766D-01 0.247D+00-0.169D+00 0.305D+00-0.972D-01-0.212D+01
 Coeff:      0.378D+01-0.179D+00-0.614D+01 0.614D+01-0.797D+01 0.763D+01
 Coeff:     -0.397D+01 0.371D+01-0.479D+00 0.545D+00 0.188D+01-0.225D+01
 Coeff:      0.444D+01-0.424D+01
 Gap=     0.088 Goal=   None    Shift=    0.000
 Gap=     0.091 Goal=   None    Shift=    0.000
 RMSDP=2.31D-05 MaxDP=3.59D-04 DE= 1.57D-05 OVMax= 1.25D-03

 Cycle 187  Pass 1  IDiag  1:
 E= -379.320123034909     Delta-E=        0.000009000822 Rises=F Damp=F
 DIIS: error= 3.49D-03 at cycle 187 NSaved=  20.
 NSaved=20 IEnMin=14 EnMin= -379.320903173291     IErMin= 9 ErrMin= 1.02D-04
 ErrMax= 3.49D-03  0.00D+00 EMaxC= 1.00D-01 BMatC= 1.25D-03 BMatP= 1.76D-06
 IDIUse=3 WtCom= 9.99D-01 WtEn= 1.02D-03
 Rare condition: small coef for last iteration:  0.000D+00
 Coeff-Com: -0.795D-01 0.260D+00-0.178D+00 0.315D+00-0.116D+00-0.213D+01
 Coeff-Com:  0.382D+01-0.126D+00-0.631D+01 0.629D+01-0.800D+01 0.771D+01
 Coeff-Com: -0.411D+01 0.375D+01-0.381D+00 0.919D+00 0.194D+01-0.267D+01
 Coeff-Com:  0.131D+01-0.121D+01
 Coeff-En:   0.000D+00 0.000D+00 0.000D+00 0.000D+00 0.000D+00 0.000D+00
 Coeff-En:   0.000D+00 0.000D+00 0.000D+00 0.000D+00 0.000D+00 0.000D+00
 Coeff-En:   0.000D+00 0.000D+00 0.000D+00 0.000D+00 0.000D+00 0.000D+00
 Coeff-En:   0.000D+00 0.100D+01
 Coeff:     -0.795D-01 0.260D+00-0.178D+00 0.315D+00-0.116D+00-0.213D+01
 Coeff:      0.382D+01-0.126D+00-0.631D+01 0.629D+01-0.800D+01 0.771D+01
 Coeff:     -0.411D+01 0.375D+01-0.381D+00 0.919D+00 0.194D+01-0.267D+01
 Coeff:      0.131D+01-0.121D+01
 Gap=     0.088 Goal=   None    Shift=    0.000
 Gap=     0.091 Goal=   None    Shift=    0.000
 RMSDP=5.05D-05 MaxDP=8.51D-04 DE= 9.00D-06 OVMax= 3.20D-03

 Cycle 188  Pass 1  IDiag  1:
 E= -379.320109869591     Delta-E=        0.000013165318 Rises=F Damp=F
 DIIS: error= 3.52D-03 at cycle 188 NSaved=  20.
 NSaved=20 IEnMin=14 EnMin= -379.320903173291     IErMin= 9 ErrMin= 1.02D-04
 ErrMax= 3.52D-03  0.00D+00 EMaxC= 1.00D-01 BMatC= 1.26D-03 BMatP= 1.76D-06
 IDIUse=3 WtCom= 9.99D-01 WtEn= 1.02D-03
 Rare condition: small coef for last iteration:  0.000D+00
 Coeff-Com: -0.781D-01 0.254D+00-0.173D+00 0.313D+00-0.104D+00-0.211D+01
 Coeff-Com:  0.376D+01-0.153D+00-0.615D+01 0.615D+01-0.794D+01 0.772D+01
 Coeff-Com: -0.409D+01 0.370D+01-0.478D+00 0.104D+01 0.170D+01-0.173D+01
 Coeff-Com: -0.337D+00-0.288D+00
 Coeff-En:   0.000D+00 0.000D+00 0.000D+00 0.000D+00 0.000D+00 0.000D+00
 Coeff-En:   0.000D+00 0.000D+00 0.000D+00 0.000D+00 0.000D+00 0.000D+00
 Coeff-En:   0.000D+00 0.000D+00 0.000D+00 0.000D+00 0.000D+00 0.000D+00
 Coeff-En:   0.000D+00 0.100D+01
 Coeff:     -0.781D-01 0.254D+00-0.173D+00 0.313D+00-0.104D+00-0.211D+01
 Coeff:      0.376D+01-0.153D+00-0.615D+01 0.615D+01-0.794D+01 0.772D+01
 Coeff:     -0.409D+01 0.370D+01-0.478D+00 0.104D+01 0.170D+01-0.173D+01
 Coeff:     -0.337D+00-0.288D+00
 Gap=     0.088 Goal=   None    Shift=    0.000
 Gap=     0.091 Goal=   None    Shift=    0.000
 RMSDP=3.07D-05 MaxDP=5.24D-04 DE= 1.32D-05 OVMax= 1.83D-03

 Cycle 189  Pass 1  IDiag  1:
 E= -379.320127076392     Delta-E=       -0.000017206802 Rises=F Damp=F
 DIIS: error= 3.49D-03 at cycle 189 NSaved=  20.
 NSaved=20 IEnMin=14 EnMin= -379.320903173291     IErMin= 9 ErrMin= 1.02D-04
 ErrMax= 3.49D-03  0.00D+00 EMaxC= 1.00D-01 BMatC= 1.24D-03 BMatP= 1.76D-06
 IDIUse=3 WtCom= 9.99D-01 WtEn= 1.02D-03
 Coeff-Com: -0.789D-01 0.255D+00-0.173D+00 0.323D+00-0.118D+00-0.213D+01
 Coeff-Com:  0.380D+01-0.188D+00-0.609D+01 0.609D+01-0.793D+01 0.769D+01
 Coeff-Com: -0.406D+01 0.370D+01-0.575D+00 0.545D+00 0.242D+01-0.152D+01
 Coeff-Com:  0.437D+00-0.140D+01
 Coeff-En:   0.000D+00 0.000D+00 0.000D+00 0.000D+00 0.000D+00 0.000D+00
 Coeff-En:   0.000D+00 0.000D+00 0.000D+00 0.000D+00 0.000D+00 0.000D+00
 Coeff-En:   0.000D+00 0.000D+00 0.000D+00 0.000D+00 0.000D+00 0.000D+00
 Coeff-En:   0.000D+00 0.100D+01
 Coeff:     -0.788D-01 0.255D+00-0.173D+00 0.323D+00-0.118D+00-0.212D+01
 Coeff:      0.379D+01-0.188D+00-0.608D+01 0.609D+01-0.793D+01 0.768D+01
 Coeff:     -0.405D+01 0.370D+01-0.574D+00 0.544D+00 0.242D+01-0.152D+01
 Coeff:      0.436D+00-0.140D+01
 Gap=     0.088 Goal=   None    Shift=    0.000
 Gap=     0.091 Goal=   None    Shift=    0.000
 RMSDP=2.08D-05 MaxDP=2.56D-04 DE=-1.72D-05 OVMax= 1.26D-03

 Cycle 190  Pass 1  IDiag  1:
 E= -379.320147126017     Delta-E=       -0.000020049625 Rises=F Damp=F
 DIIS: error= 3.45D-03 at cycle 190 NSaved=  20.
 NSaved=20 IEnMin=14 EnMin= -379.320903173291     IErMin= 9 ErrMin= 1.02D-04
 ErrMax= 3.45D-03  0.00D+00 EMaxC= 1.00D-01 BMatC= 1.21D-03 BMatP= 1.76D-06
 IDIUse=3 WtCom= 9.99D-01 WtEn= 1.02D-03
 Coeff-Com: -0.798D-01 0.259D+00-0.176D+00 0.319D+00-0.125D+00-0.210D+01
 Coeff-Com:  0.377D+01-0.145D+00-0.615D+01 0.615D+01-0.795D+01 0.768D+01
 Coeff-Com: -0.408D+01 0.373D+01-0.536D+00 0.624D+00 0.223D+01-0.190D+01
 Coeff-Com: -0.166D+01 0.115D+01
 Coeff-En:   0.000D+00 0.000D+00 0.000D+00 0.000D+00 0.000D+00 0.000D+00
 Coeff-En:   0.000D+00 0.000D+00 0.000D+00 0.000D+00 0.000D+00 0.000D+00
 Coeff-En:   0.000D+00 0.000D+00 0.000D+00 0.000D+00 0.000D+00 0.000D+00
 Coeff-En:   0.000D+00 0.100D+01
 Coeff:     -0.797D-01 0.259D+00-0.176D+00 0.319D+00-0.125D+00-0.210D+01
 Coeff:      0.376D+01-0.145D+00-0.614D+01 0.614D+01-0.794D+01 0.767D+01
 Coeff:     -0.408D+01 0.373D+01-0.536D+00 0.623D+00 0.223D+01-0.190D+01
 Coeff:     -0.166D+01 0.115D+01
 Gap=     0.088 Goal=   None    Shift=    0.000
 Gap=     0.091 Goal=   None    Shift=    0.000
 RMSDP=1.28D-05 MaxDP=1.55D-04 DE=-2.00D-05 OVMax= 7.18D-04

 Cycle 191  Pass 1  IDiag  1:
 E= -379.320144522092     Delta-E=        0.000002603925 Rises=F Damp=F
 DIIS: error= 3.46D-03 at cycle 191 NSaved=  20.
 NSaved=20 IEnMin=14 EnMin= -379.320903173291     IErMin= 9 ErrMin= 1.02D-04
 ErrMax= 3.46D-03  0.00D+00 EMaxC= 1.00D-01 BMatC= 1.22D-03 BMatP= 1.76D-06
 IDIUse=3 WtCom= 9.99D-01 WtEn= 1.02D-03
 Rare condition: small coef for last iteration:  0.000D+00
 Coeff-Com: -0.778D-01 0.255D+00-0.175D+00 0.325D+00-0.106D+00-0.222D+01
 Coeff-Com:  0.397D+01-0.221D+00-0.628D+01 0.626D+01-0.802D+01 0.773D+01
 Coeff-Com: -0.407D+01 0.373D+01-0.458D+00 0.599D+00 0.234D+01-0.220D+01
 Coeff-Com: -0.244D+01 0.207D+01
 Coeff-En:   0.000D+00 0.000D+00 0.000D+00 0.000D+00 0.000D+00 0.000D+00
 Coeff-En:   0.000D+00 0.000D+00 0.000D+00 0.000D+00 0.000D+00 0.000D+00
 Coeff-En:   0.000D+00 0.000D+00 0.000D+00 0.000D+00 0.000D+00 0.000D+00
 Coeff-En:   0.000D+00 0.100D+01
 Coeff:     -0.778D-01 0.255D+00-0.175D+00 0.325D+00-0.106D+00-0.222D+01
 Coeff:      0.397D+01-0.221D+00-0.628D+01 0.626D+01-0.802D+01 0.773D+01
 Coeff:     -0.407D+01 0.373D+01-0.458D+00 0.599D+00 0.234D+01-0.220D+01
 Coeff:     -0.244D+01 0.207D+01
 Gap=     0.088 Goal=   None    Shift=    0.000
 Gap=     0.091 Goal=   None    Shift=    0.000
 RMSDP=2.75D-05 MaxDP=4.32D-04 DE= 2.60D-06 OVMax= 1.54D-03

 Cycle 192  Pass 1  IDiag  1:
 E= -379.320095842975     Delta-E=        0.000048679117 Rises=F Damp=F
 DIIS: error= 3.54D-03 at cycle 192 NSaved=  20.
 NSaved=20 IEnMin=14 EnMin= -379.320903173291     IErMin= 9 ErrMin= 1.02D-04
 ErrMax= 3.54D-03  0.00D+00 EMaxC= 1.00D-01 BMatC= 1.28D-03 BMatP= 1.76D-06
 IDIUse=3 WtCom= 9.99D-01 WtEn= 1.02D-03
 Rare condition: small coef for last iteration:  0.000D+00
 Coeff-Com: -0.799D-01 0.261D+00-0.178D+00 0.318D+00-0.134D+00-0.209D+01
 Coeff-Com:  0.379D+01-0.127D+00-0.626D+01 0.626D+01-0.802D+01 0.773D+01
 Coeff-Com: -0.412D+01 0.375D+01-0.471D+00 0.830D+00 0.166D+01-0.226D+01
 Coeff-Com:  0.151D+01-0.138D+01
 Coeff-En:   0.000D+00 0.000D+00 0.000D+00 0.000D+00 0.000D+00 0.000D+00
 Coeff-En:   0.000D+00 0.000D+00 0.000D+00 0.000D+00 0.000D+00 0.000D+00
 Coeff-En:   0.000D+00 0.000D+00 0.000D+00 0.000D+00 0.000D+00 0.000D+00
 Coeff-En:   0.000D+00 0.100D+01
 Coeff:     -0.799D-01 0.261D+00-0.178D+00 0.318D+00-0.134D+00-0.209D+01
 Coeff:      0.379D+01-0.127D+00-0.626D+01 0.626D+01-0.802D+01 0.773D+01
 Coeff:     -0.412D+01 0.375D+01-0.471D+00 0.830D+00 0.166D+01-0.226D+01
 Coeff:      0.151D+01-0.138D+01
 Gap=     0.088 Goal=   None    Shift=    0.000
 Gap=     0.091 Goal=   None    Shift=    0.000
 RMSDP=2.88D-05 MaxDP=5.94D-04 DE= 4.87D-05 OVMax= 1.70D-03

 Cycle 193  Pass 1  IDiag  1:
 E= -379.320126541171     Delta-E=       -0.000030698195 Rises=F Damp=F
 DIIS: error= 3.49D-03 at cycle 193 NSaved=  20.
 NSaved=20 IEnMin=14 EnMin= -379.320903173291     IErMin= 9 ErrMin= 1.02D-04
 ErrMax= 3.49D-03  0.00D+00 EMaxC= 1.00D-01 BMatC= 1.24D-03 BMatP= 1.76D-06
 IDIUse=3 WtCom= 9.99D-01 WtEn= 1.02D-03
 Coeff-Com: -0.780D-01 0.255D+00-0.174D+00 0.314D+00-0.101D+00-0.215D+01
 Coeff-Com:  0.383D+01-0.153D+00-0.626D+01 0.624D+01-0.798D+01 0.774D+01
 Coeff-Com: -0.410D+01 0.372D+01-0.424D+00 0.107D+01 0.169D+01-0.212D+01
 Coeff-Com: -0.141D+00-0.169D+00
 Coeff-En:   0.000D+00 0.000D+00 0.000D+00 0.000D+00 0.000D+00 0.000D+00
 Coeff-En:   0.000D+00 0.000D+00 0.000D+00 0.000D+00 0.000D+00 0.000D+00
 Coeff-En:   0.000D+00 0.000D+00 0.000D+00 0.000D+00 0.000D+00 0.000D+00
 Coeff-En:   0.000D+00 0.100D+01
 Coeff:     -0.780D-01 0.255D+00-0.174D+00 0.313D+00-0.101D+00-0.215D+01
 Coeff:      0.383D+01-0.153D+00-0.625D+01 0.623D+01-0.798D+01 0.773D+01
 Coeff:     -0.410D+01 0.372D+01-0.424D+00 0.106D+01 0.169D+01-0.212D+01
 Coeff:     -0.141D+00-0.168D+00
 Gap=     0.088 Goal=   None    Shift=    0.000
 Gap=     0.091 Goal=   None    Shift=    0.000
 RMSDP=2.76D-05 MaxDP=3.11D-04 DE=-3.07D-05 OVMax= 1.44D-03

 Cycle 194  Pass 1  IDiag  1:
 E= -379.320116607147     Delta-E=        0.000009934023 Rises=F Damp=F
 DIIS: error= 3.51D-03 at cycle 194 NSaved=  20.
 NSaved=20 IEnMin=14 EnMin= -379.320903173291     IErMin= 9 ErrMin= 1.02D-04
 ErrMax= 3.51D-03  0.00D+00 EMaxC= 1.00D-01 BMatC= 1.25D-03 BMatP= 1.76D-06
 IDIUse=3 WtCom= 9.99D-01 WtEn= 1.02D-03
 Rare condition: small coef for last iteration:  0.000D+00
 Coeff-Com: -0.770D-01 0.254D+00-0.173D+00 0.318D+00-0.847D-01-0.224D+01
 Coeff-Com:  0.395D+01-0.221D+00-0.623D+01 0.620D+01-0.800D+01 0.775D+01
 Coeff-Com: -0.409D+01 0.373D+01-0.538D+00 0.769D+00 0.185D+01-0.137D+01
 Coeff-Com:  0.347D+00-0.116D+01
 Coeff-En:   0.000D+00 0.000D+00 0.000D+00 0.000D+00 0.000D+00 0.000D+00
 Coeff-En:   0.000D+00 0.000D+00 0.000D+00 0.000D+00 0.000D+00 0.000D+00
 Coeff-En:   0.000D+00 0.000D+00 0.000D+00 0.000D+00 0.000D+00 0.000D+00
 Coeff-En:   0.000D+00 0.100D+01
 Coeff:     -0.770D-01 0.254D+00-0.173D+00 0.318D+00-0.847D-01-0.224D+01
 Coeff:      0.395D+01-0.221D+00-0.623D+01 0.620D+01-0.800D+01 0.775D+01
 Coeff:     -0.409D+01 0.373D+01-0.538D+00 0.769D+00 0.185D+01-0.137D+01
 Coeff:      0.347D+00-0.116D+01
 Gap=     0.088 Goal=   None    Shift=    0.000
 Gap=     0.091 Goal=   None    Shift=    0.000
 RMSDP=2.72D-05 MaxDP=3.11D-04 DE= 9.93D-06 OVMax= 1.55D-03

 Cycle 195  Pass 1  IDiag  1:
 E= -379.320099531705     Delta-E=        0.000017075443 Rises=F Damp=F
 DIIS: error= 3.53D-03 at cycle 195 NSaved=  20.
 NSaved=20 IEnMin=14 EnMin= -379.320903173291     IErMin= 9 ErrMin= 1.02D-04
 ErrMax= 3.53D-03  0.00D+00 EMaxC= 1.00D-01 BMatC= 1.28D-03 BMatP= 1.76D-06
 IDIUse=3 WtCom= 9.99D-01 WtEn= 1.02D-03
 Rare condition: small coef for last iteration:  0.000D+00
 Coeff-Com: -0.758D-01 0.254D+00-0.173D+00 0.314D+00-0.576D-01-0.232D+01
 Coeff-Com:  0.406D+01-0.236D+00-0.633D+01 0.627D+01-0.801D+01 0.773D+01
 Coeff-Com: -0.408D+01 0.375D+01-0.472D+00 0.818D+00 0.186D+01-0.163D+01
 Coeff-Com: -0.142D+01 0.743D+00
 Coeff-En:   0.000D+00 0.000D+00 0.000D+00 0.000D+00 0.000D+00 0.000D+00
 Coeff-En:   0.000D+00 0.000D+00 0.000D+00 0.000D+00 0.000D+00 0.000D+00
 Coeff-En:   0.000D+00 0.000D+00 0.000D+00 0.000D+00 0.000D+00 0.000D+00
 Coeff-En:   0.000D+00 0.100D+01
 Coeff:     -0.758D-01 0.254D+00-0.173D+00 0.314D+00-0.576D-01-0.232D+01
 Coeff:      0.406D+01-0.236D+00-0.633D+01 0.627D+01-0.801D+01 0.773D+01
 Coeff:     -0.408D+01 0.375D+01-0.472D+00 0.818D+00 0.186D+01-0.163D+01
 Coeff:     -0.142D+01 0.743D+00
 Gap=     0.088 Goal=   None    Shift=    0.000
 Gap=     0.091 Goal=   None    Shift=    0.000
 RMSDP=2.28D-05 MaxDP=4.89D-04 DE= 1.71D-05 OVMax= 1.42D-03

 Cycle 196  Pass 1  IDiag  1:
 E= -379.320068527196     Delta-E=        0.000031004509 Rises=F Damp=F
 DIIS: error= 3.58D-03 at cycle 196 NSaved=  20.
 NSaved=20 IEnMin=14 EnMin= -379.320903173291     IErMin= 9 ErrMin= 1.02D-04
 ErrMax= 3.58D-03  0.00D+00 EMaxC= 1.00D-01 BMatC= 1.32D-03 BMatP= 1.76D-06
 IDIUse=3 WtCom= 9.99D-01 WtEn= 1.02D-03
 Large coefficients: NSaved= 20 BigCof=   10.41 CofMax=   10.00 Det=-9.82D-11
 Inversion failed.  Reducing to 19 matrices.
 Rare condition: small coef for last iteration:  0.000D+00
 Coeff-Com: -0.806D-01 0.246D+00-0.165D+00 0.313D+00-0.115D+00-0.196D+01
 Coeff-Com:  0.351D+01-0.196D+00-0.582D+01 0.601D+01-0.795D+01 0.803D+01
 Coeff-Com: -0.450D+01 0.376D+01-0.447D+00 0.246D+00 0.189D+01-0.655D+01
 Coeff-Com:  0.477D+01
 Coeff-En:   0.000D+00 0.000D+00 0.000D+00 0.000D+00 0.000D+00 0.000D+00
 Coeff-En:   0.000D+00 0.000D+00 0.000D+00 0.000D+00 0.000D+00 0.000D+00
 Coeff-En:   0.000D+00 0.000D+00 0.000D+00 0.000D+00 0.000D+00 0.000D+00
 Coeff-En:   0.100D+01
 Coeff:     -0.806D-01 0.246D+00-0.165D+00 0.313D+00-0.115D+00-0.196D+01
 Coeff:      0.351D+01-0.196D+00-0.582D+01 0.601D+01-0.795D+01 0.803D+01
 Coeff:     -0.450D+01 0.376D+01-0.447D+00 0.246D+00 0.189D+01-0.655D+01
 Coeff:      0.477D+01
 Gap=     0.088 Goal=   None    Shift=    0.000
 Gap=     0.091 Goal=   None    Shift=    0.000
 RMSDP=9.52D-05 MaxDP=2.03D-03 DE= 3.10D-05 OVMax= 6.10D-03

 Cycle 197  Pass 1  IDiag  1:
 E= -379.320160632103     Delta-E=       -0.000092104908 Rises=F Damp=F
 DIIS: error= 3.44D-03 at cycle 197 NSaved=  20.
 NSaved=20 IEnMin=14 EnMin= -379.320903173291     IErMin= 9 ErrMin= 1.02D-04
 ErrMax= 3.44D-03  0.00D+00 EMaxC= 1.00D-01 BMatC= 1.19D-03 BMatP= 1.76D-06
 IDIUse=3 WtCom= 9.99D-01 WtEn= 1.02D-03
 Coeff-Com: -0.790D-01 0.243D+00-0.164D+00 0.311D+00-0.116D+00-0.195D+01
 Coeff-Com:  0.349D+01-0.209D+00-0.576D+01 0.596D+01-0.796D+01 0.804D+01
 Coeff-Com: -0.447D+01 0.373D+01-0.374D+00 0.354D-01 0.217D+01-0.660D+01
 Coeff-Com:  0.516D+01-0.471D+00
 Coeff-En:   0.000D+00 0.000D+00 0.000D+00 0.000D+00 0.000D+00 0.000D+00
 Coeff-En:   0.000D+00 0.000D+00 0.000D+00 0.000D+00 0.000D+00 0.000D+00
 Coeff-En:   0.000D+00 0.000D+00 0.000D+00 0.000D+00 0.000D+00 0.000D+00
 Coeff-En:   0.000D+00 0.100D+01
 Coeff:     -0.789D-01 0.243D+00-0.163D+00 0.310D+00-0.116D+00-0.195D+01
 Coeff:      0.349D+01-0.208D+00-0.575D+01 0.596D+01-0.796D+01 0.804D+01
 Coeff:     -0.446D+01 0.373D+01-0.374D+00 0.353D-01 0.217D+01-0.659D+01
 Coeff:      0.515D+01-0.470D+00
 Gap=     0.088 Goal=   None    Shift=    0.000
 Gap=     0.091 Goal=   None    Shift=    0.000
 RMSDP=1.06D-05 MaxDP=2.59D-04 DE=-9.21D-05 OVMax= 6.34D-04

 Cycle 198  Pass 1  IDiag  1:
 E= -379.320166913899     Delta-E=       -0.000006281796 Rises=F Damp=F
 DIIS: error= 3.42D-03 at cycle 198 NSaved=  20.
 NSaved=20 IEnMin=14 EnMin= -379.320903173291     IErMin= 9 ErrMin= 1.02D-04
 ErrMax= 3.42D-03  0.00D+00 EMaxC= 1.00D-01 BMatC= 1.19D-03 BMatP= 1.76D-06
 IDIUse=3 WtCom= 9.99D-01 WtEn= 1.02D-03
 Coeff-Com: -0.881D-01 0.264D+00-0.175D+00 0.313D+00-0.179D+00-0.169D+01
 Coeff-Com:  0.311D+01 0.541D-01-0.585D+01 0.605D+01-0.789D+01 0.798D+01
 Coeff-Com: -0.458D+01 0.379D+01-0.576D+00 0.120D+01 0.176D+00-0.168D+01
 Coeff-Com: -0.226D+01 0.303D+01
 Coeff-En:   0.000D+00 0.000D+00 0.000D+00 0.000D+00 0.000D+00 0.000D+00
 Coeff-En:   0.000D+00 0.000D+00 0.000D+00 0.000D+00 0.000D+00 0.000D+00
 Coeff-En:   0.000D+00 0.000D+00 0.000D+00 0.000D+00 0.000D+00 0.000D+00
 Coeff-En:   0.000D+00 0.100D+01
 Coeff:     -0.880D-01 0.264D+00-0.175D+00 0.313D+00-0.179D+00-0.168D+01
 Coeff:      0.310D+01 0.540D-01-0.585D+01 0.604D+01-0.788D+01 0.797D+01
 Coeff:     -0.458D+01 0.379D+01-0.576D+00 0.120D+01 0.176D+00-0.168D+01
 Coeff:     -0.226D+01 0.303D+01
 Gap=     0.087 Goal=   None    Shift=    0.000
 Gap=     0.090 Goal=   None    Shift=    0.000
 RMSDP=5.92D-05 MaxDP=1.23D-03 DE=-6.28D-06 OVMax= 3.65D-03

 Cycle 199  Pass 1  IDiag  1:
 E= -379.320240455655     Delta-E=       -0.000073541756 Rises=F Damp=F
 DIIS: error= 3.29D-03 at cycle 199 NSaved=  20.
 NSaved=20 IEnMin=14 EnMin= -379.320903173291     IErMin= 9 ErrMin= 1.02D-04
 ErrMax= 3.29D-03  0.00D+00 EMaxC= 1.00D-01 BMatC= 1.09D-03 BMatP= 1.76D-06
 IDIUse=3 WtCom= 9.99D-01 WtEn= 1.02D-03
 Coeff-Com: -0.745D-01 0.242D+00-0.160D+00 0.267D+00 0.723D-01-0.209D+01
 Coeff-Com:  0.330D+01 0.457D-01-0.574D+01 0.576D+01-0.778D+01 0.778D+01
 Coeff-Com: -0.431D+01 0.372D+01 0.250D+00-0.212D+00 0.280D+01-0.369D+01
 Coeff-Com:  0.543D+01-0.460D+01
 Coeff-En:   0.000D+00 0.000D+00 0.000D+00 0.000D+00 0.000D+00 0.000D+00
 Coeff-En:   0.000D+00 0.000D+00 0.000D+00 0.000D+00 0.000D+00 0.000D+00
 Coeff-En:   0.000D+00 0.000D+00 0.000D+00 0.000D+00 0.000D+00 0.000D+00
 Coeff-En:   0.000D+00 0.100D+01
 Coeff:     -0.744D-01 0.241D+00-0.160D+00 0.266D+00 0.722D-01-0.209D+01
 Coeff:      0.330D+01 0.456D-01-0.573D+01 0.576D+01-0.777D+01 0.777D+01
 Coeff:     -0.431D+01 0.372D+01 0.250D+00-0.212D+00 0.280D+01-0.369D+01
 Coeff:      0.542D+01-0.460D+01
 Gap=     0.088 Goal=   None    Shift=    0.000
 Gap=     0.091 Goal=   None    Shift=    0.000
 RMSDP=1.49D-04 MaxDP=3.00D-03 DE=-7.35D-05 OVMax= 8.74D-03

 Cycle 200  Pass 1  IDiag  1:
 E= -379.320109850711     Delta-E=        0.000130604944 Rises=F Damp=F
 DIIS: error= 3.51D-03 at cycle 200 NSaved=  20.
 NSaved=20 IEnMin=14 EnMin= -379.320903173291     IErMin= 9 ErrMin= 1.02D-04
 ErrMax= 3.51D-03  0.00D+00 EMaxC= 1.00D-01 BMatC= 1.26D-03 BMatP= 1.76D-06
 IDIUse=3 WtCom= 9.99D-01 WtEn= 1.02D-03
 Rare condition: small coef for last iteration:  0.000D+00
 Coeff-Com: -0.694D-01 0.232D+00-0.155D+00 0.266D+00 0.108D+00-0.235D+01
 Coeff-Com:  0.376D+01-0.153D+00-0.599D+01 0.598D+01-0.796D+01 0.795D+01
 Coeff-Com: -0.433D+01 0.375D+01 0.187D+00 0.113D+00 0.253D+01 0.174D+01
 Coeff-Com: -0.440D+01-0.221D+00
 Coeff-En:   0.000D+00 0.000D+00 0.000D+00 0.000D+00 0.000D+00 0.000D+00
 Coeff-En:   0.000D+00 0.000D+00 0.000D+00 0.000D+00 0.000D+00 0.000D+00
 Coeff-En:   0.000D+00 0.000D+00 0.000D+00 0.000D+00 0.000D+00 0.000D+00
 Coeff-En:   0.000D+00 0.100D+01
 Coeff:     -0.694D-01 0.232D+00-0.155D+00 0.266D+00 0.108D+00-0.235D+01
 Coeff:      0.376D+01-0.153D+00-0.599D+01 0.598D+01-0.796D+01 0.795D+01
 Coeff:     -0.433D+01 0.375D+01 0.187D+00 0.113D+00 0.253D+01 0.174D+01
 Coeff:     -0.440D+01-0.221D+00
 Gap=     0.088 Goal=   None    Shift=    0.000
 Gap=     0.092 Goal=   None    Shift=    0.000
 RMSDP=5.40D-05 MaxDP=8.50D-04 DE= 1.31D-04 OVMax= 3.35D-03

 >>>>>>>>>> Convergence criterion not met.
 SCF Done:  E(UM062X) =  -379.320109851     A.U. after  201 cycles
            NFock=200  Conv=0.54D-04     -V/T= 2.0012
 <Sx>= 0.0000 <Sy>= 0.0000 <Sz>= 0.5000 <S**2>= 1.7747 S= 0.9229
 <L.S>=  0.00000000000    
 KE= 3.788768088735D+02 PE=-9.300765660684D+02 EE= 1.549342109137D+02
 Annihilation of the first spin contaminant:
 S**2 before annihilation     1.7747,   after     0.9130
 Convergence failure -- run terminated.
 Error termination via Lnk1e in /home/szhao/Apps/g16/l502.exe at Tue Apr 22 00:08:17 2025.
 Job cpu time:       0 days  0 hours 12 minutes 11.2 seconds.
 Elapsed time:       0 days  0 hours  1 minutes 35.2 seconds.
 File lengths (MBytes):  RWF=      6 Int=      0 D2E=      0 Chk=      2 Scr=      1
