Title Card Required                                                     
Force     UM062X                                                      6-311+G(d,p)        
Number of atoms                            I                4
Info1-9                                    I   N=           9
          13          13           0           0           0         100
           5          18        -502
Full Title                                 C   N=           2
Title Card Required     
Route                                      C   N=           4
#p UM062X/6-311+G** force int=superfine         
Charge                                     I                1
Multiplicity                               I                2
Number of electrons                        I               13
Number of alpha electrons                  I                7
Number of beta electrons                   I                6
Number of basis functions                  I               56
Number of independent functions            I               56
Number of point charges in /Mol/           I                0
Number of translation vectors              I                0
Atomic numbers                             I   N=           4
           6           6           1           1
Nuclear charges                            R   N=           4
  6.00000000E+00  6.00000000E+00  1.00000000E+00  1.00000000E+00
Current cartesian coordinates              R   N=          12
  0.00000000E+00  0.00000000E+00  1.24461709E+00  1.52421633E-16  0.00000000E+00
 -1.24461709E+00  0.00000000E+00  0.00000000E+00  3.29184811E+00  4.03135125E-16
  0.00000000E+00 -3.29184811E+00
Number of symbols in /Mol/                 I                0
Force Field                                I                0
Atom Types                                 C   N=           4
                                                
Int Atom Types                             I   N=           4
           0           0           0           0
MM charges                                 R   N=           4
  0.00000000E+00  0.00000000E+00  0.00000000E+00  0.00000000E+00
Integer atomic weights                     I   N=           4
          12          12           1           1
Real atomic weights                        R   N=           4
  1.20000000E+01  1.20000000E+01  1.00782504E+00  1.00782504E+00
Atom fragment info                         I   N=           4
           0           0           0           0
Atom residue num                           I   N=           4
           0           0           0           0
Nuclear spins                              I   N=           4
           0           0           1           1
Nuclear ZEff                               R   N=           4
 -3.60000000E+00 -3.60000000E+00 -1.00000000E+00 -1.00000000E+00
Nuclear ZNuc                               R   N=           4
  6.00000000E+00  6.00000000E+00  1.00000000E+00  1.00000000E+00
Nuclear QMom                               R   N=           4
  0.00000000E+00  0.00000000E+00  0.00000000E+00  0.00000000E+00
Nuclear GFac                               R   N=           4
  0.00000000E+00  0.00000000E+00  2.79284600E+00  2.79284600E+00
MicOpt                                     I   N=           4
          -1          -1          -1          -1
Number of residues                         I                0
Number of secondary structures             I                0
SymInf integers                            I   N=          26
           2           8           1           1           1          -1
           1          -1          -1          -1           1           1
          -1          -1          -1           1           1           1
          -1           1           1           1          -1          -1
          -1          -1
RotTr to input orientation                 R   N=          12
  0.00000000E+00  0.00000000E+00  1.00000000E+00  0.00000000E+00  1.00000000E+00
  0.00000000E+00 -1.00000000E+00 -0.00000000E+00 -0.00000000E+00  0.00000000E+00
  0.00000000E+00  0.00000000E+00
Number of contracted shells                I               20
Number of primitive shells                 I               38
Pure/Cartesian d shells                    I                0
Pure/Cartesian f shells                    I                0
Highest angular momentum                   I                2
Largest degree of contraction              I                6
Shell types                                I   N=          20
           0          -1          -1          -1          -1          -2
           0          -1          -1          -1          -1          -2
           0           0           0           1           0           0
           0           1
Number of primitives per shell             I   N=          20
           6           3           1           1           1           1
           6           3           1           1           1           1
           3           1           1           1           3           1
           1           1
Shell to atom map                          I   N=          20
           1           1           1           1           1           1
           2           2           2           2           2           2
           3           3           3           3           4           4
           4           4
Primitive exponents                        R   N=          38
  4.56324000E+03  6.82024000E+02  1.54973000E+02  4.44553000E+01  1.30290000E+01
  1.82773000E+00  2.09642000E+01  4.80331000E+00  1.45933000E+00  4.83456000E-01
  1.45585000E-01  4.38000000E-02  6.26000000E-01  4.56324000E+03  6.82024000E+02
  1.54973000E+02  4.44553000E+01  1.30290000E+01  1.82773000E+00  2.09642000E+01
  4.80331000E+00  1.45933000E+00  4.83456000E-01  1.45585000E-01  4.38000000E-02
  6.26000000E-01  3.38650000E+01  5.09479000E+00  1.15879000E+00  3.25840000E-01
  1.02741000E-01  7.50000000E-01  3.38650000E+01  5.09479000E+00  1.15879000E+00
  3.25840000E-01  1.02741000E-01  7.50000000E-01
Contraction coefficients                   R   N=          38
  1.96665025E-03  1.52306019E-02  7.61269097E-02  2.60801033E-01  6.16462078E-01
  2.21006028E-01  1.14660081E-01  9.19999648E-01 -3.03068213E-03  1.00000000E+00
  1.00000000E+00  1.00000000E+00  1.00000000E+00  1.96665025E-03  1.52306019E-02
  7.61269097E-02  2.60801033E-01  6.16462078E-01  2.21006028E-01  1.14660081E-01
  9.19999648E-01 -3.03068213E-03  1.00000000E+00  1.00000000E+00  1.00000000E+00
  1.00000000E+00  2.54938145E-02  1.90373109E-01  8.52161486E-01  1.00000000E+00
  1.00000000E+00  1.00000000E+00  2.54938145E-02  1.90373109E-01  8.52161486E-01
  1.00000000E+00  1.00000000E+00  1.00000000E+00
P(S=P) Contraction coefficients            R   N=          38
  0.00000000E+00  0.00000000E+00  0.00000000E+00  0.00000000E+00  0.00000000E+00
  0.00000000E+00  4.02486927E-02  2.37593957E-01  8.15853851E-01  1.00000000E+00
  1.00000000E+00  1.00000000E+00  0.00000000E+00  0.00000000E+00  0.00000000E+00
  0.00000000E+00  0.00000000E+00  0.00000000E+00  0.00000000E+00  4.02486927E-02
  2.37593957E-01  8.15853851E-01  1.00000000E+00  1.00000000E+00  1.00000000E+00
  0.00000000E+00  0.00000000E+00  0.00000000E+00  0.00000000E+00  0.00000000E+00
  0.00000000E+00  0.00000000E+00  0.00000000E+00  0.00000000E+00  0.00000000E+00
  0.00000000E+00  0.00000000E+00  0.00000000E+00
Coordinates of each shell                  R   N=          60
  0.00000000E+00  0.00000000E+00  1.24461709E+00  0.00000000E+00  0.00000000E+00
  1.24461709E+00  0.00000000E+00  0.00000000E+00  1.24461709E+00  0.00000000E+00
  0.00000000E+00  1.24461709E+00  0.00000000E+00  0.00000000E+00  1.24461709E+00
  0.00000000E+00  0.00000000E+00  1.24461709E+00  1.52421633E-16  0.00000000E+00
 -1.24461709E+00  1.52421633E-16  0.00000000E+00 -1.24461709E+00  1.52421633E-16
  0.00000000E+00 -1.24461709E+00  1.52421633E-16  0.00000000E+00 -1.24461709E+00
  1.52421633E-16  0.00000000E+00 -1.24461709E+00  1.52421633E-16  0.00000000E+00
 -1.24461709E+00  0.00000000E+00  0.00000000E+00  3.29184811E+00  0.00000000E+00
  0.00000000E+00  3.29184811E+00  0.00000000E+00  0.00000000E+00  3.29184811E+00
  0.00000000E+00  0.00000000E+00  3.29184811E+00  4.03135125E-16  0.00000000E+00
 -3.29184811E+00  4.03135125E-16  0.00000000E+00 -3.29184811E+00  4.03135125E-16
  0.00000000E+00 -3.29184811E+00  4.03135125E-16  0.00000000E+00 -3.29184811E+00
Num ILSW                                   I              100
ILSW                                       I   N=         100
           1           0           0           0           2           0
           0           0           0           0        4336          -1
           7           0           0           0           2           0
           0           0           0           0           1           0
           1           0           0           0           0           0
           0           0      100000           0          -1           0
           0           0           0           0           0           0
           0           0           0           1           0           0
           0 -2000000000           1           0           0           0
           0           0           4          52           0           0
           0           0          55           0           0           0
           0           0           0           4           0           1
           0           0           0           0           0           0
           0           0           0           0           0           0
           0           0           0           0           0           0
           0           0           0           0           0           0
           0           0           0           0
Num RLSW                                   I               52
RLSW                                       R   N=          52
  1.00000000E+00  1.00000000E+00  1.00000000E+00  1.00000000E+00  5.40000000E-01
  0.00000000E+00  0.00000000E+00  1.00000000E+00  0.00000000E+00  0.00000000E+00
  0.00000000E+00  0.00000000E+00  1.00000000E+00  0.00000000E+00  0.00000000E+00
  0.00000000E+00  0.00000000E+00  1.00000000E+00  0.00000000E+00  0.00000000E+00
  0.00000000E+00  0.00000000E+00  1.00000000E+00  0.00000000E+00  0.00000000E+00
  0.00000000E+00  0.00000000E+00  1.00000000E+00  0.00000000E+00  0.00000000E+00
  0.00000000E+00  0.00000000E+00  1.00000000E+00  0.00000000E+00  0.00000000E+00
  0.00000000E+00  0.00000000E+00  0.00000000E+00  1.00000000E+00  1.00000000E+00
  0.00000000E+00  1.00000000E+00  0.00000000E+00  0.00000000E+00  0.00000000E+00
  0.00000000E+00  0.00000000E+00  0.00000000E+00  0.00000000E+00  0.00000000E+00
  0.00000000E+00  0.00000000E+00
MxBond                                     I                2
NBond                                      I   N=           4
           2           2           1           1
IBond                                      I   N=           8
           2           3           1           4           1           0
           2           0
RBond                                      R   N=           8
  2.00000000E+00  1.00000000E+00  2.00000000E+00  1.00000000E+00  1.00000000E+00
  0.00000000E+00  1.00000000E+00  0.00000000E+00
Virial Ratio                               R      2.007107173192302E+00
SCF Energy                                 R     -7.689273336877065E+01
Total Energy                               R     -7.689273336877065E+01
S**2                                       R      7.522365442266246E-01
S**2 after annihilation                    R      7.500035713913138E-01
RMS Force                                  R      4.557200584363220E-02
RMS Density                                R      1.916397930756946E-09
Job Status                                 I                1
Nuclear derivative order                   I                1
External E-field                           R   N=          35
  0.00000000E+00  0.00000000E+00  0.00000000E+00  0.00000000E+00  0.00000000E+00
  0.00000000E+00  0.00000000E+00  0.00000000E+00  0.00000000E+00  0.00000000E+00
  0.00000000E+00  0.00000000E+00  0.00000000E+00  0.00000000E+00  0.00000000E+00
  0.00000000E+00  0.00000000E+00  0.00000000E+00  0.00000000E+00  0.00000000E+00
  0.00000000E+00  0.00000000E+00  0.00000000E+00  0.00000000E+00  0.00000000E+00
  0.00000000E+00  0.00000000E+00  0.00000000E+00  0.00000000E+00  0.00000000E+00
  0.00000000E+00  0.00000000E+00  0.00000000E+00  0.00000000E+00  0.00000000E+00
IOpCl                                      I                1
IROHF                                      I                0
Alpha Orbital Energies                     R   N=          56
 -1.09543143E+01 -1.09529161E+01 -1.20213319E+00 -9.75761257E-01 -8.89521113E-01
 -7.09422382E-01 -6.83780126E-01 -2.92606196E-01 -2.72414844E-01 -1.64768801E-01
 -1.44501234E-01 -1.14070036E-01 -1.00741772E-01 -9.82933153E-02 -7.51327943E-02
 -4.93461767E-02 -4.52574673E-02  2.22089859E-02  4.50845074E-02  1.41866149E-01
  1.93229599E-01  2.99658957E-01  3.11398813E-01  3.71386341E-01  3.77408271E-01
  4.73211669E-01  4.83682701E-01  5.51382400E-01  5.71628879E-01  7.39870404E-01
  7.55212602E-01  8.22353325E-01  8.66738435E-01  8.68434721E-01  1.16303183E+00
  1.16932869E+00  1.20433605E+00  1.20556504E+00  1.40254735E+00  1.49453783E+00
  1.50710845E+00  1.71710107E+00  2.07232494E+00  2.09284944E+00  2.27246232E+00
  2.39679599E+00  2.40466869E+00  2.43381082E+00  2.58678571E+00  2.61406780E+00
  2.61992809E+00  2.91720250E+00  2.98903891E+00  3.38155130E+00  2.32090257E+01
  2.43494493E+01
Beta Orbital Energies                      R   N=          56
 -1.09519000E+01 -1.09507203E+01 -1.15573925E+00 -9.59654394E-01 -8.84134359E-01
 -6.59514582E-01 -4.51291918E-01 -2.55943535E-01 -2.24999395E-01 -1.55934060E-01
 -1.53200775E-01 -1.15777857E-01 -1.03627511E-01 -1.00863788E-01 -7.12568467E-02
 -4.45414142E-02 -3.90510652E-02  1.87591002E-02  4.71717028E-02  1.47677022E-01
  2.02002012E-01  2.85850953E-01  3.10689098E-01  3.63389896E-01  3.77249914E-01
  4.51458716E-01  4.83415177E-01  5.65224836E-01  5.99355096E-01  7.73643191E-01
  7.81372369E-01  7.93690162E-01  9.05080978E-01  9.26462638E-01  1.17834964E+00
  1.18883024E+00  1.23361938E+00  1.25357391E+00  1.41795785E+00  1.51640551E+00
  1.52409929E+00  1.74406045E+00  2.09936175E+00  2.10665290E+00  2.29096494E+00
  2.41657657E+00  2.43814562E+00  2.44387185E+00  2.62706155E+00  2.63046241E+00
  2.68492848E+00  2.93829688E+00  3.08453947E+00  3.39358371E+00  2.32185755E+01
  2.43716339E+01
Alpha MO coefficients                      R   N=        3136
  3.98863069E-01  3.28127562E-01  0.00000000E+00  0.00000000E+00 -5.88062093E-04
  7.73510012E-03  0.00000000E+00  0.00000000E+00  2.10005904E-03 -2.82693433E-03
  0.00000000E+00  0.00000000E+00 -1.71859299E-04 -4.26557097E-04  0.00000000E+00
  0.00000000E+00 -1.56405182E-03  1.00478192E-03  0.00000000E+00  0.00000000E+00
 -3.62280495E-05  0.00000000E+00  3.98863069E-01  3.28127562E-01  0.00000000E+00
  0.00000000E+00  5.88062093E-04  7.73510012E-03  0.00000000E+00  0.00000000E+00
 -2.10005904E-03 -2.82693433E-03  0.00000000E+00  0.00000000E+00  1.71859299E-04
 -4.26557097E-04  0.00000000E+00  0.00000000E+00  1.56405182E-03  1.00478192E-03
  0.00000000E+00  0.00000000E+00 -3.62280495E-05  0.00000000E+00  1.26458536E-04
 -3.12665234E-03  2.75148495E-03  0.00000000E+00  0.00000000E+00  1.78879801E-03
  1.26458536E-04 -3.12665234E-03  2.75148495E-03  0.00000000E+00  0.00000000E+00
 -1.78879801E-03  3.99104625E-01  3.27542531E-01  0.00000000E+00  0.00000000E+00
  2.42394794E-04  1.09435786E-02  0.00000000E+00  0.00000000E+00 -3.20347041E-03
 -1.10492388E-02  0.00000000E+00  0.00000000E+00  1.11437933E-02 -1.43048771E-02
  0.00000000E+00  0.00000000E+00  3.86067119E-03  4.54289083E-03  0.00000000E+00
  0.00000000E+00 -4.70293793E-05  0.00000000E+00 -3.99104625E-01 -3.27542531E-01
  0.00000000E+00  0.00000000E+00  2.42394794E-04 -1.09435786E-02  0.00000000E+00
  0.00000000E+00 -3.20347041E-03  1.10492388E-02  0.00000000E+00  0.00000000E+00
  1.11437933E-02  1.43048771E-02  0.00000000E+00  0.00000000E+00  3.86067119E-03
 -4.54289083E-03  0.00000000E+00  0.00000000E+00  4.70293793E-05  0.00000000E+00
 -1.43189775E-04 -5.20473545E-03 -2.20679367E-03  0.00000000E+00  0.00000000E+00
  2.25831270E-03  1.43189775E-04  5.20473545E-03  2.20679367E-03  0.00000000E+00
  0.00000000E+00  2.25831270E-03 -9.05620654E-02 -1.46993796E-01  0.00000000E+00
  0.00000000E+00 -7.42778458E-02  4.00780924E-01  0.00000000E+00  0.00000000E+00
 -9.02357675E-02  2.02803234E-01  0.00000000E+00  0.00000000E+00 -1.58384352E-02
 -4.93932796E-03  0.00000000E+00  0.00000000E+00  2.05053604E-02  2.44828149E-02
  0.00000000E+00  0.00000000E+00 -5.46217887E-03  0.00000000E+00 -9.05620654E-02
 -1.46993796E-01  0.00000000E+00  0.00000000E+00  7.42778458E-02  4.00780924E-01
  0.00000000E+00  0.00000000E+00  9.02357675E-02  2.02803234E-01  0.00000000E+00
  0.00000000E+00  1.58384352E-02 -4.93932796E-03  0.00000000E+00  0.00000000E+00
 -2.05053604E-02  2.44828149E-02  0.00000000E+00  0.00000000E+00 -5.46217887E-03
  0.00000000E+00  3.71455031E-02  3.53808290E-02 -1.70137530E-02  0.00000000E+00
  0.00000000E+00 -2.00402814E-03  3.71455031E-02  3.53808290E-02 -1.70137530E-02
  0.00000000E+00  0.00000000E+00  2.00402814E-03 -6.70408139E-02 -1.11158206E-01
  0.00000000E+00  0.00000000E+00  9.57628525E-02  3.16296477E-01  0.00000000E+00
  0.00000000E+00  1.28094693E-01  2.85283367E-01  0.00000000E+00  0.00000000E+00
  2.20086163E-02 -2.94969644E-01  0.00000000E+00  0.00000000E+00  8.10702724E-02
  1.25232174E-02  0.00000000E+00  0.00000000E+00 -3.95455904E-03  0.00000000E+00
  6.70408139E-02  1.11158206E-01  0.00000000E+00  0.00000000E+00  9.57628525E-02
 -3.16296477E-01  0.00000000E+00  0.00000000E+00  1.28094693E-01 -2.85283367E-01
  0.00000000E+00  0.00000000E+00  2.20086163E-02  2.94969644E-01  0.00000000E+00
  0.00000000E+00  8.10702724E-02 -1.25232174E-02  0.00000000E+00  0.00000000E+00
  3.95455904E-03  0.00000000E+00  1.23393024E-01  1.59592879E-01 -2.20650923E-03
  0.00000000E+00  0.00000000E+00 -2.04288947E-02 -1.23393024E-01 -1.59592879E-01
  2.20650923E-03  0.00000000E+00  0.00000000E+00 -2.04288947E-02 -9.62671982E-03
 -1.54061188E-02  0.00000000E+00  0.00000000E+00  1.89790899E-01  4.20289916E-02
  0.00000000E+00  0.00000000E+00  2.52263567E-01  9.07227665E-02  0.00000000E+00
  0.00000000E+00  1.04564624E-01  8.51794739E-03  0.00000000E+00  0.00000000E+00
  8.10133743E-03 -7.61572513E-03  0.00000000E+00  0.00000000E+00 -2.46059390E-04
  0.00000000E+00 -9.62671982E-03 -1.54061188E-02  0.00000000E+00  0.00000000E+00
 -1.89790899E-01  4.20289916E-02  0.00000000E+00  0.00000000E+00 -2.52263567E-01
  9.07227665E-02  0.00000000E+00  0.00000000E+00 -1.04564624E-01  8.51794739E-03
  0.00000000E+00  0.00000000E+00 -8.10133743E-03 -7.61572513E-03  0.00000000E+00
  0.00000000E+00 -2.46059390E-04  0.00000000E+00  1.32211025E-01  1.85653105E-01
 -4.18572418E-03  0.00000000E+00  0.00000000E+00 -2.69592808E-02  1.32211025E-01
  1.85653105E-01 -4.18572418E-03  0.00000000E+00  0.00000000E+00  2.69592808E-02
  0.00000000E+00  0.00000000E+00  0.00000000E+00  1.98397654E-01  0.00000000E+00
  0.00000000E+00  0.00000000E+00  3.26155905E-01  0.00000000E+00  0.00000000E+00
  0.00000000E+00  2.07417882E-01  0.00000000E+00  0.00000000E+00  0.00000000E+00
 -6.77067874E-03  0.00000000E+00  0.00000000E+00  0.00000000E+00 -3.28317039E-02
  0.00000000E+00  0.00000000E+00  0.00000000E+00  0.00000000E+00  0.00000000E+00
  1.98397654E-01  0.00000000E+00  0.00000000E+00  0.00000000E+00  3.26155905E-01
  0.00000000E+00  0.00000000E+00  0.00000000E+00  2.07417882E-01  0.00000000E+00
  0.00000000E+00  0.00000000E+00 -6.77067874E-03  0.00000000E+00  0.00000000E+00
  0.00000000E+00  3.28317039E-02  0.00000000E+00  0.00000000E+00  0.00000000E+00
  0.00000000E+00  0.00000000E+00  0.00000000E+00  1.26094399E-02  0.00000000E+00
  0.00000000E+00  0.00000000E+00  0.00000000E+00  0.00000000E+00  1.26094399E-02
  0.00000000E+00  0.00000000E+00  0.00000000E+00  1.97717898E-01  0.00000000E+00
  0.00000000E+00  0.00000000E+00  3.24701883E-01  0.00000000E+00  0.00000000E+00
  0.00000000E+00  2.07463719E-01  0.00000000E+00  0.00000000E+00  0.00000000E+00
 -3.18568618E-03  0.00000000E+00  0.00000000E+00  0.00000000E+00 -3.16430248E-02
  0.00000000E+00  0.00000000E+00  0.00000000E+00  0.00000000E+00  0.00000000E+00
  1.97717898E-01  0.00000000E+00  0.00000000E+00  0.00000000E+00  3.24701883E-01
  0.00000000E+00  0.00000000E+00  0.00000000E+00  2.07463719E-01  0.00000000E+00
  0.00000000E+00  0.00000000E+00 -3.18568618E-03  0.00000000E+00  0.00000000E+00
  0.00000000E+00  3.16430248E-02  0.00000000E+00  0.00000000E+00  0.00000000E+00
  0.00000000E+00  0.00000000E+00  0.00000000E+00  1.39834895E-02  0.00000000E+00
  0.00000000E+00  0.00000000E+00  0.00000000E+00  0.00000000E+00  1.39834895E-02
  0.00000000E+00  0.00000000E+00  0.00000000E+00  0.00000000E+00  0.00000000E+00
  2.12314672E-01  0.00000000E+00  0.00000000E+00  0.00000000E+00  3.48663124E-01
  0.00000000E+00  0.00000000E+00  0.00000000E+00  4.79741798E-01  0.00000000E+00
  0.00000000E+00  0.00000000E+00  1.62654975E-01  0.00000000E+00  0.00000000E+00
  0.00000000E+00  3.29248324E-02  0.00000000E+00  0.00000000E+00  0.00000000E+00
  0.00000000E+00  0.00000000E+00 -2.12314672E-01  0.00000000E+00  0.00000000E+00
  0.00000000E+00 -3.48663124E-01  0.00000000E+00  0.00000000E+00  0.00000000E+00
 -4.79741798E-01  0.00000000E+00  0.00000000E+00  0.00000000E+00 -1.62654975E-01
  0.00000000E+00  0.00000000E+00  0.00000000E+00  3.29248324E-02  0.00000000E+00
  0.00000000E+00  0.00000000E+00  0.00000000E+00  0.00000000E+00  0.00000000E+00
  2.60318465E-02  0.00000000E+00  0.00000000E+00  0.00000000E+00  0.00000000E+00
  0.00000000E+00 -2.60318465E-02  0.00000000E+00  0.00000000E+00  0.00000000E+00
  2.07968941E-01  0.00000000E+00  0.00000000E+00  0.00000000E+00  3.36003469E-01
  0.00000000E+00  0.00000000E+00  0.00000000E+00  4.90597687E-01  0.00000000E+00
  0.00000000E+00  0.00000000E+00  2.05193996E-01  0.00000000E+00  0.00000000E+00
  0.00000000E+00  3.49917168E-02  0.00000000E+00  0.00000000E+00  0.00000000E+00
  0.00000000E+00  0.00000000E+00 -2.07968941E-01  0.00000000E+00  0.00000000E+00
  0.00000000E+00 -3.36003469E-01  0.00000000E+00  0.00000000E+00  0.00000000E+00
 -4.90597687E-01  0.00000000E+00  0.00000000E+00  0.00000000E+00 -2.05193996E-01
  0.00000000E+00  0.00000000E+00  0.00000000E+00  3.49917168E-02  0.00000000E+00
  0.00000000E+00  0.00000000E+00  0.00000000E+00  0.00000000E+00  0.00000000E+00
  2.75559449E-02  0.00000000E+00  0.00000000E+00  0.00000000E+00  0.00000000E+00
  0.00000000E+00 -2.75559449E-02  0.00000000E+00  0.00000000E+00 -5.40087647E-02
 -9.31135198E-02  0.00000000E+00  0.00000000E+00  1.58007857E-03  2.89612662E-01
  0.00000000E+00  0.00000000E+00  1.26284782E-02  9.62407144E-01  0.00000000E+00
  0.00000000E+00 -4.73181037E-02  6.74073375E+00  0.00000000E+00  0.00000000E+00
 -2.09634255E+00 -4.21066317E-02  0.00000000E+00  0.00000000E+00 -4.92375516E-03
  0.00000000E+00  5.40087647E-02  9.31135198E-02  0.00000000E+00  0.00000000E+00
  1.58007857E-03 -2.89612662E-01  0.00000000E+00  0.00000000E+00  1.26284782E-02
 -9.62407144E-01  0.00000000E+00  0.00000000E+00 -4.73181037E-02 -6.74073375E+00
  0.00000000E+00  0.00000000E+00 -2.09634255E+00  4.21066317E-02  0.00000000E+00
  0.00000000E+00  4.92375516E-03  0.00000000E+00 -7.85928245E-02 -2.58839623E-01
 -4.54729817E-01  0.00000000E+00  0.00000000E+00 -1.96658983E-02  7.85928245E-02
  2.58839623E-01  4.54729817E-01  0.00000000E+00  0.00000000E+00 -1.96658983E-02
  2.34356142E-02  4.08852495E-02  0.00000000E+00  0.00000000E+00 -3.04419051E-02
 -1.50339381E-01  0.00000000E+00  0.00000000E+00 -6.09008473E-02 -2.98514937E-01
  0.00000000E+00  0.00000000E+00 -5.83058043E-02  9.49676652E-01  0.00000000E+00
  0.00000000E+00  5.36640248E-01 -2.15080184E-02  0.00000000E+00  0.00000000E+00
 -9.66930178E-04  0.00000000E+00  2.34356142E-02  4.08852495E-02  0.00000000E+00
  0.00000000E+00  3.04419051E-02 -1.50339381E-01  0.00000000E+00  0.00000000E+00
  6.09008473E-02 -2.98514937E-01  0.00000000E+00  0.00000000E+00  5.83058043E-02
  9.49676652E-01  0.00000000E+00  0.00000000E+00 -5.36640248E-01 -2.15080184E-02
  0.00000000E+00  0.00000000E+00 -9.66930178E-04  0.00000000E+00 -2.56793844E-02
  3.22735252E-02 -2.88962119E-01  0.00000000E+00  0.00000000E+00  8.14785055E-03
 -2.56793844E-02  3.22735252E-02 -2.88962119E-01  0.00000000E+00  0.00000000E+00
 -8.14785055E-03  8.27217845E-04  7.66216934E-04  0.00000000E+00  0.00000000E+00
 -9.94633725E-02  3.21678863E-02  0.00000000E+00  0.00000000E+00 -1.42862031E-01
 -2.64933033E-01  0.00000000E+00  0.00000000E+00 -2.46411795E-01 -2.52469315E-01
  0.00000000E+00  0.00000000E+00  8.45084299E-01  4.76238235E-02  0.00000000E+00
  0.00000000E+00  3.70818613E-03  0.00000000E+00  8.27217845E-04  7.66216934E-04
  0.00000000E+00  0.00000000E+00  9.94633725E-02  3.21678863E-02  0.00000000E+00
  0.00000000E+00  1.42862031E-01 -2.64933033E-01  0.00000000E+00  0.00000000E+00
  2.46411795E-01 -2.52469315E-01  0.00000000E+00  0.00000000E+00 -8.45084299E-01
  4.76238235E-02  0.00000000E+00  0.00000000E+00  3.70818613E-03  0.00000000E+00
  5.83100725E-02  2.00077596E-01  6.31586901E-01  0.00000000E+00  0.00000000E+00
  2.51152674E-02  5.83100725E-02  2.00077596E-01  6.31586901E-01  0.00000000E+00
  0.00000000E+00 -2.51152674E-02  0.00000000E+00  0.00000000E+00  0.00000000E+00
 -6.85612084E-02  0.00000000E+00  0.00000000E+00  0.00000000E+00 -8.11761054E-02
  0.00000000E+00  0.00000000E+00  0.00000000E+00 -1.93979451E-01  0.00000000E+00
  0.00000000E+00  0.00000000E+00  6.14061713E-01  0.00000000E+00  0.00000000E+00
  0.00000000E+00  1.86886272E-02  0.00000000E+00  0.00000000E+00  0.00000000E+00
  0.00000000E+00  0.00000000E+00 -6.85612084E-02  0.00000000E+00  0.00000000E+00
  0.00000000E+00 -8.11761054E-02  0.00000000E+00  0.00000000E+00  0.00000000E+00
 -1.93979451E-01  0.00000000E+00  0.00000000E+00  0.00000000E+00  6.14061713E-01
  0.00000000E+00  0.00000000E+00  0.00000000E+00 -1.86886272E-02  0.00000000E+00
  0.00000000E+00  0.00000000E+00  0.00000000E+00  0.00000000E+00  0.00000000E+00
  7.90202856E-03  0.00000000E+00  0.00000000E+00  0.00000000E+00  0.00000000E+00
  0.00000000E+00  7.90202856E-03  0.00000000E+00  0.00000000E+00  0.00000000E+00
 -6.82519079E-02  0.00000000E+00  0.00000000E+00  0.00000000E+00 -8.84858345E-02
  0.00000000E+00  0.00000000E+00  0.00000000E+00 -1.90517228E-01  0.00000000E+00
  0.00000000E+00  0.00000000E+00  6.12177909E-01  0.00000000E+00  0.00000000E+00
  0.00000000E+00  1.81644147E-02  0.00000000E+00  0.00000000E+00  0.00000000E+00
  0.00000000E+00  0.00000000E+00 -6.82519079E-02  0.00000000E+00  0.00000000E+00
  0.00000000E+00 -8.84858345E-02  0.00000000E+00  0.00000000E+00  0.00000000E+00
 -1.90517228E-01  0.00000000E+00  0.00000000E+00  0.00000000E+00  6.12177909E-01
  0.00000000E+00  0.00000000E+00  0.00000000E+00 -1.81644147E-02  0.00000000E+00
  0.00000000E+00  0.00000000E+00  0.00000000E+00  0.00000000E+00  0.00000000E+00
  7.37002581E-03  0.00000000E+00  0.00000000E+00  0.00000000E+00  0.00000000E+00
  0.00000000E+00  7.37002581E-03  0.00000000E+00  0.00000000E+00  3.06139796E-02
  5.21323282E-02  0.00000000E+00  0.00000000E+00  5.12306484E-02 -1.44069036E-01
  0.00000000E+00  0.00000000E+00  7.82695264E-02 -6.50806543E-01  0.00000000E+00
  0.00000000E+00 -1.12156688E-01  2.41534052E-01  0.00000000E+00  0.00000000E+00
 -1.03078334E+00  6.19872782E-02  0.00000000E+00  0.00000000E+00  4.89714263E-03
  0.00000000E+00 -3.06139796E-02 -5.21323282E-02  0.00000000E+00  0.00000000E+00
  5.12306484E-02  1.44069036E-01  0.00000000E+00  0.00000000E+00  7.82695264E-02
  6.50806543E-01  0.00000000E+00  0.00000000E+00 -1.12156688E-01 -2.41534052E-01
  0.00000000E+00  0.00000000E+00 -1.03078334E+00 -6.19872782E-02  0.00000000E+00
  0.00000000E+00 -4.89714263E-03  0.00000000E+00  1.04145194E-01  2.67458413E-01
  1.16966076E+00  0.00000000E+00  0.00000000E+00  1.25268608E-03 -1.04145194E-01
 -2.67458413E-01 -1.16966076E+00  0.00000000E+00  0.00000000E+00  1.25268608E-03
  0.00000000E+00  0.00000000E+00  0.00000000E+00 -8.60389782E-02  0.00000000E+00
  0.00000000E+00  0.00000000E+00 -1.16702848E-01  0.00000000E+00  0.00000000E+00
  0.00000000E+00 -3.42053991E-01  0.00000000E+00  0.00000000E+00  0.00000000E+00
  2.19158798E+00  0.00000000E+00  0.00000000E+00  0.00000000E+00 -2.00517504E-03
  0.00000000E+00  0.00000000E+00  0.00000000E+00  0.00000000E+00  0.00000000E+00
  8.60389782E-02  0.00000000E+00  0.00000000E+00  0.00000000E+00  1.16702848E-01
  0.00000000E+00  0.00000000E+00  0.00000000E+00  3.42053991E-01  0.00000000E+00
  0.00000000E+00  0.00000000E+00 -2.19158798E+00  0.00000000E+00  0.00000000E+00
  0.00000000E+00 -2.00517504E-03  0.00000000E+00  0.00000000E+00  0.00000000E+00
  0.00000000E+00  0.00000000E+00  0.00000000E+00  8.62441618E-03  0.00000000E+00
  0.00000000E+00  0.00000000E+00  0.00000000E+00  0.00000000E+00 -8.62441618E-03
  0.00000000E+00  0.00000000E+00  0.00000000E+00 -9.01122624E-02  0.00000000E+00
  0.00000000E+00  0.00000000E+00 -1.26822074E-01  0.00000000E+00  0.00000000E+00
  0.00000000E+00 -3.53010298E-01  0.00000000E+00  0.00000000E+00  0.00000000E+00
  2.18612697E+00  0.00000000E+00  0.00000000E+00  0.00000000E+00 -4.50976475E-03
  0.00000000E+00  0.00000000E+00  0.00000000E+00  0.00000000E+00  0.00000000E+00
  9.01122624E-02  0.00000000E+00  0.00000000E+00  0.00000000E+00  1.26822074E-01
  0.00000000E+00  0.00000000E+00  0.00000000E+00  3.53010298E-01  0.00000000E+00
  0.00000000E+00  0.00000000E+00 -2.18612697E+00  0.00000000E+00  0.00000000E+00
  0.00000000E+00 -4.50976475E-03  0.00000000E+00  0.00000000E+00  0.00000000E+00
  0.00000000E+00  0.00000000E+00  0.00000000E+00  6.87098260E-03  0.00000000E+00