 Entering Gaussian System, Link 0=g16
 Initial command:
 /home/szhao/Apps/g16/l1.exe "/home/szhao/tmp/Gau-148749.inp" -scrdir="/home/szhao/tmp/"
 Default is to use a total of  16 processors:
                               16 via shared-memory
                                1 via Linda
 Entering Link 1 = /home/szhao/Apps/g16/l1.exe PID=    148787.
  
 Copyright (c) 1988,1990,1992,1993,1995,1998,2003,2009,2016,
            Gaussian, Inc.  All Rights Reserved.
  
 This is part of the Gaussian(R) 16 program.  It is based on
 the Gaussian(R) 09 system (copyright 2009, Gaussian, Inc.),
 the Gaussian(R) 03 system (copyright 2003, Gaussian, Inc.),
 the Gaussian(R) 98 system (copyright 1998, Gaussian, Inc.),
 the Gaussian(R) 94 system (copyright 1995, Gaussian, Inc.),
 the Gaussian 92(TM) system (copyright 1992, Gaussian, Inc.),
 the Gaussian 90(TM) system (copyright 1990, Gaussian, Inc.),
 the Gaussian 88(TM) system (copyright 1988, Gaussian, Inc.),
 the Gaussian 86(TM) system (copyright 1986, Carnegie Mellon
 University), and the Gaussian 82(TM) system (copyright 1983,
 Carnegie Mellon University). Gaussian is a federally registered
 trademark of Gaussian, Inc.
  
 This software contains proprietary and confidential information,
 including trade secrets, belonging to Gaussian, Inc.
  
 This software is provided under written license and may be
 used, copied, transmitted, or stored only in accord with that
 written license.
  
 The following legend is applicable only to US Government
 contracts under FAR:
  
                    RESTRICTED RIGHTS LEGEND
  
 Use, reproduction and disclosure by the US Government is
 subject to restrictions as set forth in subparagraphs (a)
 and (c) of the Commercial Computer Software - Restricted
 Rights clause in FAR 52.227-19.
  
 Gaussian, Inc.
 340 Quinnipiac St., Bldg. 40, Wallingford CT 06492
  
  
 ---------------------------------------------------------------
 Warning -- This program may not be used in any manner that
 competes with the business of Gaussian, Inc. or will provide
 assistance to any competitor of Gaussian, Inc.  The licensee
 of this program is prohibited from giving any competitor of
 Gaussian, Inc. access to this program.  By using this program,
 the user acknowledges that Gaussian, Inc. is engaged in the
 business of creating and licensing software in the field of
 computational chemistry and represents and warrants to the
 licensee that it is not a competitor of Gaussian, Inc. and that
 it will not use this program in any manner prohibited above.
 ---------------------------------------------------------------
  

 Cite this work as:
 Gaussian 16, Revision A.03,
 M. J. Frisch, G. W. Trucks, H. B. Schlegel, G. E. Scuseria, 
 M. A. Robb, J. R. Cheeseman, G. Scalmani, V. Barone, 
 G. A. Petersson, H. Nakatsuji, X. Li, M. Caricato, A. V. Marenich, 
 J. Bloino, B. G. Janesko, R. Gomperts, B. Mennucci, H. P. Hratchian, 
 J. V. Ortiz, A. F. Izmaylov, J. L. Sonnenberg, D. Williams-Young, 
 F. Ding, F. Lipparini, F. Egidi, J. Goings, B. Peng, A. Petrone, 
 T. Henderson, D. Ranasinghe, V. G. Zakrzewski, J. Gao, N. Rega, 
 G. Zheng, W. Liang, M. Hada, M. Ehara, K. Toyota, R. Fukuda, 
 J. Hasegawa, M. Ishida, T. Nakajima, Y. Honda, O. Kitao, H. Nakai, 
 T. Vreven, K. Throssell, J. A. Montgomery, Jr., J. E. Peralta, 
 F. Ogliaro, M. J. Bearpark, J. J. Heyd, E. N. Brothers, K. N. Kudin, 
 V. N. Staroverov, T. A. Keith, R. Kobayashi, J. Normand, 
 K. Raghavachari, A. P. Rendell, J. C. Burant, S. S. Iyengar, 
 J. Tomasi, M. Cossi, J. M. Millam, M. Klene, C. Adamo, R. Cammi, 
 J. W. Ochterski, R. L. Martin, K. Morokuma, O. Farkas, 
 J. B. Foresman, and D. J. Fox, Gaussian, Inc., Wallingford CT, 2016.
 
 ******************************************
 Gaussian 16:  ES64L-G16RevA.03 25-Dec-2016
                21-Apr-2025 
 ******************************************
 %chk=force.chk
 %mem=4GB
 %nprocshared=8
 Will use up to    8 processors via shared memory.
 ---------------------------------------------------
 #p UM062X/6-311+G** force int=superfine pop=saveNBO
 ---------------------------------------------------
 1/10=7,30=1,38=1/1,3;
 2/12=2,17=6,18=5,40=1/2;
 3/5=4,6=6,7=111,11=2,25=1,30=1,71=1,74=-55,75=-7,116=2/1,2,3;
 4//1;
 5/5=2,38=5/2;
 6/7=2,8=2,9=2,10=2,28=1,40=1,73=1/1,7;
 7/29=1/1,2,3,16;
 1/10=7,30=1/3;
 99//99;
 Leave Link    1 at Mon Apr 21 20:09:14 2025, MaxMem=   536870912 cpu:               2.0 elap:               0.3
 (Enter /home/szhao/Apps/g16/l101.exe)
 -------------------
 Title Card Required
 -------------------
 Symbolic Z-matrix:
 Charge =  0 Multiplicity = 1
 S                    -2.2252    0.        0. 
 S                     2.2252    0.        0. 
 
 ITRead=  0  0
 MicOpt= -1 -1
 NAtoms=      2 NQM=        2 NQMF=       0 NMMI=      0 NMMIF=      0
                NMic=       0 NMicF=      0.
                    Isotopes and Nuclear Properties:
 (Nuclear quadrupole moments (NQMom) in fm**2, nuclear magnetic moments (NMagM)
  in nuclear magnetons)

  Atom         1           2
 IAtWgt=          32          32
 AtmWgt=  31.9720718  31.9720718
 NucSpn=           0           0
 AtZEff=  -0.0000000  -0.0000000
 NQMom=    0.0000000   0.0000000
 NMagM=    0.0000000   0.0000000
 AtZNuc=  16.0000000  16.0000000
 Leave Link  101 at Mon Apr 21 20:09:17 2025, MaxMem=   536870912 cpu:               1.6 elap:               1.1
 (Enter /home/szhao/Apps/g16/l103.exe)

 GradGradGradGradGradGradGradGradGradGradGradGradGradGradGradGradGradGrad
 Berny optimization.
 Initialization pass.
 Trust Radius=3.00D-01 FncErr=1.00D-07 GrdErr=1.00D-07 EigMax=2.50D+02 EigMin=1.00D-04
 Number of steps in this run=      2 maximum allowed number of steps=      2.
 GradGradGradGradGradGradGradGradGradGradGradGradGradGradGradGradGradGrad

 Leave Link  103 at Mon Apr 21 20:09:18 2025, MaxMem=   536870912 cpu:               1.9 elap:               0.5
 (Enter /home/szhao/Apps/g16/l202.exe)
                          Input orientation:                          
 ---------------------------------------------------------------------
 Center     Atomic      Atomic             Coordinates (Angstroms)
 Number     Number       Type             X           Y           Z
 ---------------------------------------------------------------------
      1         16           0       -2.225200    0.000000    0.000000
      2         16           0        2.225200    0.000000    0.000000
 ---------------------------------------------------------------------
 Stoichiometry    S2
 Framework group  D*H[C*(S.S)]
 Deg. of freedom     1
 Full point group                 D*H     NOp   8
 Largest Abelian subgroup         D2H     NOp   8
 Largest concise Abelian subgroup C2      NOp   2
                         Standard orientation:                         
 ---------------------------------------------------------------------
 Center     Atomic      Atomic             Coordinates (Angstroms)
 Number     Number       Type             X           Y           Z
 ---------------------------------------------------------------------
      1         16           0        0.000000    0.000000    2.225200
      2         16           0        0.000000    0.000000   -2.225200
 ---------------------------------------------------------------------
 Rotational constants (GHZ):           0.0000000           1.5961670           1.5961670
 Leave Link  202 at Mon Apr 21 20:09:18 2025, MaxMem=   536870912 cpu:               0.5 elap:               0.3
 (Enter /home/szhao/Apps/g16/l301.exe)
 Standard basis: 6-311+G(d,p) (5D, 7F)
 Ernie: Thresh=  0.10000D-02 Tol=  0.10000D-05 Strict=F.
 There are    16 symmetry adapted cartesian basis functions of AG  symmetry.
 There are     1 symmetry adapted cartesian basis functions of B1G symmetry.
 There are     7 symmetry adapted cartesian basis functions of B2G symmetry.
 There are     7 symmetry adapted cartesian basis functions of B3G symmetry.
 There are     1 symmetry adapted cartesian basis functions of AU  symmetry.
 There are    16 symmetry adapted cartesian basis functions of B1U symmetry.
 There are     7 symmetry adapted cartesian basis functions of B2U symmetry.
 There are     7 symmetry adapted cartesian basis functions of B3U symmetry.
 There are    15 symmetry adapted basis functions of AG  symmetry.
 There are     1 symmetry adapted basis functions of B1G symmetry.
 There are     7 symmetry adapted basis functions of B2G symmetry.
 There are     7 symmetry adapted basis functions of B3G symmetry.
 There are     1 symmetry adapted basis functions of AU  symmetry.
 There are    15 symmetry adapted basis functions of B1U symmetry.
 There are     7 symmetry adapted basis functions of B2U symmetry.
 There are     7 symmetry adapted basis functions of B3U symmetry.
    60 basis functions,   100 primitive gaussians,    62 cartesian basis functions
    16 alpha electrons       16 beta electrons
       nuclear repulsion energy        30.4398179929 Hartrees.
 IExCor= 4336 DFT=T Ex+Corr=M062X ExCW=0 ScaHFX=  0.540000
 ScaDFX=  1.000000  1.000000  1.000000  1.000000 ScalE2=  1.000000  1.000000
 IRadAn=      7 IRanWt=     -1 IRanGd=            0 ICorTp=0 IEmpDi=  4
 NAtoms=    2 NActive=    2 NUniq=    1 SFac= 4.00D+00 NAtFMM=   60 NAOKFM=F Big=F
 Integral buffers will be    131072 words long.
 Raffenetti 2 integral format.
 Two-electron integral symmetry is turned on.
 Leave Link  301 at Mon Apr 21 20:09:19 2025, MaxMem=   536870912 cpu:               1.8 elap:               0.4
 (Enter /home/szhao/Apps/g16/l302.exe)
 NPDir=0 NMtPBC=     1 NCelOv=     1 NCel=       1 NClECP=     1 NCelD=      1
         NCelK=      1 NCelE2=     1 NClLst=     1 CellRange=     0.0.
 One-electron integrals computed using PRISM.
 One-electron integral symmetry used in STVInt
 NBasis=    60 RedAO= T EigKep=  2.49D-02  NBF=    15     1     7     7     1    15     7     7
 NBsUse=    60 1.00D-06 EigRej= -1.00D+00 NBFU=    15     1     7     7     1    15     7     7
 Precomputing XC quadrature grid using
 IXCGrd= 4 IRadAn=           7 IRanWt=          -1 IRanGd=           0 AccXCQ= 0.00D+00.
 Generated NRdTot=       0 NPtTot=           0 NUsed=           0 NTot=          32
 NSgBfM=    51    51    51    51    51 MxSgAt=     2 MxSgA2=     2.
 Leave Link  302 at Mon Apr 21 20:09:20 2025, MaxMem=   536870912 cpu:               1.4 elap:               0.5
 (Enter /home/szhao/Apps/g16/l303.exe)
 DipDrv:  MaxL=1.
 Leave Link  303 at Mon Apr 21 20:09:21 2025, MaxMem=   536870912 cpu:               0.7 elap:               0.1
 (Enter /home/szhao/Apps/g16/l401.exe)
 ExpMin= 4.05D-02 ExpMax= 9.34D+04 ExpMxC= 3.17D+03 IAcc=3 IRadAn=         7 AccDes= 0.00D+00
 Harris functional with IExCor= 1009 and IRadAn=       7 diagonalized for initial guess.
 HarFok:  IExCor= 1009 AccDes= 0.00D+00 IRadAn=         7 IDoV= 1 UseB2=F ITyADJ=14
 ICtDFT=  3500011 ScaDFX=  1.000000  1.000000  1.000000  1.000000
 FoFCou: FMM=F IPFlag=           0 FMFlag=      100000 FMFlg1=           0
         NFxFlg=           0 DoJE=T BraDBF=F KetDBF=T FulRan=T
         wScrn=  0.000000 ICntrl=       500 IOpCl=  0 I1Cent=   200000004 NGrid=           0
         NMat0=    1 NMatS0=      1 NMatT0=    0 NMatD0=    1 NMtDS0=    0 NMtDT0=    0
 Petite list used in FoFCou.
 Harris En= -795.729853294121    
 JPrj=0 DoOrth=F DoCkMO=F.
 Initial guess orbital symmetries:
 Alpha Orbitals:
       Occupied  (SGU) (SGG) (SGU) (SGG) (SGU) (PIG) (PIG) (SGG)
                 (PIU) (PIU) (SGG) (SGU) (SGG) (PIU) (PIU) (PIG)
       Virtual   (PIG) (SGU) (SGG) (SGU) (PIU) (PIU) (SGG) (PIG)
                 (PIG) (SGU) (SGG) (PIU) (PIU) (PIG) (PIG) (SGU)
                 (SGG) (SGU) (DLTG) (DLTU) (DLTG) (DLTU) (PIU)
                 (PIU) (PIG) (PIG) (SGG) (SGU) (PIU) (PIU) (SGG)
                 (PIG) (PIG) (SGU) (SGG) (SGU) (SGG) (PIU) (PIU)
                 (PIG) (PIG) (SGU) (SGG) (SGU)
 Beta  Orbitals:
       Occupied  (SGU) (SGG) (SGU) (SGG) (SGU) (PIG) (PIG) (SGG)
                 (PIU) (PIU) (SGG) (SGU) (SGG) (PIU) (PIU) (PIG)
       Virtual   (PIG) (SGU) (SGG) (SGU) (PIU) (PIU) (SGG) (PIG)
                 (PIG) (SGU) (SGG) (PIU) (PIU) (PIG) (PIG) (SGU)
                 (SGG) (SGU) (DLTG) (DLTU) (DLTG) (DLTU) (PIU)
                 (PIU) (PIG) (PIG) (SGG) (SGU) (PIU) (PIU) (SGG)
                 (PIG) (PIG) (SGU) (SGG) (SGU) (SGG) (PIU) (PIU)
                 (PIG) (PIG) (SGU) (SGG) (SGU)
 Initial guess <Sx>= 0.0000 <Sy>= 0.0000 <Sz>= 0.0000 <S**2>=-0.0000 S=-0.0000
 Leave Link  401 at Mon Apr 21 20:09:22 2025, MaxMem=   536870912 cpu:               1.8 elap:               0.8
 (Enter /home/szhao/Apps/g16/l502.exe)
 Keep R1 and R2 ints in memory in symmetry-blocked form, NReq=8792365.
 FoFCou: FMM=F IPFlag=           0 FMFlag=           0 FMFlg1=           0
         NFxFlg=           0 DoJE=F BraDBF=F KetDBF=F FulRan=T
         wScrn=  0.000000 ICntrl=       600 IOpCl=  0 I1Cent=           0 NGrid=           0
         NMat0=    1 NMatS0=   1830 NMatT0=    0 NMatD0=    1 NMtDS0=    0 NMtDT0=    0
 Petite list used in FoFCou.
 UHF open shell SCF:
 Using DIIS extrapolation, IDIIS=  1040.
 NGot=   536870912 LenX=   536388430 LenY=   536384145
 Requested convergence on RMS density matrix=1.00D-08 within 128 cycles.
 Requested convergence on MAX density matrix=1.00D-06.
 Requested convergence on             energy=1.00D-06.
 No special actions if energy rises.

 Cycle   1  Pass 1  IDiag  1:
 E= -795.999612941947    
 DIIS: error= 2.92D-02 at cycle   1 NSaved=   1.
 NSaved= 1 IEnMin= 1 EnMin= -795.999612941947     IErMin= 1 ErrMin= 2.92D-02
 ErrMax= 2.92D-02  0.00D+00 EMaxC= 1.00D-01 BMatC= 2.87D-01 BMatP= 2.87D-01
 IDIUse=3 WtCom= 7.08D-01 WtEn= 2.92D-01
 Coeff-Com:  0.100D+01
 Coeff-En:   0.100D+01
 Coeff:      0.100D+01
 Gap=     0.064 Goal=   None    Shift=    0.000
 Gap=     0.064 Goal=   None    Shift=    0.000
 GapD=    0.064 DampG=0.500 DampE=0.500 DampFc=0.2500 IDamp=-1.
 Damping current iteration by 2.50D-01
 RMSDP=2.82D-03 MaxDP=6.59D-02              OVMax= 3.09D-02

 Cycle   2  Pass 1  IDiag  1:
 E= -796.003480480913     Delta-E=       -0.003867538965 Rises=F Damp=T
 DIIS: error= 1.99D-02 at cycle   2 NSaved=   2.
 NSaved= 2 IEnMin= 2 EnMin= -796.003480480913     IErMin= 2 ErrMin= 1.99D-02
 ErrMax= 1.99D-02  0.00D+00 EMaxC= 1.00D-01 BMatC= 1.34D-01 BMatP= 2.87D-01
 IDIUse=3 WtCom= 8.01D-01 WtEn= 1.99D-01
 Coeff-Com: -0.206D+01 0.306D+01
 Coeff-En:   0.000D+00 0.100D+01
 Coeff:     -0.165D+01 0.265D+01
 Gap=     0.065 Goal=   None    Shift=    0.000
 Gap=     0.065 Goal=   None    Shift=    0.000
 RMSDP=1.70D-03 MaxDP=3.62D-02 DE=-3.87D-03 OVMax= 1.30D-02

 Cycle   3  Pass 1  IDiag  1:
 E= -796.013035450858     Delta-E=       -0.009554969945 Rises=F Damp=F
 DIIS: error= 8.45D-04 at cycle   3 NSaved=   3.
 NSaved= 3 IEnMin= 3 EnMin= -796.013035450858     IErMin= 3 ErrMin= 8.45D-04
 ErrMax= 8.45D-04  0.00D+00 EMaxC= 1.00D-01 BMatC= 1.85D-04 BMatP= 1.34D-01
 IDIUse=3 WtCom= 9.92D-01 WtEn= 8.45D-03
 Coeff-Com:  0.205D+00-0.274D+00 0.107D+01
 Coeff-En:   0.000D+00 0.000D+00 0.100D+01
 Coeff:      0.203D+00-0.272D+00 0.107D+01
 Gap=     0.065 Goal=   None    Shift=    0.000
 Gap=     0.065 Goal=   None    Shift=    0.000
 RMSDP=1.11D-04 MaxDP=2.48D-03 DE=-9.55D-03 OVMax= 2.23D-03

 Cycle   4  Pass 1  IDiag  1:
 E= -796.013053004101     Delta-E=       -0.000017553244 Rises=F Damp=F
 DIIS: error= 2.25D-04 at cycle   4 NSaved=   4.
 NSaved= 4 IEnMin= 4 EnMin= -796.013053004101     IErMin= 4 ErrMin= 2.25D-04
 ErrMax= 2.25D-04  0.00D+00 EMaxC= 1.00D-01 BMatC= 1.07D-05 BMatP= 1.85D-04
 IDIUse=3 WtCom= 9.98D-01 WtEn= 2.25D-03
 Coeff-Com:  0.844D-01-0.116D+00 0.200D+00 0.831D+00
 Coeff-En:   0.000D+00 0.000D+00 0.000D+00 0.100D+01
 Coeff:      0.842D-01-0.115D+00 0.199D+00 0.832D+00
 Gap=     0.065 Goal=   None    Shift=    0.000
 Gap=     0.065 Goal=   None    Shift=    0.000
 RMSDP=3.53D-05 MaxDP=6.80D-04 DE=-1.76D-05 OVMax= 8.95D-04

 Cycle   5  Pass 1  IDiag  1:
 E= -796.013056047150     Delta-E=       -0.000003043049 Rises=F Damp=F
 DIIS: error= 3.43D-05 at cycle   5 NSaved=   5.
 NSaved= 5 IEnMin= 5 EnMin= -796.013056047150     IErMin= 5 ErrMin= 3.43D-05
 ErrMax= 3.43D-05  0.00D+00 EMaxC= 1.00D-01 BMatC= 1.50D-07 BMatP= 1.07D-05
 IDIUse=1 WtCom= 1.00D+00 WtEn= 0.00D+00
 Coeff-Com: -0.212D-01 0.286D-01-0.604D-01-0.101D+00 0.115D+01
 Coeff:     -0.212D-01 0.286D-01-0.604D-01-0.101D+00 0.115D+01
 Gap=     0.065 Goal=   None    Shift=    0.000
 Gap=     0.065 Goal=   None    Shift=    0.000
 RMSDP=7.43D-06 MaxDP=9.36D-05 DE=-3.04D-06 OVMax= 1.84D-04

 Cycle   6  Pass 1  IDiag  1:
 E= -796.013056144876     Delta-E=       -0.000000097726 Rises=F Damp=F
 DIIS: error= 4.27D-06 at cycle   6 NSaved=   6.
 NSaved= 6 IEnMin= 6 EnMin= -796.013056144876     IErMin= 6 ErrMin= 4.27D-06
 ErrMax= 4.27D-06  0.00D+00 EMaxC= 1.00D-01 BMatC= 2.74D-09 BMatP= 1.50D-07
 IDIUse=1 WtCom= 1.00D+00 WtEn= 0.00D+00
 Coeff-Com: -0.451D-02 0.611D-02-0.131D-01-0.291D-01 0.183D+00 0.858D+00
 Coeff:     -0.451D-02 0.611D-02-0.131D-01-0.291D-01 0.183D+00 0.858D+00
 Gap=     0.065 Goal=   None    Shift=    0.000
 Gap=     0.065 Goal=   None    Shift=    0.000
 RMSDP=6.20D-07 MaxDP=6.92D-06 DE=-9.77D-08 OVMax= 1.45D-05

 Cycle   7  Pass 1  IDiag  1:
 E= -796.013056145812     Delta-E=       -0.000000000936 Rises=F Damp=F
 DIIS: error= 1.07D-06 at cycle   7 NSaved=   7.
 NSaved= 7 IEnMin= 7 EnMin= -796.013056145812     IErMin= 7 ErrMin= 1.07D-06
 ErrMax= 1.07D-06  0.00D+00 EMaxC= 1.00D-01 BMatC= 1.91D-10 BMatP= 2.74D-09
 IDIUse=1 WtCom= 1.00D+00 WtEn= 0.00D+00
 Coeff-Com:  0.487D-03-0.653D-03 0.115D-02 0.619D-03-0.291D-01 0.183D+00
 Coeff-Com:  0.845D+00
 Coeff:      0.487D-03-0.653D-03 0.115D-02 0.619D-03-0.291D-01 0.183D+00
 Coeff:      0.845D+00
 Gap=     0.065 Goal=   None    Shift=    0.000
 Gap=     0.065 Goal=   None    Shift=    0.000
 RMSDP=1.55D-07 MaxDP=2.87D-06 DE=-9.36D-10 OVMax= 3.20D-06

 Cycle   8  Pass 1  IDiag  1:
 E= -796.013056145866     Delta-E=       -0.000000000054 Rises=F Damp=F
 DIIS: error= 5.71D-08 at cycle   8 NSaved=   8.
 NSaved= 8 IEnMin= 8 EnMin= -796.013056145866     IErMin= 8 ErrMin= 5.71D-08
 ErrMax= 5.71D-08  0.00D+00 EMaxC= 1.00D-01 BMatC= 6.12D-13 BMatP= 1.91D-10
 IDIUse=1 WtCom= 1.00D+00 WtEn= 0.00D+00
 Coeff-Com:  0.232D-04-0.319D-04 0.119D-03 0.229D-03-0.728D-03-0.274D-01
 Coeff-Com: -0.762D-01 0.110D+01
 Coeff:      0.232D-04-0.319D-04 0.119D-03 0.229D-03-0.728D-03-0.274D-01
 Coeff:     -0.762D-01 0.110D+01
 Gap=     0.065 Goal=   None    Shift=    0.000
 Gap=     0.065 Goal=   None    Shift=    0.000
 RMSDP=2.26D-08 MaxDP=4.90D-07 DE=-5.40D-11 OVMax= 3.33D-07

 Cycle   9  Pass 1  IDiag  1:
 E= -796.013056145867     Delta-E=       -0.000000000001 Rises=F Damp=F
 DIIS: error= 3.76D-09 at cycle   9 NSaved=   9.
 NSaved= 9 IEnMin= 9 EnMin= -796.013056145867     IErMin= 9 ErrMin= 3.76D-09
 ErrMax= 3.76D-09  0.00D+00 EMaxC= 1.00D-01 BMatC= 2.22D-15 BMatP= 6.12D-13
 IDIUse=1 WtCom= 1.00D+00 WtEn= 0.00D+00
 Coeff-Com: -0.243D-05 0.333D-05-0.119D-04-0.181D-04 0.106D-03 0.282D-02
 Coeff-Com:  0.484D-02-0.113D+00 0.111D+01
 Coeff:     -0.243D-05 0.333D-05-0.119D-04-0.181D-04 0.106D-03 0.282D-02
 Coeff:      0.484D-02-0.113D+00 0.111D+01
 Gap=     0.065 Goal=   None    Shift=    0.000
 Gap=     0.065 Goal=   None    Shift=    0.000
 RMSDP=8.49D-10 MaxDP=9.77D-09 DE=-9.09D-13 OVMax= 2.32D-08

 SCF Done:  E(UM062X) =  -796.013056146     A.U. after    9 cycles
            NFock=  9  Conv=0.85D-09     -V/T= 2.0013
 <Sx>= 0.0000 <Sy>= 0.0000 <Sz>= 0.0000 <S**2>=-0.0000 S=-0.0000
 <L.S>=  0.00000000000    
 KE= 7.949868174185D+02 PE=-1.954161908009D+03 EE= 3.327222164513D+02
 Annihilation of the first spin contaminant:
 S**2 before annihilation    -0.0000,   after     0.0000
 Leave Link  502 at Mon Apr 21 20:09:24 2025, MaxMem=   536870912 cpu:               7.6 elap:               1.5
 (Enter /home/szhao/Apps/g16/l601.exe)
 Copying SCF densities to generalized density rwf, IOpCl= 1 IROHF=0.

 **********************************************************************

            Population analysis using the SCF density.

 **********************************************************************

 Orbital symmetries:
 Alpha Orbitals:
       Occupied  (SGU) (SGG) (SGG) (SGU) (SGU) (SGG) (PIG) (PIU)
                 (PIG) (PIU) (SGG) (SGU) (PIU) (PIG) (SGG) (PIU)
       Virtual   (PIG) (SGU) (SGG) (SGU) (PIU) (PIU) (SGG) (PIG)
                 (PIG) (SGU) (SGG) (PIU) (PIU) (PIG) (PIG) (SGU)
                 (SGG) (SGU) (PIU) (?A) (PIG) (?B) (?A) (?B) (PIU)
                 (PIG) (?A) (?B) (SGG) (PIU) (PIU) (PIG) (PIG)
                 (SGU) (SGG) (SGU) (SGG) (PIU) (PIU) (PIG) (PIG)
                 (SGU) (SGG) (SGU)
 Beta  Orbitals:
       Occupied  (SGU) (SGG) (SGG) (SGU) (SGU) (SGG) (PIG) (PIU)
                 (PIG) (PIU) (SGG) (SGU) (PIU) (PIG) (SGG) (PIU)
       Virtual   (PIG) (SGU) (SGG) (SGU) (PIU) (PIU) (SGG) (PIG)
                 (PIG) (SGU) (SGG) (PIU) (PIU) (PIG) (PIG) (SGU)
                 (SGG) (SGU) (PIU) (?A) (PIG) (?B) (?A) (?B) (PIU)
                 (PIG) (?A) (?B) (SGG) (PIU) (PIU) (PIG) (PIG)
                 (SGU) (SGG) (SGU) (SGG) (PIU) (PIU) (PIG) (PIG)
                 (SGU) (SGG) (SGU)
 Unable to determine electronic state:  partially filled degenerate orbitals.
 Alpha  occ. eigenvalues --  -89.98493 -89.98493  -8.34329  -8.34329  -6.26354
 Alpha  occ. eigenvalues --   -6.26354  -6.26337  -6.26337  -6.25517  -6.25517
 Alpha  occ. eigenvalues --   -0.77866  -0.77456  -0.34707  -0.34488  -0.31428
 Alpha  occ. eigenvalues --   -0.30609
 Alpha virt. eigenvalues --   -0.24134  -0.23261   0.02864   0.03937   0.04626
 Alpha virt. eigenvalues --    0.05034   0.06922   0.06949   0.07393   0.11818
 Alpha virt. eigenvalues --    0.30242   0.33027   0.33856   0.35233   0.36082
 Alpha virt. eigenvalues --    0.38083   0.59236   0.62002   0.77213   0.77279
 Alpha virt. eigenvalues --    0.77363   0.77955   0.79350   0.79387   0.79406
 Alpha virt. eigenvalues --    0.79484   0.79616   0.79924   1.63462   1.63525
 Alpha virt. eigenvalues --    1.64198   1.65547   1.66220   1.67185   7.68175
 Alpha virt. eigenvalues --    7.70776  17.39260  17.39444  17.39479  17.40838
 Alpha virt. eigenvalues --   17.40868  17.42554 188.92361 188.95339
  Beta  occ. eigenvalues --  -89.98493 -89.98493  -8.34329  -8.34329  -6.26354
  Beta  occ. eigenvalues --   -6.26354  -6.26337  -6.26337  -6.25517  -6.25517
  Beta  occ. eigenvalues --   -0.77866  -0.77456  -0.34707  -0.34488  -0.31428
  Beta  occ. eigenvalues --   -0.30609
  Beta virt. eigenvalues --   -0.24134  -0.23261   0.02864   0.03937   0.04626
  Beta virt. eigenvalues --    0.05034   0.06922   0.06949   0.07393   0.11818
  Beta virt. eigenvalues --    0.30242   0.33027   0.33856   0.35233   0.36082
  Beta virt. eigenvalues --    0.38083   0.59236   0.62002   0.77213   0.77279
  Beta virt. eigenvalues --    0.77363   0.77955   0.79350   0.79387   0.79406
  Beta virt. eigenvalues --    0.79484   0.79616   0.79924   1.63462   1.63525
  Beta virt. eigenvalues --    1.64198   1.65547   1.66220   1.67185   7.68175
  Beta virt. eigenvalues --    7.70776  17.39260  17.39444  17.39479  17.40838
  Beta virt. eigenvalues --   17.40868  17.42554 188.92361 188.95339
          Condensed to atoms (all electrons):
               1          2
     1  S   15.940592   0.059408
     2  S    0.059408  15.940592
          Atomic-Atomic Spin Densities.
               1          2
     1  S   -0.000000   0.000000
     2  S    0.000000  -0.000000
 Mulliken charges and spin densities:
               1          2
     1  S   -0.000000  -0.000000
     2  S   -0.000000  -0.000000
 Sum of Mulliken charges =  -0.00000  -0.00000
 Mulliken charges and spin densities with hydrogens summed into heavy atoms:
               1          2
     1  S   -0.000000  -0.000000
     2  S   -0.000000  -0.000000
 Electronic spatial extent (au):  <R**2>=            624.3554
 Charge=             -0.0000 electrons
 Dipole moment (field-independent basis, Debye):
    X=             -0.0000    Y=              0.0000    Z=             -0.0000  Tot=              0.0000
 Quadrupole moment (field-independent basis, Debye-Ang):
   XX=            -25.3413   YY=            -30.4094   ZZ=            -22.9681
   XY=              0.0000   XZ=             -0.0000   YZ=              0.0000
 Traceless Quadrupole moment (field-independent basis, Debye-Ang):
   XX=              0.8983   YY=             -4.1698   ZZ=              3.2715
   XY=              0.0000   XZ=             -0.0000   YZ=              0.0000
 Octapole moment (field-independent basis, Debye-Ang**2):
  XXX=             -0.0000  YYY=              0.0000  ZZZ=              0.0000  XYY=             -0.0000
  XXY=              0.0000  XXZ=             -0.0000  XZZ=             -0.0000  YZZ=              0.0000
  YYZ=             -0.0000  XYZ=              0.0000
 Hexadecapole moment (field-independent basis, Debye-Ang**3):
 XXXX=            -35.8590 YYYY=            -47.2513 ZZZZ=           -758.1466 XXXY=             -0.0000
 XXXZ=              0.0000 YYYX=             -0.0000 YYYZ=              0.0000 ZZZX=              0.0000
 ZZZY=              0.0000 XXYY=            -13.8516 XXZZ=           -134.9040 YYZZ=           -162.2727
 XXYZ=              0.0000 YYXZ=              0.0000 ZZXY=             -0.0000
 N-N= 3.043981799288D+01 E-N=-1.954161907990D+03  KE= 7.949868174185D+02
 Symmetry AG   KE= 3.229043719045D+02
 Symmetry B1G  KE= 1.452221209687D-35
 Symmetry B2G  KE= 3.533422958354D+01
 Symmetry B3G  KE= 3.918953794185D+01
 Symmetry AU   KE= 1.368724721298D-35
 Symmetry B1U  KE= 3.195776305532D+02
 Symmetry B2U  KE= 3.913533873879D+01
 Symmetry B3U  KE= 3.884570869657D+01
 Symmetry AG   SP= 1.138341789286D-14
 Symmetry B1G  SP= 1.073289943501D-49
 Symmetry B2G  SP= 1.177364182054D-15
 Symmetry B3G  SP=-2.858063014113D-15
 Symmetry AU   SP= 1.465141065011D-49
 Symmetry B1U  SP=-1.289674119566D-15
 Symmetry B2U  SP=-6.532023558400D-15
 Symmetry B3U  SP= 1.204603620221D-15
                          Isotropic Fermi Contact Couplings
        Atom                 a.u.       MegaHertz       Gauss      10(-4) cm-1
     1  S(33)              0.00000       0.00000       0.00000       0.00000
     2  S(33)              0.00000       0.00000       0.00000       0.00000
 --------------------------------------------------------
       Center         ----  Spin Dipole Couplings  ----
                      3XX-RR        3YY-RR        3ZZ-RR
 --------------------------------------------------------
     1   Atom        0.000000      0.000000      0.000000
     2   Atom        0.000000      0.000000      0.000000
 --------------------------------------------------------
                        XY            XZ            YZ
 --------------------------------------------------------
     1   Atom        0.000000      0.000000      0.000000
     2   Atom        0.000000      0.000000      0.000000
 --------------------------------------------------------


 ---------------------------------------------------------------------------------
              Anisotropic Spin Dipole Couplings in Principal Axis System
 ---------------------------------------------------------------------------------

       Atom             a.u.   MegaHertz   Gauss  10(-4) cm-1        Axes

              Baa     0.0000     0.000     0.000     0.000  1.0000  0.0000  0.0000
     1 S(33)  Bbb     0.0000     0.000     0.000     0.000 -0.0000  1.0000  0.0000
              Bcc     0.0000     0.000     0.000     0.000  0.0000  0.0000  1.0000
 
              Baa     0.0000     0.000     0.000     0.000  1.0000  0.0000  0.0000
     2 S(33)  Bbb     0.0000     0.000     0.000     0.000 -0.0000  1.0000  0.0000
              Bcc     0.0000     0.000     0.000     0.000  0.0000  0.0000  1.0000
 

 ---------------------------------------------------------------------------------

 No NMR shielding tensors so no spin-rotation constants.
 Leave Link  601 at Mon Apr 21 20:09:25 2025, MaxMem=   536870912 cpu:               1.7 elap:               0.7
 (Enter /home/szhao/Apps/g16/l607.exe)
 ******************************Gaussian NBO Version 3.1******************************
             N A T U R A L   A T O M I C   O R B I T A L   A N D
          N A T U R A L   B O N D   O R B I T A L   A N A L Y S I S
 ******************************Gaussian NBO Version 3.1******************************
       /RESON  / : Allow strongly delocalized NBO set

 Analyzing the SCF density

 Job title: Title Card Required                                             

 Storage needed:     11250 in NPA,     14614 in NBO ( 536870884 available)
 GSVD:  LWork=        -264 too small for GESVD, short by        7614 words or        7614 for optimal perf.


 NATURAL POPULATIONS:  Natural atomic orbital occupancies 
                                                          
   NAO  Atom  No  lang   Type(AO)    Occupancy
 --------------------------------------------
     1    S    1  S      Cor( 1S)     2.00000
     2    S    1  S      Cor( 2S)     2.00000
     3    S    1  S      Val( 3S)     1.99901
     4    S    1  S      Ryd( 4S)     0.00011
     5    S    1  S      Ryd( 5S)     0.00000
     6    S    1  S      Ryd( 7S)     0.00000
     7    S    1  S      Ryd( 6S)     0.00000
     8    S    1  px     Cor( 2p)     2.00000
     9    S    1  px     Val( 3p)     0.99987
    10    S    1  px     Ryd( 4p)     0.00009
    11    S    1  px     Ryd( 5p)     0.00003
    12    S    1  px     Ryd( 6p)     0.00000
    13    S    1  px     Ryd( 7p)     0.00000
    14    S    1  py     Cor( 2p)     2.00000
    15    S    1  py     Val( 3p)     1.99958
    16    S    1  py     Ryd( 4p)     0.00030
    17    S    1  py     Ryd( 5p)     0.00013
    18    S    1  py     Ryd( 6p)     0.00000
    19    S    1  py     Ryd( 7p)     0.00000
    20    S    1  pz     Cor( 2p)     2.00000
    21    S    1  pz     Val( 3p)     1.00041
    22    S    1  pz     Ryd( 4p)     0.00016
    23    S    1  pz     Ryd( 5p)     0.00000
    24    S    1  pz     Ryd( 6p)     0.00000
    25    S    1  pz     Ryd( 7p)     0.00000
    26    S    1  dxy    Ryd( 3d)     0.00000
    27    S    1  dxz    Ryd( 3d)     0.00001
    28    S    1  dyz    Ryd( 3d)     0.00000
    29    S    1  dx2y2  Ryd( 3d)     0.00021
    30    S    1  dz2    Ryd( 3d)     0.00011
 
    31    S    2  S      Cor( 1S)     2.00000
    32    S    2  S      Cor( 2S)     2.00000
    33    S    2  S      Val( 3S)     1.99901
    34    S    2  S      Ryd( 4S)     0.00011
    35    S    2  S      Ryd( 5S)     0.00000
    36    S    2  S      Ryd( 7S)     0.00000
    37    S    2  S      Ryd( 6S)     0.00000
    38    S    2  px     Cor( 2p)     2.00000
    39    S    2  px     Val( 3p)     0.99987
    40    S    2  px     Ryd( 4p)     0.00009
    41    S    2  px     Ryd( 5p)     0.00003
    42    S    2  px     Ryd( 6p)     0.00000
    43    S    2  px     Ryd( 7p)     0.00000
    44    S    2  py     Cor( 2p)     2.00000
    45    S    2  py     Val( 3p)     1.99958
    46    S    2  py     Ryd( 4p)     0.00030
    47    S    2  py     Ryd( 5p)     0.00013
    48    S    2  py     Ryd( 6p)     0.00000
    49    S    2  py     Ryd( 7p)     0.00000
    50    S    2  pz     Cor( 2p)     2.00000
    51    S    2  pz     Val( 3p)     1.00041
    52    S    2  pz     Ryd( 4p)     0.00016
    53    S    2  pz     Ryd( 5p)     0.00000
    54    S    2  pz     Ryd( 6p)     0.00000
    55    S    2  pz     Ryd( 7p)     0.00000
    56    S    2  dxy    Ryd( 3d)     0.00000
    57    S    2  dxz    Ryd( 3d)     0.00001
    58    S    2  dyz    Ryd( 3d)     0.00000
    59    S    2  dx2y2  Ryd( 3d)     0.00021
    60    S    2  dz2    Ryd( 3d)     0.00011


 Summary of Natural Population Analysis:                  
                                                          
                                       Natural Population 
                Natural  -----------------------------------------------
    Atom  No    Charge         Core      Valence    Rydberg      Total
 -----------------------------------------------------------------------
      S    1   -0.00000      9.99999     5.99887    0.00114    16.00000
      S    2   -0.00000      9.99999     5.99887    0.00114    16.00000
 =======================================================================
   * Total *   -0.00000     19.99999    11.99774    0.00228    32.00000

                                 Natural Population      
 --------------------------------------------------------
   Core                      19.99999 ( 99.9999% of  20)
   Valence                   11.99774 ( 99.9811% of  12)
   Natural Minimal Basis     31.99772 ( 99.9929% of  32)
   Natural Rydberg Basis      0.00228 (  0.0071% of  32)
 --------------------------------------------------------

    Atom  No          Natural Electron Configuration
 ----------------------------------------------------------------------------
      S    1      [core]3S( 2.00)3p( 4.00)
      S    2      [core]3S( 2.00)3p( 4.00)


 ***************************************************
 *******         Alpha spin orbitals         *******
 ***************************************************


 NATURAL POPULATIONS:  Natural atomic orbital occupancies 
                                                          
   NAO  Atom  No  lang   Type(AO)    Occupancy      Energy
 ----------------------------------------------------------
     1    S    1  S      Cor( 1S)     1.00000     -89.79783
     2    S    1  S      Cor( 2S)     1.00000      -8.51335
     3    S    1  S      Val( 3S)     0.99950      -0.79311
     4    S    1  S      Ryd( 4S)     0.00005       0.09543
     5    S    1  S      Ryd( 5S)     0.00000       1.58881
     6    S    1  S      Ryd( 7S)     0.00000     185.28049
     7    S    1  S      Ryd( 6S)     0.00000      10.32774
     8    S    1  px     Cor( 2p)     1.00000      -6.26337
     9    S    1  px     Val( 3p)     0.49994      -0.27356
    10    S    1  px     Ryd( 5p)     0.00004       0.33635
    11    S    1  px     Ryd( 4p)     0.00002       0.30572
    12    S    1  px     Ryd( 6p)     0.00000       1.54600
    13    S    1  px     Ryd( 7p)     0.00000      17.25797
    14    S    1  py     Cor( 2p)     1.00000      -6.25514
    15    S    1  py     Val( 3p)     0.99979      -0.34585
    16    S    1  py     Ryd( 5p)     0.00015       0.33931
    17    S    1  py     Ryd( 4p)     0.00007       0.31124
    18    S    1  py     Ryd( 6p)     0.00000       1.55627
    19    S    1  py     Ryd( 7p)     0.00000      17.25891
    20    S    1  pz     Cor( 2p)     1.00000      -6.26354
    21    S    1  pz     Val( 3p)     0.50021      -0.27328
    22    S    1  pz     Ryd( 5p)     0.00008       0.35209
    23    S    1  pz     Ryd( 4p)     0.00000       0.33109
    24    S    1  pz     Ryd( 6p)     0.00000       1.54030
    25    S    1  pz     Ryd( 7p)     0.00000      17.25866
    26    S    1  dxy    Ryd( 3d)     0.00000       0.79368
    27    S    1  dxz    Ryd( 3d)     0.00000       0.77264
    28    S    1  dyz    Ryd( 3d)     0.00000       0.79421
    29    S    1  dx2y2  Ryd( 3d)     0.00010       0.79014
    30    S    1  dz2    Ryd( 3d)     0.00005       0.77950
 
    31    S    2  S      Cor( 1S)     1.00000     -89.79783
    32    S    2  S      Cor( 2S)     1.00000      -8.51335
    33    S    2  S      Val( 3S)     0.99950      -0.79311
    34    S    2  S      Ryd( 4S)     0.00005       0.09543
    35    S    2  S      Ryd( 5S)     0.00000       1.58881
    36    S    2  S      Ryd( 7S)     0.00000     185.28049
    37    S    2  S      Ryd( 6S)     0.00000      10.32774
    38    S    2  px     Cor( 2p)     1.00000      -6.26337
    39    S    2  px     Val( 3p)     0.49994      -0.27356
    40    S    2  px     Ryd( 5p)     0.00004       0.33635
    41    S    2  px     Ryd( 4p)     0.00002       0.30572
    42    S    2  px     Ryd( 6p)     0.00000       1.54600
    43    S    2  px     Ryd( 7p)     0.00000      17.25797
    44    S    2  py     Cor( 2p)     1.00000      -6.25514
    45    S    2  py     Val( 3p)     0.99979      -0.34585
    46    S    2  py     Ryd( 5p)     0.00015       0.33931
    47    S    2  py     Ryd( 4p)     0.00007       0.31124
    48    S    2  py     Ryd( 6p)     0.00000       1.55627
    49    S    2  py     Ryd( 7p)     0.00000      17.25891
    50    S    2  pz     Cor( 2p)     1.00000      -6.26354
    51    S    2  pz     Val( 3p)     0.50021      -0.27328
    52    S    2  pz     Ryd( 5p)     0.00008       0.35209
    53    S    2  pz     Ryd( 4p)     0.00000       0.33109
    54    S    2  pz     Ryd( 6p)     0.00000       1.54030
    55    S    2  pz     Ryd( 7p)     0.00000      17.25866
    56    S    2  dxy    Ryd( 3d)     0.00000       0.79368
    57    S    2  dxz    Ryd( 3d)     0.00000       0.77264
    58    S    2  dyz    Ryd( 3d)     0.00000       0.79421
    59    S    2  dx2y2  Ryd( 3d)     0.00010       0.79014
    60    S    2  dz2    Ryd( 3d)     0.00005       0.77950

 WARNING:  Population inversion found on atom  S    1
           Population inversion found on atom  S    2


 Summary of Natural Population Analysis:                  
                                                          
                                       Natural Population 
                Natural  -----------------------------------------------
    Atom  No    Charge         Core      Valence    Rydberg      Total
 -----------------------------------------------------------------------
      S    1   -0.00000      5.00000     2.99943    0.00057     8.00000
      S    2   -0.00000      5.00000     2.99943    0.00057     8.00000
 =======================================================================
   * Total *   -0.00000      9.99999     5.99887    0.00114    16.00000

                                 Natural Population      
 --------------------------------------------------------
   Core                       9.99999 ( 99.9999% of  10)
   Valence                    5.99887 ( 99.9811% of   6)
   Natural Minimal Basis     15.99886 ( 99.9929% of  16)
   Natural Rydberg Basis      0.00114 (  0.0071% of  16)
 --------------------------------------------------------

    Atom  No          Natural Electron Configuration
 ----------------------------------------------------------------------------
      S    1      [core]3S( 1.00)3p( 2.00)
      S    2      [core]3S( 1.00)3p( 2.00)


 NATURAL BOND ORBITAL ANALYSIS, alpha spin orbitals:

                       Occupancies       Lewis Structure    Low   High
           Occ.    -------------------  -----------------   occ   occ
  Cycle   Thresh.   Lewis   Non-Lewis     CR  BD  3C  LP    (L)   (NL)   Dev
 =============================================================================
   1(1)    0.90    15.99978   0.00022     10   2   0   4     0      0    0.00
 -----------------------------------------------------------------------------

 Structure accepted: No low occupancy Lewis orbitals

 --------------------------------------------------------
   Core                      9.99999 (100.000% of  10)
   Valence Lewis             5.99978 ( 99.996% of   6)
  ==================       ============================
   Total Lewis              15.99978 ( 99.999% of  16)
  -----------------------------------------------------
   Valence non-Lewis         0.00000 (  0.000% of  16)
   Rydberg non-Lewis         0.00022 (  0.001% of  16)
  ==================       ============================
   Total non-Lewis           0.00022 (  0.001% of  16)
 --------------------------------------------------------


       (Occupancy)   Bond orbital/ Coefficients/ Hybrids
 ---------------------------------------------------------------------------------
     1. (1.00000) BD ( 1) S   1 - S   2  
                ( 50.00%)   0.7071* S   1 s(  0.00%)p 1.00(100.00%)d 0.00(  0.00%)
                                            0.0000  0.0000  0.0000  0.0000  0.0000
                                            0.0000  0.0000 -0.0000  0.9999  0.0092
                                           -0.0057  0.0002 -0.0001  0.0000  0.0000
                                            0.0000  0.0000  0.0000  0.0000  0.0000
                                            0.0000  0.0000  0.0000  0.0000  0.0000
                                            0.0000 -0.0031  0.0000  0.0000  0.0000
                ( 50.00%)   0.7071* S   2 s(  0.00%)p 1.00(100.00%)d 0.00(  0.00%)
                                            0.0000  0.0000  0.0000  0.0000  0.0000
                                            0.0000  0.0000 -0.0000  0.9999  0.0092
                                           -0.0057  0.0002 -0.0001  0.0000  0.0000
                                            0.0000  0.0000  0.0000  0.0000  0.0000
                                            0.0000  0.0000  0.0000  0.0000  0.0000
                                            0.0000  0.0031  0.0000  0.0000  0.0000
     2. (1.00000) BD ( 2) S   1 - S   2  
                ( 50.00%)   0.7071* S   1 s(  0.08%)p99.99( 99.92%)d 0.05(  0.00%)
                                           -0.0000 -0.0000  0.0260 -0.0093  0.0004
                                            0.0000 -0.0000  0.0000  0.0000  0.0000
                                            0.0000  0.0000  0.0000  0.0000  0.0000
                                            0.0000  0.0000  0.0000  0.0000 -0.0000
                                           -0.9995 -0.0121 -0.0009  0.0002  0.0000
                                            0.0000  0.0000  0.0000  0.0003  0.0060
                ( 50.00%)   0.7071* S   2 s(  0.08%)p99.99( 99.92%)d 0.05(  0.00%)
                                           -0.0000  0.0000  0.0260 -0.0093  0.0004
                                            0.0000 -0.0000  0.0000  0.0000  0.0000
                                            0.0000  0.0000  0.0000  0.0000  0.0000
                                            0.0000  0.0000  0.0000  0.0000  0.0000
                                            0.9995  0.0121  0.0009 -0.0002 -0.0000
                                            0.0000  0.0000  0.0000  0.0003  0.0060
     3. (1.00000) CR ( 1) S   1           s(100.00%)
                                            1.0000 -0.0000 -0.0000 -0.0000  0.0000
                                            0.0000 -0.0000  0.0000  0.0000  0.0000
                                            0.0000  0.0000  0.0000  0.0000  0.0000
                                            0.0000  0.0000  0.0000  0.0000 -0.0000
                                           -0.0000 -0.0000 -0.0000  0.0000 -0.0000
                                            0.0000  0.0000  0.0000 -0.0000 -0.0000
     4. (1.00000) CR ( 2) S   1           s(100.00%)
                                           -0.0000  1.0000 -0.0000 -0.0000  0.0000
                                            0.0000 -0.0000  0.0000  0.0000  0.0000
                                            0.0000  0.0000  0.0000  0.0000  0.0000
                                            0.0000  0.0000  0.0000  0.0000 -0.0000
                                           -0.0000 -0.0000 -0.0000  0.0000 -0.0000
                                            0.0000  0.0000  0.0000 -0.0000 -0.0000
     5. (1.00000) CR ( 3) S   1           s(  0.00%)p 1.00(100.00%)
                                            0.0000  0.0000  0.0000  0.0000  0.0000
                                            0.0000  0.0000  1.0000  0.0000  0.0000
                                            0.0000  0.0000  0.0000  0.0000  0.0000
                                            0.0000  0.0000  0.0000  0.0000  0.0000
                                            0.0000  0.0000  0.0000  0.0000  0.0000
                                            0.0000  0.0000  0.0000  0.0000  0.0000
     6. (1.00000) CR ( 4) S   1           s(  0.00%)p 1.00(100.00%)
                                            0.0000  0.0000  0.0000  0.0000  0.0000
                                            0.0000  0.0000  0.0000  0.0000  0.0000
                                            0.0000  0.0000  0.0000  1.0000 -0.0000
                                            0.0000 -0.0000  0.0000 -0.0000  0.0000
                                            0.0000  0.0000  0.0000  0.0000  0.0000
                                            0.0000  0.0000 -0.0000  0.0000  0.0000
     7. (1.00000) CR ( 5) S   1           s(  0.00%)p 1.00(100.00%)
                                           -0.0000 -0.0000 -0.0000 -0.0000  0.0000
                                            0.0000 -0.0000  0.0000  0.0000  0.0000
                                            0.0000  0.0000  0.0000  0.0000  0.0000
                                            0.0000  0.0000  0.0000  0.0000  1.0000
                                           -0.0000 -0.0000 -0.0000  0.0000 -0.0000
                                            0.0000  0.0000  0.0000 -0.0000 -0.0000
     8. (1.00000) CR ( 1) S   2           s(100.00%)
                                            1.0000 -0.0000 -0.0000 -0.0000  0.0000
                                            0.0000 -0.0000  0.0000  0.0000  0.0000
                                            0.0000  0.0000  0.0000  0.0000  0.0000
                                            0.0000  0.0000  0.0000  0.0000  0.0000
                                            0.0000  0.0000  0.0000 -0.0000  0.0000
                                            0.0000  0.0000  0.0000 -0.0000 -0.0000
     9. (1.00000) CR ( 2) S   2           s(100.00%)
                                           -0.0000  1.0000 -0.0000 -0.0000  0.0000
                                            0.0000 -0.0000  0.0000  0.0000  0.0000
                                            0.0000  0.0000  0.0000  0.0000  0.0000
                                            0.0000  0.0000  0.0000  0.0000  0.0000
                                            0.0000  0.0000  0.0000 -0.0000  0.0000
                                            0.0000  0.0000  0.0000 -0.0000 -0.0000
    10. (1.00000) CR ( 3) S   2           s(  0.00%)p 1.00(100.00%)
                                            0.0000  0.0000  0.0000  0.0000  0.0000
                                            0.0000  0.0000  1.0000  0.0000  0.0000
                                            0.0000  0.0000  0.0000  0.0000  0.0000
                                            0.0000  0.0000  0.0000  0.0000  0.0000
                                            0.0000  0.0000  0.0000  0.0000  0.0000
                                            0.0000  0.0000  0.0000  0.0000  0.0000
    11. (1.00000) CR ( 4) S   2           s(  0.00%)p 1.00(100.00%)
                                            0.0000  0.0000  0.0000  0.0000  0.0000
                                            0.0000  0.0000  0.0000  0.0000  0.0000
                                            0.0000  0.0000  0.0000  1.0000 -0.0000
                                            0.0000 -0.0000  0.0000 -0.0000  0.0000
                                            0.0000  0.0000  0.0000  0.0000  0.0000
                                            0.0000  0.0000  0.0000  0.0000  0.0000
    12. (1.00000) CR ( 5) S   2           s(  0.00%)p 1.00(100.00%)
                                            0.0000  0.0000  0.0000  0.0000 -0.0000
                                           -0.0000  0.0000  0.0000  0.0000  0.0000
                                            0.0000  0.0000  0.0000  0.0000  0.0000
                                            0.0000  0.0000  0.0000  0.0000  1.0000
                                           -0.0000 -0.0000 -0.0000  0.0000 -0.0000
                                            0.0000  0.0000  0.0000  0.0000  0.0000
    13. (0.99998) LP ( 1) S   1           s( 99.92%)p 0.00(  0.07%)d 0.00(  0.01%)
                                            0.0000  0.0000  0.9996  0.0001 -0.0000
                                           -0.0000  0.0000  0.0000  0.0000  0.0000
                                            0.0000  0.0000  0.0000  0.0000  0.0000
                                            0.0000  0.0000  0.0000  0.0000  0.0000
                                            0.0260  0.0006  0.0004 -0.0000  0.0001
                                            0.0000  0.0000  0.0000  0.0101  0.0060
    14. (0.99991) LP ( 2) S   1           s(  0.00%)p 1.00(100.00%)
                                            0.0000  0.0000  0.0000  0.0000  0.0000
                                            0.0000  0.0000  0.0000  0.0000  0.0000
                                            0.0000  0.0000  0.0000  0.0000  0.9999
                                           -0.0107  0.0024 -0.0000  0.0000  0.0000
                                            0.0000  0.0000  0.0000  0.0000  0.0000
                                            0.0000  0.0000  0.0001  0.0000  0.0000
    15. (0.99998) LP ( 1) S   2           s( 99.92%)p 0.00(  0.07%)d 0.00(  0.01%)
                                            0.0000  0.0000  0.9996  0.0001 -0.0000
                                           -0.0000  0.0000  0.0000  0.0000  0.0000
                                            0.0000  0.0000  0.0000  0.0000  0.0000
                                            0.0000  0.0000  0.0000  0.0000 -0.0000
                                           -0.0260 -0.0006 -0.0004  0.0000 -0.0001
                                            0.0000  0.0000  0.0000  0.0101  0.0060
    16. (0.99991) LP ( 2) S   2           s(  0.00%)p 1.00(100.00%)
                                            0.0000  0.0000  0.0000  0.0000  0.0000
                                            0.0000  0.0000  0.0000  0.0000  0.0000
                                            0.0000  0.0000  0.0000  0.0000  0.9999
                                           -0.0107  0.0024 -0.0000  0.0000  0.0000
                                            0.0000  0.0000  0.0000  0.0000  0.0000
                                            0.0000  0.0000 -0.0001  0.0000  0.0000
    17. (0.00009) RY*( 1) S   1           s(  0.00%)p 1.00( 99.99%)d 0.00(  0.01%)
    18. (0.00001) RY*( 2) S   1           s( 89.41%)p 0.10(  8.67%)d 0.02(  1.92%)
    19. (0.00000) RY*( 3) S   1           s(100.00%)p 0.00(  0.00%)
    20. (0.00000) RY*( 4) S   1           s(100.00%)p 0.00(  0.00%)d 0.00(  0.00%)
    21. (0.00000) RY*( 5) S   1           s(  0.00%)p 1.00(100.00%)
    22. (0.00000) RY*( 6) S   1           s(  0.00%)p 1.00(100.00%)
    23. (0.00000) RY*( 7) S   1           s(  0.00%)p 1.00(100.00%)
    24. (0.00000) RY*( 8) S   1           s(  0.00%)p 1.00(100.00%)
    25. (0.00000) RY*( 9) S   1           s(  0.00%)p 1.00(100.00%)
    26. (0.00000) RY*(10) S   1           s( 99.86%)p 0.00(  0.08%)d 0.00(  0.06%)
    27. (0.00000) RY*(11) S   1           s(  0.00%)p 1.00(100.00%)
    28. (0.00000) RY*(12) S   1           s(  0.00%)p 1.00(100.00%)
    29. (0.00000) RY*(13) S   1           s(  0.00%)p 1.00(100.00%)
    30. (0.00000) RY*(14) S   1           s(  6.01%)p15.63( 93.88%)d 0.02(  0.11%)
    31. (0.00000) RY*(15) S   1           s(  2.69%)p36.20( 97.31%)d 0.00(  0.00%)
    32. (0.00000) RY*(16) S   1           s(  0.00%)p 1.00(100.00%)d 0.00(  0.00%)
    33. (0.00000) RY*(17) S   1           s(  0.00%)p 0.00(  0.00%)d 1.00(100.00%)
    34. (0.00000) RY*(18) S   1           s(  0.00%)p 0.00(  0.00%)d 1.00(100.00%)
    35. (0.00000) RY*(19) S   1           s(  0.00%)p 1.00(  0.01%)d99.99( 99.99%)
    36. (0.00000) RY*(20) S   1           s(  0.22%)p 0.09(  0.02%)d99.99( 99.77%)
    37. (0.00000) RY*(21) S   1           s(  1.82%)p 0.03(  0.05%)d53.78( 98.12%)
    38. (0.00009) RY*( 1) S   2           s(  0.00%)p 1.00( 99.99%)d 0.00(  0.01%)
    39. (0.00001) RY*( 2) S   2           s( 89.41%)p 0.10(  8.67%)d 0.02(  1.92%)
    40. (0.00000) RY*( 3) S   2           s(100.00%)p 0.00(  0.00%)
    41. (0.00000) RY*( 4) S   2           s(100.00%)p 0.00(  0.00%)d 0.00(  0.00%)
    42. (0.00000) RY*( 5) S   2           s(  0.00%)p 1.00(100.00%)
    43. (0.00000) RY*( 6) S   2           s(  0.00%)p 1.00(100.00%)
    44. (0.00000) RY*( 7) S   2           s(  0.00%)p 1.00(100.00%)
    45. (0.00000) RY*( 8) S   2           s(  0.00%)p 1.00(100.00%)
    46. (0.00000) RY*( 9) S   2           s(  0.00%)p 1.00(100.00%)
    47. (0.00000) RY*(10) S   2           s( 99.86%)p 0.00(  0.08%)d 0.00(  0.06%)
    48. (0.00000) RY*(11) S   2           s(  0.00%)p 1.00(100.00%)
    49. (0.00000) RY*(12) S   2           s(  0.00%)p 1.00(100.00%)
    50. (0.00000) RY*(13) S   2           s(  0.00%)p 1.00(100.00%)
    51. (0.00000) RY*(14) S   2           s(  6.01%)p15.63( 93.88%)d 0.02(  0.11%)
    52. (0.00000) RY*(15) S   2           s(  2.69%)p36.20( 97.31%)d 0.00(  0.00%)
    53. (0.00000) RY*(16) S   2           s(  0.00%)p 1.00(100.00%)d 0.00(  0.00%)
    54. (0.00000) RY*(17) S   2           s(  0.00%)p 0.00(  0.00%)d 1.00(100.00%)
    55. (0.00000) RY*(18) S   2           s(  0.00%)p 0.00(  0.00%)d 1.00(100.00%)
    56. (0.00000) RY*(19) S   2           s(  0.00%)p 1.00(  0.01%)d99.99( 99.99%)
    57. (0.00000) RY*(20) S   2           s(  0.22%)p 0.09(  0.02%)d99.99( 99.77%)
    58. (0.00000) RY*(21) S   2           s(  1.82%)p 0.03(  0.05%)d53.78( 98.12%)
    59. (0.00000) BD*( 1) S   1 - S   2  
                ( 50.00%)   0.7071* S   1 s(  0.00%)p 1.00(100.00%)d 0.00(  0.00%)
                ( 50.00%)  -0.7071* S   2 s(  0.00%)p 1.00(100.00%)d 0.00(  0.00%)
    60. (0.00000) BD*( 2) S   1 - S   2  
                ( 50.00%)   0.7071* S   1 s(  0.08%)p99.99( 99.92%)d 0.05(  0.00%)
                ( 50.00%)  -0.7071* S   2 s(  0.08%)p99.99( 99.92%)d 0.05(  0.00%)


 NHO Directionality and "Bond Bending" (deviations from line of nuclear centers)

         [Thresholds for printing:  angular deviation  >  1.0 degree]
                                    hybrid p-character > 25.0%
                                    orbital occupancy  >  0.10e

                                Line of Centers        Hybrid 1              Hybrid 2
                                ---------------  -------------------   ------------------
                NBO               Theta   Phi    Theta   Phi    Dev    Theta   Phi    Dev
 ========================================================================================
     1. BD (   1) S   1 - S   2   180.0    0.0    90.0    0.0  90.0     90.0    0.0  90.0
    14. LP (   2) S   1             --     --     90.0   90.0   --       --     --    --
    16. LP (   2) S   2             --     --     90.0   90.0   --       --     --    --


 Second Order Perturbation Theory Analysis of Fock Matrix in NBO Basis

     Threshold for printing:   0.25 kcal/mol
                                                                              E(2)  E(j)-E(i) F(i,j)
         Donor NBO (i)                     Acceptor NBO (j)                 kcal/mol   a.u.    a.u. 
 ===================================================================================================

 within unit  1
       None above threshold


 Natural Bond Orbitals (Summary):

                                                            Principal Delocalizations
           NBO                        Occupancy    Energy   (geminal,vicinal,remote)
 ====================================================================================
 Molecular unit  1  (S2)
     1. BD (   1) S   1 - S   2          1.00000    -0.30609   
     2. BD (   2) S   1 - S   2          1.00000    -0.31530   
     3. CR (   1) S   1                  1.00000   -89.79783   
     4. CR (   2) S   1                  1.00000    -8.51335   
     5. CR (   3) S   1                  1.00000    -6.26337   
     6. CR (   4) S   1                  1.00000    -6.25514   
     7. CR (   5) S   1                  1.00000    -6.26354   
     8. CR (   1) S   2                  1.00000   -89.79783   
     9. CR (   2) S   2                  1.00000    -8.51335   
    10. CR (   3) S   2                  1.00000    -6.26337   
    11. CR (   4) S   2                  1.00000    -6.25514   
    12. CR (   5) S   2                  1.00000    -6.26354   
    13. LP (   1) S   1                  0.99998    -0.79311   
    14. LP (   2) S   1                  0.99991    -0.34594   
    15. LP (   1) S   2                  0.99998    -0.79311   
    16. LP (   2) S   2                  0.99991    -0.34594   
    17. RY*(   1) S   1                  0.00009     0.14325   
    18. RY*(   2) S   1                  0.00001     0.17813   
    19. RY*(   3) S   1                  0.00000   185.27989   
    20. RY*(   4) S   1                  0.00000    10.32807   
    21. RY*(   5) S   1                  0.00000     0.33644   
    22. RY*(   6) S   1                  0.00000     0.30573   
    23. RY*(   7) S   1                  0.00000     1.54600   
    24. RY*(   8) S   1                  0.00000    17.25797   
    25. RY*(   9) S   1                  0.00000     0.50879   
    26. RY*(  10) S   1                  0.00000     1.57698   
    27. RY*(  11) S   1                  0.00000     1.55345   
    28. RY*(  12) S   1                  0.00000    17.26035   
    29. RY*(  13) S   1                  0.00000     0.35231   
    30. RY*(  14) S   1                  0.00000     0.30763   
    31. RY*(  15) S   1                  0.00000     1.51167   
    32. RY*(  16) S   1                  0.00000    17.25910   
    33. RY*(  17) S   1                  0.00000     0.79368   
    34. RY*(  18) S   1                  0.00000     0.77263   
    35. RY*(  19) S   1                  0.00000     0.79419   
    36. RY*(  20) S   1                  0.00000     0.78831   
    37. RY*(  21) S   1                  0.00000     0.76266   
    38. RY*(   1) S   2                  0.00009     0.14325   
    39. RY*(   2) S   2                  0.00001     0.17813   
    40. RY*(   3) S   2                  0.00000   185.27989   
    41. RY*(   4) S   2                  0.00000    10.32807   
    42. RY*(   5) S   2                  0.00000     0.33644   
    43. RY*(   6) S   2                  0.00000     0.30573   
    44. RY*(   7) S   2                  0.00000     1.54600   
    45. RY*(   8) S   2                  0.00000    17.25797   
    46. RY*(   9) S   2                  0.00000     0.50879   
    47. RY*(  10) S   2                  0.00000     1.57698   
    48. RY*(  11) S   2                  0.00000     1.55345   
    49. RY*(  12) S   2                  0.00000    17.26035   
    50. RY*(  13) S   2                  0.00000     0.35231   
    51. RY*(  14) S   2                  0.00000     0.30763   
    52. RY*(  15) S   2                  0.00000     1.51167   
    53. RY*(  16) S   2                  0.00000    17.25910   
    54. RY*(  17) S   2                  0.00000     0.79368   
    55. RY*(  18) S   2                  0.00000     0.77263   
    56. RY*(  19) S   2                  0.00000     0.79419   
    57. RY*(  20) S   2                  0.00000     0.78831   
    58. RY*(  21) S   2                  0.00000     0.76266   
    59. BD*(   1) S   1 - S   2          0.00000    -0.24121   
    60. BD*(   2) S   1 - S   2          0.00000    -0.23224   
       -------------------------------
              Total Lewis   15.99978  ( 99.9986%)
        Valence non-Lewis    0.00000  (  0.0000%)
        Rydberg non-Lewis    0.00022  (  0.0014%)
       -------------------------------
            Total unit  1   16.00000  (100.0000%)
           Charge unit  1    0.00000
 Sorting of NBOs:                    3    8    9    4    7   12   10    5    6   11
 Sorting of NBOs:                   15   13   14   16    2    1   59   60   17   38
 Sorting of NBOs:                   39   18   22   43   51   30   42   21   50   29
 Sorting of NBOs:                   46   25   37   58   55   34   57   36   33   54
 Sorting of NBOs:                   35   56   31   52   23   44   27   48   47   26
 Sorting of NBOs:                   41   20   45   24   53   32   49   28   19   40
 Reordering of NBOs for storage:     3    8    9    4    7   12   10    5    6   11
 Reordering of NBOs for storage:    15   13   14   16    2    1   59   60   17   38
 Reordering of NBOs for storage:    39   18   22   43   51   30   42   21   50   29
 Reordering of NBOs for storage:    46   25   37   58   55   34   57   36   33   54
 Reordering of NBOs for storage:    35   56   31   52   23   44   27   48   47   26
 Reordering of NBOs for storage:    41   20   45   24   53   32   49   28   19   40
 Labels of output orbitals:  CR  CR  CR  CR  CR  CR  CR  CR  CR  CR  LP  LP  LP  LP  BD  BD  BD* BD* RY* RY* 
 Labels of output orbitals:  RY* RY* RY* RY* RY* RY* RY* RY* RY* RY* RY* RY* RY* RY* RY* RY* RY* RY* RY* RY* 
 Labels of output orbitals:  RY* RY* RY* RY* RY* RY* RY* RY* RY* RY* RY* RY* RY* RY* RY* RY* RY* RY* RY* RY* 
 GSVD:  LWork=       -2288 too small for GESVD, short by       10340 words or       10340 for optimal perf.


 ***************************************************
 *******         Beta  spin orbitals         *******
 ***************************************************


 NATURAL POPULATIONS:  Natural atomic orbital occupancies 
                                                          
   NAO  Atom  No  lang   Type(AO)    Occupancy      Energy
 ----------------------------------------------------------
     1    S    1  S      Cor( 1S)     1.00000     -89.79783
     2    S    1  S      Cor( 2S)     1.00000      -8.51335
     3    S    1  S      Val( 3S)     0.99950      -0.79311
     4    S    1  S      Ryd( 4S)     0.00005       0.09543
     5    S    1  S      Ryd( 5S)     0.00000       1.58881
     6    S    1  S      Ryd( 7S)     0.00000     185.28049
     7    S    1  S      Ryd( 6S)     0.00000      10.32774
     8    S    1  px     Cor( 2p)     1.00000      -6.26337
     9    S    1  px     Val( 3p)     0.49994      -0.27356
    10    S    1  px     Ryd( 5p)     0.00004       0.33635
    11    S    1  px     Ryd( 4p)     0.00002       0.30572
    12    S    1  px     Ryd( 6p)     0.00000       1.54600
    13    S    1  px     Ryd( 7p)     0.00000      17.25797
    14    S    1  py     Cor( 2p)     1.00000      -6.25514
    15    S    1  py     Val( 3p)     0.99979      -0.34585
    16    S    1  py     Ryd( 5p)     0.00015       0.33931
    17    S    1  py     Ryd( 4p)     0.00007       0.31124
    18    S    1  py     Ryd( 6p)     0.00000       1.55627
    19    S    1  py     Ryd( 7p)     0.00000      17.25891
    20    S    1  pz     Cor( 2p)     1.00000      -6.26354
    21    S    1  pz     Val( 3p)     0.50021      -0.27328
    22    S    1  pz     Ryd( 5p)     0.00008       0.35209
    23    S    1  pz     Ryd( 4p)     0.00000       0.33109
    24    S    1  pz     Ryd( 6p)     0.00000       1.54030
    25    S    1  pz     Ryd( 7p)     0.00000      17.25866
    26    S    1  dxy    Ryd( 3d)     0.00000       0.79368
    27    S    1  dxz    Ryd( 3d)     0.00000       0.77264
    28    S    1  dyz    Ryd( 3d)     0.00000       0.79421
    29    S    1  dx2y2  Ryd( 3d)     0.00010       0.79014
    30    S    1  dz2    Ryd( 3d)     0.00005       0.77950
 
    31    S    2  S      Cor( 1S)     1.00000     -89.79783
    32    S    2  S      Cor( 2S)     1.00000      -8.51335
    33    S    2  S      Val( 3S)     0.99950      -0.79311
    34    S    2  S      Ryd( 4S)     0.00005       0.09543
    35    S    2  S      Ryd( 5S)     0.00000       1.58881
    36    S    2  S      Ryd( 7S)     0.00000     185.28049
    37    S    2  S      Ryd( 6S)     0.00000      10.32774
    38    S    2  px     Cor( 2p)     1.00000      -6.26337
    39    S    2  px     Val( 3p)     0.49994      -0.27356
    40    S    2  px     Ryd( 5p)     0.00004       0.33635
    41    S    2  px     Ryd( 4p)     0.00002       0.30572
    42    S    2  px     Ryd( 6p)     0.00000       1.54600
    43    S    2  px     Ryd( 7p)     0.00000      17.25797
    44    S    2  py     Cor( 2p)     1.00000      -6.25514
    45    S    2  py     Val( 3p)     0.99979      -0.34585
    46    S    2  py     Ryd( 5p)     0.00015       0.33931
    47    S    2  py     Ryd( 4p)     0.00007       0.31124
    48    S    2  py     Ryd( 6p)     0.00000       1.55627
    49    S    2  py     Ryd( 7p)     0.00000      17.25891
    50    S    2  pz     Cor( 2p)     1.00000      -6.26354
    51    S    2  pz     Val( 3p)     0.50021      -0.27328
    52    S    2  pz     Ryd( 5p)     0.00008       0.35209
    53    S    2  pz     Ryd( 4p)     0.00000       0.33109
    54    S    2  pz     Ryd( 6p)     0.00000       1.54030
    55    S    2  pz     Ryd( 7p)     0.00000      17.25866
    56    S    2  dxy    Ryd( 3d)     0.00000       0.79368
    57    S    2  dxz    Ryd( 3d)     0.00000       0.77264
    58    S    2  dyz    Ryd( 3d)     0.00000       0.79421
    59    S    2  dx2y2  Ryd( 3d)     0.00010       0.79014
    60    S    2  dz2    Ryd( 3d)     0.00005       0.77950

 WARNING:  Population inversion found on atom  S    1
           Population inversion found on atom  S    2


 Summary of Natural Population Analysis:                  
                                                          
                                       Natural Population 
                Natural  -----------------------------------------------
    Atom  No    Charge         Core      Valence    Rydberg      Total
 -----------------------------------------------------------------------
      S    1   -0.00000      5.00000     2.99943    0.00057     8.00000
      S    2   -0.00000      5.00000     2.99943    0.00057     8.00000
 =======================================================================
   * Total *   -0.00000      9.99999     5.99887    0.00114    16.00000

                                 Natural Population      
 --------------------------------------------------------
   Core                       9.99999 ( 99.9999% of  10)
   Valence                    5.99887 ( 99.9811% of   6)
   Natural Minimal Basis     15.99886 ( 99.9929% of  16)
   Natural Rydberg Basis      0.00114 (  0.0071% of  16)
 --------------------------------------------------------

    Atom  No          Natural Electron Configuration
 ----------------------------------------------------------------------------
      S    1      [core]3S( 1.00)3p( 2.00)
      S    2      [core]3S( 1.00)3p( 2.00)


 NATURAL BOND ORBITAL ANALYSIS, beta spin orbitals:

                       Occupancies       Lewis Structure    Low   High
           Occ.    -------------------  -----------------   occ   occ
  Cycle   Thresh.   Lewis   Non-Lewis     CR  BD  3C  LP    (L)   (NL)   Dev
 =============================================================================
   1(1)    0.90    15.99978   0.00022     10   2   0   4     0      0    0.00
 -----------------------------------------------------------------------------

 Structure accepted: No low occupancy Lewis orbitals

 --------------------------------------------------------
   Core                      9.99999 (100.000% of  10)
   Valence Lewis             5.99978 ( 99.996% of   6)
  ==================       ============================
   Total Lewis              15.99978 ( 99.999% of  16)
  -----------------------------------------------------
   Valence non-Lewis         0.00000 (  0.000% of  16)
   Rydberg non-Lewis         0.00022 (  0.001% of  16)
  ==================       ============================
   Total non-Lewis           0.00022 (  0.001% of  16)
 --------------------------------------------------------


       (Occupancy)   Bond orbital/ Coefficients/ Hybrids
 ---------------------------------------------------------------------------------
     1. (1.00000) BD ( 1) S   1 - S   2  
                ( 50.00%)   0.7071* S   1 s(  0.00%)p 1.00(100.00%)d 0.00(  0.00%)
                                            0.0000  0.0000  0.0000  0.0000  0.0000
                                            0.0000  0.0000 -0.0000  0.9999  0.0092
                                           -0.0057  0.0002 -0.0001  0.0000  0.0000
                                            0.0000  0.0000  0.0000  0.0000  0.0000
                                            0.0000  0.0000  0.0000  0.0000  0.0000
                                            0.0000 -0.0031  0.0000  0.0000  0.0000
                ( 50.00%)   0.7071* S   2 s(  0.00%)p 1.00(100.00%)d 0.00(  0.00%)
                                            0.0000  0.0000  0.0000  0.0000  0.0000
                                            0.0000  0.0000 -0.0000  0.9999  0.0092
                                           -0.0057  0.0002 -0.0001  0.0000  0.0000
                                            0.0000  0.0000  0.0000  0.0000  0.0000
                                            0.0000  0.0000  0.0000  0.0000  0.0000
                                            0.0000  0.0031  0.0000  0.0000  0.0000
     2. (1.00000) BD ( 2) S   1 - S   2  
                ( 50.00%)   0.7071* S   1 s(  0.08%)p99.99( 99.92%)d 0.05(  0.00%)
                                           -0.0000 -0.0000  0.0260 -0.0093  0.0004
                                            0.0000 -0.0000  0.0000  0.0000  0.0000
                                            0.0000  0.0000  0.0000  0.0000  0.0000
                                            0.0000  0.0000  0.0000  0.0000 -0.0000
                                           -0.9995 -0.0121 -0.0009  0.0002  0.0000
                                            0.0000  0.0000  0.0000  0.0003  0.0060
                ( 50.00%)   0.7071* S   2 s(  0.08%)p99.99( 99.92%)d 0.05(  0.00%)
                                           -0.0000  0.0000  0.0260 -0.0093  0.0004
                                            0.0000 -0.0000  0.0000  0.0000  0.0000
                                            0.0000  0.0000  0.0000  0.0000  0.0000
                                            0.0000  0.0000  0.0000  0.0000  0.0000
                                            0.9995  0.0121  0.0009 -0.0002 -0.0000
                                            0.0000  0.0000  0.0000  0.0003  0.0060
     3. (1.00000) CR ( 1) S   1           s(100.00%)
                                            1.0000 -0.0000 -0.0000 -0.0000  0.0000
                                            0.0000 -0.0000  0.0000  0.0000  0.0000
                                            0.0000  0.0000  0.0000  0.0000  0.0000
                                            0.0000  0.0000  0.0000  0.0000 -0.0000
                                           -0.0000 -0.0000 -0.0000  0.0000 -0.0000
                                            0.0000  0.0000  0.0000 -0.0000 -0.0000
     4. (1.00000) CR ( 2) S   1           s(100.00%)
                                           -0.0000  1.0000 -0.0000 -0.0000  0.0000
                                            0.0000 -0.0000  0.0000  0.0000  0.0000
                                            0.0000  0.0000  0.0000  0.0000  0.0000
                                            0.0000  0.0000  0.0000  0.0000 -0.0000
                                           -0.0000 -0.0000 -0.0000  0.0000 -0.0000
                                            0.0000  0.0000  0.0000 -0.0000 -0.0000
     5. (1.00000) CR ( 3) S   1           s(  0.00%)p 1.00(100.00%)
                                            0.0000  0.0000  0.0000  0.0000  0.0000
                                            0.0000  0.0000  1.0000  0.0000  0.0000
                                            0.0000  0.0000  0.0000  0.0000  0.0000
                                            0.0000  0.0000  0.0000  0.0000  0.0000
                                            0.0000  0.0000  0.0000  0.0000  0.0000
                                            0.0000  0.0000  0.0000  0.0000  0.0000
     6. (1.00000) CR ( 4) S   1           s(  0.00%)p 1.00(100.00%)
                                            0.0000  0.0000  0.0000  0.0000  0.0000
                                            0.0000  0.0000  0.0000  0.0000  0.0000
                                            0.0000  0.0000  0.0000  1.0000 -0.0000
                                            0.0000 -0.0000  0.0000 -0.0000  0.0000
                                            0.0000  0.0000  0.0000  0.0000  0.0000
                                            0.0000  0.0000 -0.0000  0.0000  0.0000
     7. (1.00000) CR ( 5) S   1           s(  0.00%)p 1.00(100.00%)
                                           -0.0000 -0.0000 -0.0000 -0.0000  0.0000
                                            0.0000 -0.0000  0.0000  0.0000  0.0000
                                            0.0000  0.0000  0.0000  0.0000  0.0000
                                            0.0000  0.0000  0.0000  0.0000  1.0000
                                           -0.0000 -0.0000 -0.0000  0.0000 -0.0000
                                            0.0000  0.0000  0.0000 -0.0000 -0.0000
     8. (1.00000) CR ( 1) S   2           s(100.00%)
                                            1.0000 -0.0000 -0.0000 -0.0000  0.0000
                                            0.0000 -0.0000  0.0000  0.0000  0.0000
                                            0.0000  0.0000  0.0000  0.0000  0.0000
                                            0.0000  0.0000  0.0000  0.0000  0.0000
                                            0.0000  0.0000  0.0000 -0.0000  0.0000
                                            0.0000  0.0000  0.0000 -0.0000 -0.0000
     9. (1.00000) CR ( 2) S   2           s(100.00%)
                                           -0.0000  1.0000 -0.0000 -0.0000  0.0000
                                            0.0000 -0.0000  0.0000  0.0000  0.0000
                                            0.0000  0.0000  0.0000  0.0000  0.0000
                                            0.0000  0.0000  0.0000  0.0000  0.0000
                                            0.0000  0.0000  0.0000 -0.0000  0.0000
                                            0.0000  0.0000  0.0000 -0.0000 -0.0000
    10. (1.00000) CR ( 3) S   2           s(  0.00%)p 1.00(100.00%)
                                            0.0000  0.0000  0.0000  0.0000  0.0000
                                            0.0000  0.0000  1.0000  0.0000  0.0000
                                            0.0000  0.0000  0.0000  0.0000  0.0000
                                            0.0000  0.0000  0.0000  0.0000  0.0000
                                            0.0000  0.0000  0.0000  0.0000  0.0000
                                            0.0000  0.0000  0.0000  0.0000  0.0000
    11. (1.00000) CR ( 4) S   2           s(  0.00%)p 1.00(100.00%)
                                            0.0000  0.0000  0.0000  0.0000  0.0000
                                            0.0000  0.0000  0.0000  0.0000  0.0000
                                            0.0000  0.0000  0.0000  1.0000 -0.0000
                                            0.0000 -0.0000  0.0000 -0.0000  0.0000
                                            0.0000  0.0000  0.0000  0.0000  0.0000
                                            0.0000  0.0000  0.0000  0.0000  0.0000
    12. (1.00000) CR ( 5) S   2           s(  0.00%)p 1.00(100.00%)
                                            0.0000  0.0000  0.0000  0.0000 -0.0000
                                           -0.0000  0.0000  0.0000  0.0000  0.0000
                                            0.0000  0.0000  0.0000  0.0000  0.0000
                                            0.0000  0.0000  0.0000  0.0000  1.0000
                                           -0.0000 -0.0000 -0.0000  0.0000 -0.0000
                                            0.0000  0.0000  0.0000  0.0000  0.0000
    13. (0.99998) LP ( 1) S   1           s( 99.92%)p 0.00(  0.07%)d 0.00(  0.01%)
                                            0.0000  0.0000  0.9996  0.0001 -0.0000
                                           -0.0000  0.0000  0.0000  0.0000  0.0000
                                            0.0000  0.0000  0.0000  0.0000  0.0000
                                            0.0000  0.0000  0.0000  0.0000  0.0000
                                            0.0260  0.0006  0.0004 -0.0000  0.0001
                                            0.0000  0.0000  0.0000  0.0101  0.0060
    14. (0.99991) LP ( 2) S   1           s(  0.00%)p 1.00(100.00%)
                                            0.0000  0.0000  0.0000  0.0000  0.0000
                                            0.0000  0.0000  0.0000  0.0000  0.0000
                                            0.0000  0.0000  0.0000  0.0000  0.9999
                                           -0.0107  0.0024 -0.0000  0.0000  0.0000
                                            0.0000  0.0000  0.0000  0.0000  0.0000
                                            0.0000  0.0000  0.0001  0.0000  0.0000
    15. (0.99998) LP ( 1) S   2           s( 99.92%)p 0.00(  0.07%)d 0.00(  0.01%)
                                            0.0000  0.0000  0.9996  0.0001 -0.0000
                                           -0.0000  0.0000  0.0000  0.0000  0.0000
                                            0.0000  0.0000  0.0000  0.0000  0.0000
                                            0.0000  0.0000  0.0000  0.0000 -0.0000
                                           -0.0260 -0.0006 -0.0004  0.0000 -0.0001
                                            0.0000  0.0000  0.0000  0.0101  0.0060
    16. (0.99991) LP ( 2) S   2           s(  0.00%)p 1.00(100.00%)
                                            0.0000  0.0000  0.0000  0.0000  0.0000
                                            0.0000  0.0000  0.0000  0.0000  0.0000
                                            0.0000  0.0000  0.0000  0.0000  0.9999
                                           -0.0107  0.0024 -0.0000  0.0000  0.0000
                                            0.0000  0.0000  0.0000  0.0000  0.0000
                                            0.0000  0.0000 -0.0001  0.0000  0.0000
    17. (0.00009) RY*( 1) S   1           s(  0.00%)p 1.00( 99.99%)d 0.00(  0.01%)
    18. (0.00001) RY*( 2) S   1           s( 89.41%)p 0.10(  8.67%)d 0.02(  1.92%)
    19. (0.00000) RY*( 3) S   1           s(100.00%)p 0.00(  0.00%)
    20. (0.00000) RY*( 4) S   1           s(100.00%)p 0.00(  0.00%)d 0.00(  0.00%)
    21. (0.00000) RY*( 5) S   1           s(  0.00%)p 1.00(100.00%)
    22. (0.00000) RY*( 6) S   1           s(  0.00%)p 1.00(100.00%)
    23. (0.00000) RY*( 7) S   1           s(  0.00%)p 1.00(100.00%)
    24. (0.00000) RY*( 8) S   1           s(  0.00%)p 1.00(100.00%)
    25. (0.00000) RY*( 9) S   1           s(  0.00%)p 1.00(100.00%)
    26. (0.00000) RY*(10) S   1           s( 99.86%)p 0.00(  0.08%)d 0.00(  0.06%)
    27. (0.00000) RY*(11) S   1           s(  0.00%)p 1.00(100.00%)
    28. (0.00000) RY*(12) S   1           s(  0.00%)p 1.00(100.00%)
    29. (0.00000) RY*(13) S   1           s(  0.00%)p 1.00(100.00%)
    30. (0.00000) RY*(14) S   1           s(  6.01%)p15.63( 93.88%)d 0.02(  0.11%)
    31. (0.00000) RY*(15) S   1           s(  2.69%)p36.20( 97.31%)d 0.00(  0.00%)
    32. (0.00000) RY*(16) S   1           s(  0.00%)p 1.00(100.00%)d 0.00(  0.00%)
    33. (0.00000) RY*(17) S   1           s(  0.00%)p 0.00(  0.00%)d 1.00(100.00%)
    34. (0.00000) RY*(18) S   1           s(  0.00%)p 0.00(  0.00%)d 1.00(100.00%)
    35. (0.00000) RY*(19) S   1           s(  0.00%)p 1.00(  0.01%)d99.99( 99.99%)
    36. (0.00000) RY*(20) S   1           s(  0.22%)p 0.09(  0.02%)d99.99( 99.77%)
    37. (0.00000) RY*(21) S   1           s(  1.82%)p 0.03(  0.05%)d53.78( 98.12%)
    38. (0.00009) RY*( 1) S   2           s(  0.00%)p 1.00( 99.99%)d 0.00(  0.01%)
    39. (0.00001) RY*( 2) S   2           s( 89.41%)p 0.10(  8.67%)d 0.02(  1.92%)
    40. (0.00000) RY*( 3) S   2           s(100.00%)p 0.00(  0.00%)
    41. (0.00000) RY*( 4) S   2           s(100.00%)p 0.00(  0.00%)d 0.00(  0.00%)
    42. (0.00000) RY*( 5) S   2           s(  0.00%)p 1.00(100.00%)
    43. (0.00000) RY*( 6) S   2           s(  0.00%)p 1.00(100.00%)
    44. (0.00000) RY*( 7) S   2           s(  0.00%)p 1.00(100.00%)
    45. (0.00000) RY*( 8) S   2           s(  0.00%)p 1.00(100.00%)
    46. (0.00000) RY*( 9) S   2           s(  0.00%)p 1.00(100.00%)
    47. (0.00000) RY*(10) S   2           s( 99.86%)p 0.00(  0.08%)d 0.00(  0.06%)
    48. (0.00000) RY*(11) S   2           s(  0.00%)p 1.00(100.00%)
    49. (0.00000) RY*(12) S   2           s(  0.00%)p 1.00(100.00%)
    50. (0.00000) RY*(13) S   2           s(  0.00%)p 1.00(100.00%)
    51. (0.00000) RY*(14) S   2           s(  6.01%)p15.63( 93.88%)d 0.02(  0.11%)
    52. (0.00000) RY*(15) S   2           s(  2.69%)p36.20( 97.31%)d 0.00(  0.00%)
    53. (0.00000) RY*(16) S   2           s(  0.00%)p 1.00(100.00%)d 0.00(  0.00%)
    54. (0.00000) RY*(17) S   2           s(  0.00%)p 0.00(  0.00%)d 1.00(100.00%)
    55. (0.00000) RY*(18) S   2           s(  0.00%)p 0.00(  0.00%)d 1.00(100.00%)
    56. (0.00000) RY*(19) S   2           s(  0.00%)p 1.00(  0.01%)d99.99( 99.99%)
    57. (0.00000) RY*(20) S   2           s(  0.22%)p 0.09(  0.02%)d99.99( 99.77%)
    58. (0.00000) RY*(21) S   2           s(  1.82%)p 0.03(  0.05%)d53.78( 98.12%)
    59. (0.00000) BD*( 1) S   1 - S   2  
                ( 50.00%)   0.7071* S   1 s(  0.00%)p 1.00(100.00%)d 0.00(  0.00%)
                ( 50.00%)  -0.7071* S   2 s(  0.00%)p 1.00(100.00%)d 0.00(  0.00%)
    60. (0.00000) BD*( 2) S   1 - S   2  
                ( 50.00%)   0.7071* S   1 s(  0.08%)p99.99( 99.92%)d 0.05(  0.00%)
                ( 50.00%)  -0.7071* S   2 s(  0.08%)p99.99( 99.92%)d 0.05(  0.00%)


 NHO Directionality and "Bond Bending" (deviations from line of nuclear centers)

         [Thresholds for printing:  angular deviation  >  1.0 degree]
                                    hybrid p-character > 25.0%
                                    orbital occupancy  >  0.10e

                                Line of Centers        Hybrid 1              Hybrid 2
                                ---------------  -------------------   ------------------
                NBO               Theta   Phi    Theta   Phi    Dev    Theta   Phi    Dev
 ========================================================================================
     1. BD (   1) S   1 - S   2   180.0    0.0    90.0    0.0  90.0     90.0    0.0  90.0
    14. LP (   2) S   1             --     --     90.0   90.0   --       --     --    --
    16. LP (   2) S   2             --     --     90.0   90.0   --       --     --    --


 Second Order Perturbation Theory Analysis of Fock Matrix in NBO Basis

     Threshold for printing:   0.25 kcal/mol
                                                                              E(2)  E(j)-E(i) F(i,j)
         Donor NBO (i)                     Acceptor NBO (j)                 kcal/mol   a.u.    a.u. 
 ===================================================================================================

 within unit  1
       None above threshold


 Natural Bond Orbitals (Summary):

                                                            Principal Delocalizations
           NBO                        Occupancy    Energy   (geminal,vicinal,remote)
 ====================================================================================
 Molecular unit  1  (S2)
     1. BD (   1) S   1 - S   2          1.00000    -0.30609   
     2. BD (   2) S   1 - S   2          1.00000    -0.31530   
     3. CR (   1) S   1                  1.00000   -89.79783   
     4. CR (   2) S   1                  1.00000    -8.51335   
     5. CR (   3) S   1                  1.00000    -6.26337   
     6. CR (   4) S   1                  1.00000    -6.25514   
     7. CR (   5) S   1                  1.00000    -6.26354   
     8. CR (   1) S   2                  1.00000   -89.79783   
     9. CR (   2) S   2                  1.00000    -8.51335   
    10. CR (   3) S   2                  1.00000    -6.26337   
    11. CR (   4) S   2                  1.00000    -6.25514   
    12. CR (   5) S   2                  1.00000    -6.26354   
    13. LP (   1) S   1                  0.99998    -0.79311   
    14. LP (   2) S   1                  0.99991    -0.34594   
    15. LP (   1) S   2                  0.99998    -0.79311   
    16. LP (   2) S   2                  0.99991    -0.34594   
    17. RY*(   1) S   1                  0.00009     0.14325   
    18. RY*(   2) S   1                  0.00001     0.17813   
    19. RY*(   3) S   1                  0.00000   185.27989   
    20. RY*(   4) S   1                  0.00000    10.32807   
    21. RY*(   5) S   1                  0.00000     0.33644   
    22. RY*(   6) S   1                  0.00000     0.30573   
    23. RY*(   7) S   1                  0.00000     1.54600   
    24. RY*(   8) S   1                  0.00000    17.25797   
    25. RY*(   9) S   1                  0.00000     0.50879   
    26. RY*(  10) S   1                  0.00000     1.57698   
    27. RY*(  11) S   1                  0.00000     1.55345   
    28. RY*(  12) S   1                  0.00000    17.26035   
    29. RY*(  13) S   1                  0.00000     0.35231   
    30. RY*(  14) S   1                  0.00000     0.30763   
    31. RY*(  15) S   1                  0.00000     1.51167   
    32. RY*(  16) S   1                  0.00000    17.25910   
    33. RY*(  17) S   1                  0.00000     0.79368   
    34. RY*(  18) S   1                  0.00000     0.77263   
    35. RY*(  19) S   1                  0.00000     0.79419   
    36. RY*(  20) S   1                  0.00000     0.78831   
    37. RY*(  21) S   1                  0.00000     0.76266   
    38. RY*(   1) S   2                  0.00009     0.14325   
    39. RY*(   2) S   2                  0.00001     0.17813   
    40. RY*(   3) S   2                  0.00000   185.27989   
    41. RY*(   4) S   2                  0.00000    10.32807   
    42. RY*(   5) S   2                  0.00000     0.33644   
    43. RY*(   6) S   2                  0.00000     0.30573   
    44. RY*(   7) S   2                  0.00000     1.54600   
    45. RY*(   8) S   2                  0.00000    17.25797   
    46. RY*(   9) S   2                  0.00000     0.50879   
    47. RY*(  10) S   2                  0.00000     1.57698   
    48. RY*(  11) S   2                  0.00000     1.55345   
    49. RY*(  12) S   2                  0.00000    17.26035   
    50. RY*(  13) S   2                  0.00000     0.35231   
    51. RY*(  14) S   2                  0.00000     0.30763   
    52. RY*(  15) S   2                  0.00000     1.51167   
    53. RY*(  16) S   2                  0.00000    17.25910   
    54. RY*(  17) S   2                  0.00000     0.79368   
    55. RY*(  18) S   2                  0.00000     0.77263   
    56. RY*(  19) S   2                  0.00000     0.79419   
    57. RY*(  20) S   2                  0.00000     0.78831   
    58. RY*(  21) S   2                  0.00000     0.76266   
    59. BD*(   1) S   1 - S   2          0.00000    -0.24121   
    60. BD*(   2) S   1 - S   2          0.00000    -0.23224   
       -------------------------------
              Total Lewis   15.99978  ( 99.9986%)
        Valence non-Lewis    0.00000  (  0.0000%)
        Rydberg non-Lewis    0.00022  (  0.0014%)
       -------------------------------
            Total unit  1   16.00000  (100.0000%)
           Charge unit  1    0.00000
 Sorting of NBOs:                    3    8    9    4    7   12   10    5    6   11
 Sorting of NBOs:                   15   13   14   16    2    1   59   60   38   17
 Sorting of NBOs:                   18   39   22   43   51   30   42   21   50   29
 Sorting of NBOs:                   46   25   58   37   55   34   57   36   33   54
 Sorting of NBOs:                   35   56   31   52   23   44   27   48   47   26
 Sorting of NBOs:                   41   20   45   24   53   32   49   28   19   40
 Reordering of NBOs for storage:     3    8    9    4    7   12   10    5    6   11
 Reordering of NBOs for storage:    15   13   14   16    2    1   59   60   38   17
 Reordering of NBOs for storage:    18   39   22   43   51   30   42   21   50   29
 Reordering of NBOs for storage:    46   25   58   37   55   34   57   36   33   54
 Reordering of NBOs for storage:    35   56   31   52   23   44   27   48   47   26
 Reordering of NBOs for storage:    41   20   45   24   53   32   49   28   19   40
 Labels of output orbitals:  CR  CR  CR  CR  CR  CR  CR  CR  CR  CR  LP  LP  LP  LP  BD  BD  BD* BD* RY* RY* 
 Labels of output orbitals:  RY* RY* RY* RY* RY* RY* RY* RY* RY* RY* RY* RY* RY* RY* RY* RY* RY* RY* RY* RY* 
 Labels of output orbitals:  RY* RY* RY* RY* RY* RY* RY* RY* RY* RY* RY* RY* RY* RY* RY* RY* RY* RY* RY* RY* 
 GSVD:  LWork=       -2288 too small for GESVD, short by       10340 words or       10340 for optimal perf.
 Leave Link  607 at Mon Apr 21 20:09:27 2025, MaxMem=   536870912 cpu:               7.6 elap:               1.5
 (Enter /home/szhao/Apps/g16/l701.exe)
 ... and contract with generalized density number  0.
 Compute integral first derivatives.
 Leave Link  701 at Mon Apr 21 20:09:28 2025, MaxMem=   536870912 cpu:               1.4 elap:               0.2
 (Enter /home/szhao/Apps/g16/l702.exe)
 L702 exits ... SP integral derivatives will be done elsewhere.
 Leave Link  702 at Mon Apr 21 20:09:29 2025, MaxMem=   536870912 cpu:               0.4 elap:               0.2
 (Enter /home/szhao/Apps/g16/l703.exe)
 Integral derivatives from FoFJK, PRISM(SPDF).
 Compute integral first derivatives, UseDBF=F ICtDFT=           0.
 Calling FoFJK, ICntrl=      2127 FMM=F ISym2X=1 I1Cent= 0 IOpClX= 1 NMat=1 NMatS=1 NMatT=0.
 FoFJK:  IHMeth= 1 ICntrl=    2127 DoSepK=F KAlg= 0 I1Cent=           0 FoldK=F
 IRaf=         0 NMat=       1 IRICut=       1 DoRegI=T DoRafI=F ISym2E= 1 IDoP0=0 IntGTp=1.
 FoFCou: FMM=F IPFlag=           0 FMFlag=      100000 FMFlg1=         800
         NFxFlg=           0 DoJE=F BraDBF=F KetDBF=F FulRan=T
         wScrn=  0.000000 ICntrl=      2127 IOpCl=  1 I1Cent=           0 NGrid=           0
         NMat0=    1 NMatS0=      1 NMatT0=    0 NMatD0=    1 NMtDS0=    0 NMtDT0=    0
 Petite list used in FoFCou.
 Leave Link  703 at Mon Apr 21 20:09:29 2025, MaxMem=   536870912 cpu:               2.2 elap:               0.4
 (Enter /home/szhao/Apps/g16/l716.exe)
 Dipole        =-9.46633086D-30 1.83813073D-34 0.00000000D+00
 ***** Axes restored to original set *****
 -------------------------------------------------------------------
 Center     Atomic                   Forces (Hartrees/Bohr)
 Number     Number              X              Y              Z
 -------------------------------------------------------------------
      1       16           0.019179831   -0.000000000    0.000000000
      2       16          -0.019179831    0.000000000   -0.000000000
 -------------------------------------------------------------------
 Cartesian Forces:  Max     0.019179831 RMS     0.011073481
 Z-matrix is all fixed cartesians, so copy forces.
 Force constants in Cartesian coordinates: 
                1             2             3             4             5 
      1  0.100000D+01
      2  0.000000D+00  0.100000D+01
      3  0.000000D+00  0.000000D+00  0.100000D+01
      4  0.000000D+00  0.000000D+00  0.000000D+00  0.100000D+01
      5  0.000000D+00  0.000000D+00  0.000000D+00  0.000000D+00  0.100000D+01
      6  0.000000D+00  0.000000D+00  0.000000D+00  0.000000D+00  0.000000D+00
                6 
      6  0.100000D+01
 Leave Link  716 at Mon Apr 21 20:09:30 2025, MaxMem=   536870912 cpu:               0.3 elap:               0.1
 (Enter /home/szhao/Apps/g16/l103.exe)

 GradGradGradGradGradGradGradGradGradGradGradGradGradGradGradGradGradGrad
 Berny optimization.
 Search for a local minimum.
 Step number   1 out of a maximum of    2
 All quantities printed in internal units (Hartrees-Bohrs-Radians)
 Second derivative matrix not updated -- first step.
 The second derivative matrix:
                          X1        Y1        Z1        X2        Y2
           X1           1.00000
           Y1           0.00000   1.00000
           Z1           0.00000   0.00000   1.00000
           X2           0.00000   0.00000   0.00000   1.00000
           Y2           0.00000   0.00000   0.00000   0.00000   1.00000
           Z2           0.00000   0.00000   0.00000   0.00000   0.00000
                          Z2
           Z2           1.00000
 ITU=  0
     Eigenvalues ---    1.00000   1.00000   1.00000   1.00000   1.00000
     Eigenvalues ---    1.00000
 Angle between quadratic step and forces=   0.00 degrees.
 ClnCor:  largest displacement from symmetrization is 9.17D-16 for atom     2.
 Linear search not attempted -- first point.
 ClnCor:  largest displacement from symmetrization is 0.00D+00 for atom     0.
 B after Tr=     0.000000    0.000000    0.000000
         Rot=    1.000000    0.000000    0.000000    0.000000 Ang=   0.00 deg.
 Variable       Old X    -DE/DX   Delta X   Delta X   Delta X     New X
                                 (Linear)    (Quad)   (Total)
    X1       -4.20502   0.01918   0.00000   0.01918   0.01918  -4.18584
    Y1        0.00000  -0.00000   0.00000   0.00000   0.00000   0.00000
    Z1        0.00000   0.00000   0.00000   0.00000   0.00000   0.00000
    X2        4.20502  -0.01918   0.00000  -0.01918  -0.01918   4.18584
    Y2        0.00000   0.00000   0.00000   0.00000   0.00000   0.00000
    Z2        0.00000  -0.00000   0.00000  -0.00000  -0.00000   0.00000
         Item               Value     Threshold  Converged?
 Maximum Force            0.019180     0.000450     NO 
 RMS     Force            0.011073     0.000300     NO 
 Maximum Displacement     0.019180     0.001800     NO 
 RMS     Displacement     0.011073     0.001200     NO 
 Predicted change in Energy=-3.678659D-04
 GradGradGradGradGradGradGradGradGradGradGradGradGradGradGradGradGradGrad

 Leave Link  103 at Mon Apr 21 20:09:30 2025, MaxMem=   536870912 cpu:               0.5 elap:               0.2
 (Enter /home/szhao/Apps/g16/l9999.exe)
 1\1\GINC-NODE05\Force\UM062X\6-311+G(d,p)\S2\SZHAO\21-Apr-2025\0\\#p U
 M062X/6-311+G** force int=superfine pop=saveNBO\\Title Card Required\\
 0,1\S,-2.2252,0.,0.\S,2.2252,0.,0.\\Version=ES64L-G16RevA.03\HF=-796.0
 130561\S2=0.\S2-1=0.\S2A=0.\RMSD=8.492e-10\RMSF=1.107e-02\Dipole=0.,0.
 ,0.\Quadrupole=2.4322766,-3.1001391,0.6678625,0.,0.,0.\PG=D*H [C*(S1.S
 1)]\\@


 "I COULD HAVE DONE IT IN A MUCH MORE COMPLICATED WAY"
 SAID THE RED QUEEN, IMMENSELY PROUD.

                                      -- LEWIS CARROLL
 Job cpu time:       0 days  0 hours  0 minutes 34.9 seconds.
 Elapsed time:       0 days  0 hours  0 minutes  9.2 seconds.
 File lengths (MBytes):  RWF=     17 Int=      0 D2E=      0 Chk=      2 Scr=      2
 Normal termination of Gaussian 16 at Mon Apr 21 20:09:30 2025.
