 Entering Gaussian System, Link 0=g16
 Initial command:
 /home/szhao/Apps/g16/l1.exe "/home/szhao/tmp/Gau-41726.inp" -scrdir="/home/szhao/tmp/"
 Default is to use a total of  16 processors:
                               16 via shared-memory
                                1 via Linda
 Entering Link 1 = /home/szhao/Apps/g16/l1.exe PID=     41769.
  
 Copyright (c) 1988,1990,1992,1993,1995,1998,2003,2009,2016,
            Gaussian, Inc.  All Rights Reserved.
  
 This is part of the Gaussian(R) 16 program.  It is based on
 the Gaussian(R) 09 system (copyright 2009, Gaussian, Inc.),
 the Gaussian(R) 03 system (copyright 2003, Gaussian, Inc.),
 the Gaussian(R) 98 system (copyright 1998, Gaussian, Inc.),
 the Gaussian(R) 94 system (copyright 1995, Gaussian, Inc.),
 the Gaussian 92(TM) system (copyright 1992, Gaussian, Inc.),
 the Gaussian 90(TM) system (copyright 1990, Gaussian, Inc.),
 the Gaussian 88(TM) system (copyright 1988, Gaussian, Inc.),
 the Gaussian 86(TM) system (copyright 1986, Carnegie Mellon
 University), and the Gaussian 82(TM) system (copyright 1983,
 Carnegie Mellon University). Gaussian is a federally registered
 trademark of Gaussian, Inc.
  
 This software contains proprietary and confidential information,
 including trade secrets, belonging to Gaussian, Inc.
  
 This software is provided under written license and may be
 used, copied, transmitted, or stored only in accord with that
 written license.
  
 The following legend is applicable only to US Government
 contracts under FAR:
  
                    RESTRICTED RIGHTS LEGEND
  
 Use, reproduction and disclosure by the US Government is
 subject to restrictions as set forth in subparagraphs (a)
 and (c) of the Commercial Computer Software - Restricted
 Rights clause in FAR 52.227-19.
  
 Gaussian, Inc.
 340 Quinnipiac St., Bldg. 40, Wallingford CT 06492
  
  
 ---------------------------------------------------------------
 Warning -- This program may not be used in any manner that
 competes with the business of Gaussian, Inc. or will provide
 assistance to any competitor of Gaussian, Inc.  The licensee
 of this program is prohibited from giving any competitor of
 Gaussian, Inc. access to this program.  By using this program,
 the user acknowledges that Gaussian, Inc. is engaged in the
 business of creating and licensing software in the field of
 computational chemistry and represents and warrants to the
 licensee that it is not a competitor of Gaussian, Inc. and that
 it will not use this program in any manner prohibited above.
 ---------------------------------------------------------------
  

 Cite this work as:
 Gaussian 16, Revision A.03,
 M. J. Frisch, G. W. Trucks, H. B. Schlegel, G. E. Scuseria, 
 M. A. Robb, J. R. Cheeseman, G. Scalmani, V. Barone, 
 G. A. Petersson, H. Nakatsuji, X. Li, M. Caricato, A. V. Marenich, 
 J. Bloino, B. G. Janesko, R. Gomperts, B. Mennucci, H. P. Hratchian, 
 J. V. Ortiz, A. F. Izmaylov, J. L. Sonnenberg, D. Williams-Young, 
 F. Ding, F. Lipparini, F. Egidi, J. Goings, B. Peng, A. Petrone, 
 T. Henderson, D. Ranasinghe, V. G. Zakrzewski, J. Gao, N. Rega, 
 G. Zheng, W. Liang, M. Hada, M. Ehara, K. Toyota, R. Fukuda, 
 J. Hasegawa, M. Ishida, T. Nakajima, Y. Honda, O. Kitao, H. Nakai, 
 T. Vreven, K. Throssell, J. A. Montgomery, Jr., J. E. Peralta, 
 F. Ogliaro, M. J. Bearpark, J. J. Heyd, E. N. Brothers, K. N. Kudin, 
 V. N. Staroverov, T. A. Keith, R. Kobayashi, J. Normand, 
 K. Raghavachari, A. P. Rendell, J. C. Burant, S. S. Iyengar, 
 J. Tomasi, M. Cossi, J. M. Millam, M. Klene, C. Adamo, R. Cammi, 
 J. W. Ochterski, R. L. Martin, K. Morokuma, O. Farkas, 
 J. B. Foresman, and D. J. Fox, Gaussian, Inc., Wallingford CT, 2016.
 
 ******************************************
 Gaussian 16:  ES64L-G16RevA.03 25-Dec-2016
                21-Apr-2025 
 ******************************************
 %chk=opt.chk
 %mem=4GB
 %nprocshared=8
 Will use up to    8 processors via shared memory.
 --------------------------------------------
 #p opt UM062X/6-311+G** nosymm int=superfine
 --------------------------------------------
 1/18=20,19=15,26=5,38=1/1,3;
 2/9=110,12=2,15=1,17=6,18=5,40=1/2;
 3/5=4,6=6,7=111,11=2,25=1,30=1,71=1,74=-55,75=-7,116=2/1,2,3;
 4//1;
 5/5=2,38=5/2;
 6/7=2,8=2,9=2,10=2,28=1/1;
 7/30=1/1,2,3,16;
 1/18=20,19=15,26=5/3(2);
 2/9=110,15=1/2;
 99//99;
 2/9=110,15=1/2;
 3/5=4,6=6,7=111,11=2,25=1,30=1,71=1,74=-55,75=-7,116=2/1,2,3;
 4/5=5,16=3,69=1/1;
 5/5=2,38=5/2;
 7/30=1/1,2,3,16;
 1/18=20,19=15,26=5/3(-5);
 2/9=110,15=1/2;
 6/7=2,8=2,9=2,10=2,19=2,28=1/1;
 99/9=1/99;
 Leave Link    1 at Mon Apr 21 21:10:45 2025, MaxMem=   536870912 cpu:               4.0 elap:               0.5
 (Enter /home/szhao/Apps/g16/l101.exe)
 -------------------
 Title Card Required
 -------------------
 Symbolic Z-matrix:
 Charge =  0 Multiplicity = 1
 P                    -1   -1.43449   0.        0. 
 P                    -1    1.43449   0.        0. 
 H                    0    -1.53735  -1.41726   0. 
 H                    0     1.53735   1.41726   0. 
 
 Add virtual bond connecting atoms P2         and P1         Dist= 5.42D+00.
 ITRead=  2  2  0  0
 MicOpt= -2 -2 -1 -1
 NAtoms=      4 NQM=        2 NQMF=       2 NMMI=      0 NMMIF=      0
                NMic=       0 NMicF=      0.
                    Isotopes and Nuclear Properties:
 (Nuclear quadrupole moments (NQMom) in fm**2, nuclear magnetic moments (NMagM)
  in nuclear magnetons)

  Atom         1           2           3           4
 IAtWgt=          31          31           1           1
 AtmWgt=  30.9737634  30.9737634   1.0078250   1.0078250
 NucSpn=           1           1           1           1
 AtZEff=  -0.0000000  -0.0000000  -0.0000000  -0.0000000
 NQMom=    0.0000000   0.0000000   0.0000000   0.0000000
 NMagM=    1.1316000   1.1316000   2.7928460   2.7928460
 AtZNuc=  15.0000000  15.0000000   1.0000000   1.0000000
 Leave Link  101 at Mon Apr 21 21:10:47 2025, MaxMem=   536870912 cpu:               3.0 elap:               0.5
 (Enter /home/szhao/Apps/g16/l103.exe)

 GradGradGradGradGradGradGradGradGradGradGradGradGradGradGradGradGradGrad
 Berny optimization.
 Initialization pass.
                           ----------------------------
                           !    Initial Parameters    !
                           ! (Angstroms and Degrees)  !
 --------------------------                            --------------------------
 ! Name  Definition              Value          Derivative Info.                !
 --------------------------------------------------------------------------------
 ! X1    R(1,-1)                -1.4345         Frozen                          !
 ! Y1    R(1,-2)                 0.0            Frozen                          !
 ! Z1    R(1,-3)                 0.0            Frozen                          !
 ! X2    R(2,-1)                 1.4345         Frozen                          !
 ! Y2    R(2,-2)                 0.0            Frozen                          !
 ! Z2    R(2,-3)                 0.0            Frozen                          !
 ! R1    R(1,3)                  1.421          estimate D2E/DX2                !
 ! R2    R(2,4)                  1.421          estimate D2E/DX2                !
 ! A1    A(2,1,3)               94.1511         estimate D2E/DX2                !
 ! A2    A(1,2,4)               94.1511         estimate D2E/DX2                !
 ! D1    D(3,1,2,4)            180.0            estimate D2E/DX2                !
 --------------------------------------------------------------------------------
 Trust Radius=3.00D-01 FncErr=1.00D-07 GrdErr=1.00D-07 EigMax=2.50D+02 EigMin=1.00D-04
 Number of steps in this run=     21 maximum allowed number of steps=    100.
 GradGradGradGradGradGradGradGradGradGradGradGradGradGradGradGradGradGrad

 Leave Link  103 at Mon Apr 21 21:10:47 2025, MaxMem=   536870912 cpu:               0.5 elap:               0.1
 (Enter /home/szhao/Apps/g16/l202.exe)
                          Input orientation:                          
 ---------------------------------------------------------------------
 Center     Atomic      Atomic             Coordinates (Angstroms)
 Number     Number       Type             X           Y           Z
 ---------------------------------------------------------------------
      1         15           0       -1.434490    0.000000    0.000000
      2         15           0        1.434490    0.000000    0.000000
      3          1           0       -1.537351   -1.417255    0.000000
      4          1           0        1.537351    1.417255    0.000000
 ---------------------------------------------------------------------
                    Distance matrix (angstroms):
                    1          2          3          4
     1  P    0.000000
     2  P    2.868979   0.000000
     3  H    1.420983   3.292483   0.000000
     4  H    3.292483   1.420983   4.181894   0.000000
 Symmetry turned off by external request.
 Stoichiometry    H2P2
 Framework group  C2H[SGH(H2P2)]
 Deg. of freedom     3
 Full point group                 C2H     NOp   4
 Rotational constants (GHZ):         129.6384000           3.8174269           3.7082316
 Leave Link  202 at Mon Apr 21 21:10:48 2025, MaxMem=   536870912 cpu:               0.4 elap:               0.2
 (Enter /home/szhao/Apps/g16/l301.exe)
 Standard basis: 6-311+G(d,p) (5D, 7F)
 Ernie: Thresh=  0.10000D-02 Tol=  0.10000D-05 Strict=F.
    72 basis functions,   116 primitive gaussians,    74 cartesian basis functions
    16 alpha electrons       16 beta electrons
       nuclear repulsion energy        57.6210693043 Hartrees.
 IExCor= 4336 DFT=T Ex+Corr=M062X ExCW=0 ScaHFX=  0.540000
 ScaDFX=  1.000000  1.000000  1.000000  1.000000 ScalE2=  1.000000  1.000000
 IRadAn=      7 IRanWt=     -1 IRanGd=            0 ICorTp=0 IEmpDi=  4
 NAtoms=    4 NActive=    4 NUniq=    4 SFac= 1.00D+00 NAtFMM=   60 NAOKFM=F Big=F
 Integral buffers will be    131072 words long.
 Raffenetti 2 integral format.
 Two-electron integral symmetry is turned off.
 Leave Link  301 at Mon Apr 21 21:10:49 2025, MaxMem=   536870912 cpu:               1.4 elap:               0.6
 (Enter /home/szhao/Apps/g16/l302.exe)
 NPDir=0 NMtPBC=     1 NCelOv=     1 NCel=       1 NClECP=     1 NCelD=      1
         NCelK=      1 NCelE2=     1 NClLst=     1 CellRange=     0.0.
 One-electron integrals computed using PRISM.
 NBasis=    72 RedAO= T EigKep=  4.72D-03  NBF=    72
 NBsUse=    72 1.00D-06 EigRej= -1.00D+00 NBFU=    72
 Precomputing XC quadrature grid using
 IXCGrd= 4 IRadAn=           7 IRanWt=          -1 IRanGd=           0 AccXCQ= 0.00D+00.
 Generated NRdTot=       0 NPtTot=           0 NUsed=           0 NTot=          32
 NSgBfM=    71    71    71    71    71 MxSgAt=     4 MxSgA2=     4.
 Leave Link  302 at Mon Apr 21 21:10:50 2025, MaxMem=   536870912 cpu:               1.9 elap:               0.6
 (Enter /home/szhao/Apps/g16/l303.exe)
 DipDrv:  MaxL=1.
 Leave Link  303 at Mon Apr 21 21:10:51 2025, MaxMem=   536870912 cpu:               0.9 elap:               0.5
 (Enter /home/szhao/Apps/g16/l401.exe)
 ExpMin= 3.48D-02 ExpMax= 7.75D+04 ExpMxC= 2.65D+03 IAcc=3 IRadAn=         7 AccDes= 0.00D+00
 Harris functional with IExCor= 1009 and IRadAn=       7 diagonalized for initial guess.
 HarFok:  IExCor= 1009 AccDes= 0.00D+00 IRadAn=         7 IDoV= 1 UseB2=F ITyADJ=14
 ICtDFT=  3500011 ScaDFX=  1.000000  1.000000  1.000000  1.000000
 FoFCou: FMM=F IPFlag=           0 FMFlag=      100000 FMFlg1=           0
         NFxFlg=           0 DoJE=T BraDBF=F KetDBF=T FulRan=T
         wScrn=  0.000000 ICntrl=       500 IOpCl=  0 I1Cent=   200000004 NGrid=           0
         NMat0=    1 NMatS0=      1 NMatT0=    0 NMatD0=    1 NMtDS0=    0 NMtDT0=    0
 Symmetry not used in FoFCou.
 Harris En= -683.450243483778    
 JPrj=0 DoOrth=F DoCkMO=F.
 Initial guess <Sx>= 0.0000 <Sy>= 0.0000 <Sz>= 0.0000 <S**2>=-0.0000 S=-0.0000
 Leave Link  401 at Mon Apr 21 21:10:52 2025, MaxMem=   536870912 cpu:               3.7 elap:               1.0
 (Enter /home/szhao/Apps/g16/l502.exe)
 Keep R1 and R2 ints in memory in canonical form, NReq=14118010.
 FoFCou: FMM=F IPFlag=           0 FMFlag=           0 FMFlg1=           0
         NFxFlg=           0 DoJE=F BraDBF=F KetDBF=F FulRan=T
         wScrn=  0.000000 ICntrl=       600 IOpCl=  0 I1Cent=           0 NGrid=           0
         NMat0=    1 NMatS0=   2628 NMatT0=    0 NMatD0=    1 NMtDS0=    0 NMtDT0=    0
 Symmetry not used in FoFCou.
 Two-electron integral symmetry not used.
 UHF open shell SCF:
 Using DIIS extrapolation, IDIIS=  1040.
 NGot=   536870912 LenX=   529949706 LenY=   529943789
 Requested convergence on RMS density matrix=1.00D-08 within 128 cycles.
 Requested convergence on MAX density matrix=1.00D-06.
 Requested convergence on             energy=1.00D-06.
 No special actions if energy rises.

 Cycle   1  Pass 1  IDiag  1:
 E= -683.714545947893    
 DIIS: error= 2.82D-02 at cycle   1 NSaved=   1.
 NSaved= 1 IEnMin= 1 EnMin= -683.714545947893     IErMin= 1 ErrMin= 2.82D-02
 ErrMax= 2.82D-02  0.00D+00 EMaxC= 1.00D-01 BMatC= 2.21D-01 BMatP= 2.21D-01
 IDIUse=3 WtCom= 7.18D-01 WtEn= 2.82D-01
 Coeff-Com:  0.100D+01
 Coeff-En:   0.100D+01
 Coeff:      0.100D+01
 Gap=     0.129 Goal=   None    Shift=    0.000
 Gap=     0.129 Goal=   None    Shift=    0.000
 GapD=    0.129 DampG=1.000 DampE=0.500 DampFc=0.5000 IDamp=-1.
 Damping current iteration by 5.00D-01
 RMSDP=1.82D-03 MaxDP=2.79D-02              OVMax= 4.15D-02

 Cycle   2  Pass 1  IDiag  1:
 E= -683.722234730531     Delta-E=       -0.007688782638 Rises=F Damp=T
 DIIS: error= 1.03D-02 at cycle   2 NSaved=   2.
 NSaved= 2 IEnMin= 2 EnMin= -683.722234730531     IErMin= 2 ErrMin= 1.03D-02
 ErrMax= 1.03D-02  0.00D+00 EMaxC= 1.00D-01 BMatC= 3.43D-02 BMatP= 2.21D-01
 IDIUse=3 WtCom= 8.97D-01 WtEn= 1.03D-01
 Coeff-Com: -0.577D+00 0.158D+01
 Coeff-En:   0.000D+00 0.100D+01
 Coeff:     -0.518D+00 0.152D+01
 Gap=     0.130 Goal=   None    Shift=    0.000
 Gap=     0.130 Goal=   None    Shift=    0.000
 RMSDP=7.34D-04 MaxDP=7.99D-03 DE=-7.69D-03 OVMax= 1.10D-02

 Cycle   3  Pass 1  IDiag  1:
 E= -683.729238698366     Delta-E=       -0.007003967835 Rises=F Damp=F
 DIIS: error= 5.30D-04 at cycle   3 NSaved=   3.
 NSaved= 3 IEnMin= 3 EnMin= -683.729238698366     IErMin= 3 ErrMin= 5.30D-04
 ErrMax= 5.30D-04  0.00D+00 EMaxC= 1.00D-01 BMatC= 1.46D-04 BMatP= 3.43D-02
 IDIUse=3 WtCom= 9.95D-01 WtEn= 5.30D-03
 Coeff-Com: -0.624D-01 0.127D+00 0.935D+00
 Coeff-En:   0.000D+00 0.000D+00 0.100D+01
 Coeff:     -0.621D-01 0.127D+00 0.935D+00
 Gap=     0.130 Goal=   None    Shift=    0.000
 Gap=     0.130 Goal=   None    Shift=    0.000
 RMSDP=1.52D-04 MaxDP=3.78D-03 DE=-7.00D-03 OVMax= 3.03D-03

 Cycle   4  Pass 1  IDiag  1:
 E= -683.729273845308     Delta-E=       -0.000035146942 Rises=F Damp=F
 DIIS: error= 1.85D-04 at cycle   4 NSaved=   4.
 NSaved= 4 IEnMin= 4 EnMin= -683.729273845308     IErMin= 4 ErrMin= 1.85D-04
 ErrMax= 1.85D-04  0.00D+00 EMaxC= 1.00D-01 BMatC= 9.60D-06 BMatP= 1.46D-04
 IDIUse=3 WtCom= 9.98D-01 WtEn= 1.85D-03
 Coeff-Com:  0.878D-03-0.548D-02 0.188D+00 0.816D+00
 Coeff-En:   0.000D+00 0.000D+00 0.000D+00 0.100D+01
 Coeff:      0.876D-03-0.547D-02 0.188D+00 0.817D+00
 Gap=     0.130 Goal=   None    Shift=    0.000
 Gap=     0.130 Goal=   None    Shift=    0.000
 RMSDP=3.74D-05 MaxDP=8.47D-04 DE=-3.51D-05 OVMax= 1.09D-03

 Cycle   5  Pass 1  IDiag  1:
 E= -683.729277694159     Delta-E=       -0.000003848852 Rises=F Damp=F
 DIIS: error= 6.20D-05 at cycle   5 NSaved=   5.
 NSaved= 5 IEnMin= 5 EnMin= -683.729277694159     IErMin= 5 ErrMin= 6.20D-05
 ErrMax= 6.20D-05  0.00D+00 EMaxC= 1.00D-01 BMatC= 5.80D-07 BMatP= 9.60D-06
 IDIUse=1 WtCom= 1.00D+00 WtEn= 0.00D+00
 Coeff-Com:  0.321D-02-0.673D-02-0.605D-01 0.509D-01 0.101D+01
 Coeff:      0.321D-02-0.673D-02-0.605D-01 0.509D-01 0.101D+01
 Gap=     0.130 Goal=   None    Shift=    0.000
 Gap=     0.130 Goal=   None    Shift=    0.000
 RMSDP=1.06D-05 MaxDP=1.21D-04 DE=-3.85D-06 OVMax= 3.66D-04

 Cycle   6  Pass 1  IDiag  1:
 E= -683.729277990527     Delta-E=       -0.000000296367 Rises=F Damp=F
 DIIS: error= 8.44D-06 at cycle   6 NSaved=   6.
 NSaved= 6 IEnMin= 6 EnMin= -683.729277990527     IErMin= 6 ErrMin= 8.44D-06
 ErrMax= 8.44D-06  0.00D+00 EMaxC= 1.00D-01 BMatC= 1.74D-08 BMatP= 5.80D-07
 IDIUse=1 WtCom= 1.00D+00 WtEn= 0.00D+00
 Coeff-Com:  0.381D-04 0.115D-03-0.161D-01-0.256D-01 0.107D+00 0.934D+00
 Coeff:      0.381D-04 0.115D-03-0.161D-01-0.256D-01 0.107D+00 0.934D+00
 Gap=     0.130 Goal=   None    Shift=    0.000
 Gap=     0.130 Goal=   None    Shift=    0.000
 RMSDP=2.46D-06 MaxDP=3.13D-05 DE=-2.96D-07 OVMax= 1.13D-04

 Cycle   7  Pass 1  IDiag  1:
 E= -683.729278003425     Delta-E=       -0.000000012898 Rises=F Damp=F
 DIIS: error= 2.21D-06 at cycle   7 NSaved=   7.
 NSaved= 7 IEnMin= 7 EnMin= -683.729278003425     IErMin= 7 ErrMin= 2.21D-06
 ErrMax= 2.21D-06  0.00D+00 EMaxC= 1.00D-01 BMatC= 1.18D-09 BMatP= 1.74D-08
 IDIUse=1 WtCom= 1.00D+00 WtEn= 0.00D+00
 Coeff-Com: -0.865D-05 0.382D-04 0.996D-03-0.316D-02-0.396D-01 0.612D-01
 Coeff-Com:  0.980D+00
 Coeff:     -0.865D-05 0.382D-04 0.996D-03-0.316D-02-0.396D-01 0.612D-01
 Coeff:      0.980D+00
 Gap=     0.130 Goal=   None    Shift=    0.000
 Gap=     0.130 Goal=   None    Shift=    0.000
 RMSDP=5.35D-07 MaxDP=6.19D-06 DE=-1.29D-08 OVMax= 2.55D-05

 Cycle   8  Pass 1  IDiag  1:
 E= -683.729278004194     Delta-E=       -0.000000000769 Rises=F Damp=F
 DIIS: error= 3.91D-07 at cycle   8 NSaved=   8.
 NSaved= 8 IEnMin= 8 EnMin= -683.729278004194     IErMin= 8 ErrMin= 3.91D-07
 ErrMax= 3.91D-07  0.00D+00 EMaxC= 1.00D-01 BMatC= 2.83D-11 BMatP= 1.18D-09
 IDIUse=1 WtCom= 1.00D+00 WtEn= 0.00D+00
 Coeff-Com: -0.117D-04 0.152D-04 0.714D-03 0.154D-02-0.335D-02-0.489D-01
 Coeff-Com: -0.605D-01 0.111D+01
 Coeff:     -0.117D-04 0.152D-04 0.714D-03 0.154D-02-0.335D-02-0.489D-01
 Coeff:     -0.605D-01 0.111D+01
 Gap=     0.130 Goal=   None    Shift=    0.000
 Gap=     0.130 Goal=   None    Shift=    0.000
 RMSDP=1.21D-07 MaxDP=1.00D-06 DE=-7.69D-10 OVMax= 6.70D-06

 Cycle   9  Pass 1  IDiag  1:
 E= -683.729278004227     Delta-E=       -0.000000000033 Rises=F Damp=F
 DIIS: error= 4.77D-08 at cycle   9 NSaved=   9.
 NSaved= 9 IEnMin= 9 EnMin= -683.729278004227     IErMin= 9 ErrMin= 4.77D-08
 ErrMax= 4.77D-08  0.00D+00 EMaxC= 1.00D-01 BMatC= 6.82D-13 BMatP= 2.83D-11
 IDIUse=1 WtCom= 1.00D+00 WtEn= 0.00D+00
 Coeff-Com: -0.178D-05 0.228D-05 0.479D-04 0.268D-03 0.599D-03-0.720D-02
 Coeff-Com: -0.281D-01 0.129D+00 0.906D+00
 Coeff:     -0.178D-05 0.228D-05 0.479D-04 0.268D-03 0.599D-03-0.720D-02
 Coeff:     -0.281D-01 0.129D+00 0.906D+00
 Gap=     0.130 Goal=   None    Shift=    0.000
 Gap=     0.130 Goal=   None    Shift=    0.000
 RMSDP=1.11D-08 MaxDP=1.54D-07 DE=-3.27D-11 OVMax= 4.69D-07

 Cycle  10  Pass 1  IDiag  1:
 E= -683.729278004228     Delta-E=       -0.000000000001 Rises=F Damp=F
 DIIS: error= 7.17D-09 at cycle  10 NSaved=  10.
 NSaved=10 IEnMin=10 EnMin= -683.729278004228     IErMin=10 ErrMin= 7.17D-09
 ErrMax= 7.17D-09  0.00D+00 EMaxC= 1.00D-01 BMatC= 1.26D-14 BMatP= 6.82D-13
 IDIUse=1 WtCom= 1.00D+00 WtEn= 0.00D+00
 Coeff-Com:  0.109D-06 0.428D-07-0.201D-04-0.542D-04 0.581D-04 0.156D-02
 Coeff-Com:  0.164D-02-0.352D-01 0.170D-01 0.101D+01
 Coeff:      0.109D-06 0.428D-07-0.201D-04-0.542D-04 0.581D-04 0.156D-02
 Coeff:      0.164D-02-0.352D-01 0.170D-01 0.101D+01
 Gap=     0.130 Goal=   None    Shift=    0.000
 Gap=     0.130 Goal=   None    Shift=    0.000
 RMSDP=2.93D-09 MaxDP=2.69D-08 DE=-6.82D-13 OVMax= 9.12D-08

 SCF Done:  E(UM062X) =  -683.729278004     A.U. after   10 cycles
            NFock= 10  Conv=0.29D-08     -V/T= 2.0019
 <Sx>= 0.0000 <Sy>= 0.0000 <Sz>= 0.0000 <S**2>=-0.0000 S=-0.0000
 <L.S>=  0.00000000000    
 KE= 6.824380183665D+02 PE=-1.741581947304D+03 EE= 3.177935816290D+02
 Annihilation of the first spin contaminant:
 S**2 before annihilation    -0.0000,   after     0.0000
 Leave Link  502 at Mon Apr 21 21:10:59 2025, MaxMem=   536870912 cpu:              49.3 elap:               6.9
 (Enter /home/szhao/Apps/g16/l601.exe)
 Copying SCF densities to generalized density rwf, IOpCl= 1 IROHF=0.

 **********************************************************************

            Population analysis using the SCF density.

 **********************************************************************

 Alpha  occ. eigenvalues --  -78.07788 -78.07788  -6.89753  -6.89751  -5.01200
 Alpha  occ. eigenvalues --   -5.01200  -5.01154  -5.01152  -5.00981  -5.00981
 Alpha  occ. eigenvalues --   -0.70347  -0.66274  -0.40549  -0.40445  -0.30202
 Alpha  occ. eigenvalues --   -0.26742
 Alpha virt. eigenvalues --   -0.13753  -0.07482   0.01959   0.03288   0.03966
 Alpha virt. eigenvalues --    0.04651   0.05215   0.06140   0.06753   0.08446
 Alpha virt. eigenvalues --    0.08900   0.12317   0.27976   0.29863   0.30607
 Alpha virt. eigenvalues --    0.30791   0.33613   0.34242   0.39144   0.44258
 Alpha virt. eigenvalues --    0.52129   0.59347   0.66276   0.66341   0.66598
 Alpha virt. eigenvalues --    0.68090   0.69867   0.70102   0.73637   0.86070
 Alpha virt. eigenvalues --    0.91945   0.92131   1.43801   1.45142   1.45728
 Alpha virt. eigenvalues --    1.46938   1.49266   1.53266   1.56108   1.59339
 Alpha virt. eigenvalues --    1.59476   1.72427   2.02690   2.03010   2.57957
 Alpha virt. eigenvalues --    2.59779   6.86252   6.91974  13.91609  13.95123
 Alpha virt. eigenvalues --   13.97583  14.00180  14.02046  14.05233 163.11156
 Alpha virt. eigenvalues --  163.18964
  Beta  occ. eigenvalues --  -78.07788 -78.07788  -6.89753  -6.89751  -5.01200
  Beta  occ. eigenvalues --   -5.01200  -5.01154  -5.01152  -5.00981  -5.00981
  Beta  occ. eigenvalues --   -0.70347  -0.66274  -0.40549  -0.40445  -0.30202
  Beta  occ. eigenvalues --   -0.26742
  Beta virt. eigenvalues --   -0.13753  -0.07482   0.01959   0.03288   0.03966
  Beta virt. eigenvalues --    0.04651   0.05215   0.06140   0.06753   0.08446
  Beta virt. eigenvalues --    0.08900   0.12317   0.27976   0.29863   0.30607
  Beta virt. eigenvalues --    0.30791   0.33613   0.34242   0.39144   0.44258
  Beta virt. eigenvalues --    0.52129   0.59347   0.66276   0.66341   0.66598
  Beta virt. eigenvalues --    0.68090   0.69867   0.70102   0.73637   0.86070
  Beta virt. eigenvalues --    0.91945   0.92131   1.43801   1.45142   1.45728
  Beta virt. eigenvalues --    1.46938   1.49266   1.53266   1.56108   1.59339
  Beta virt. eigenvalues --    1.59476   1.72427   2.02690   2.03010   2.57957
  Beta virt. eigenvalues --    2.59779   6.86252   6.91974  13.91609  13.95123
  Beta virt. eigenvalues --   13.97583  14.00180  14.02046  14.05233 163.11156
  Beta virt. eigenvalues --  163.18964
          Condensed to atoms (all electrons):
               1          2          3          4
     1  P   14.440043   0.332397   0.222482  -0.002615
     2  P    0.332397  14.440043  -0.002615   0.222482
     3  H    0.222482  -0.002615   0.786955   0.000870
     4  H   -0.002615   0.222482   0.000870   0.786955
          Atomic-Atomic Spin Densities.
               1          2          3          4
     1  P   -0.000000  -0.000000   0.000000  -0.000000
     2  P   -0.000000   0.000000  -0.000000  -0.000000
     3  H    0.000000  -0.000000  -0.000000   0.000000
     4  H   -0.000000  -0.000000   0.000000   0.000000
 Mulliken charges and spin densities:
               1          2
     1  P    0.007693  -0.000000
     2  P    0.007693   0.000000
     3  H   -0.007693   0.000000
     4  H   -0.007693  -0.000000
 Sum of Mulliken charges =  -0.00000  -0.00000
 Mulliken charges and spin densities with hydrogens summed into heavy atoms:
               1          2
     1  P   -0.000000  -0.000000
     2  P    0.000000   0.000000
 Electronic spatial extent (au):  <R**2>=            315.7988
 Charge=             -0.0000 electrons
 Dipole moment (field-independent basis, Debye):
    X=              0.0000    Y=             -0.0000    Z=              0.0000  Tot=              0.0000
 Quadrupole moment (field-independent basis, Debye-Ang):
   XX=            -27.7196   YY=            -28.1746   ZZ=            -30.3508
   XY=              3.1271   XZ=              0.0000   YZ=             -0.0000
 Traceless Quadrupole moment (field-independent basis, Debye-Ang):
   XX=              1.0288   YY=              0.5737   ZZ=             -1.6025
   XY=              3.1271   XZ=              0.0000   YZ=             -0.0000
 Octapole moment (field-independent basis, Debye-Ang**2):
  XXX=              0.0000  YYY=             -0.0000  ZZZ=              0.0000  XYY=              0.0000
  XXY=             -0.0000  XXZ=              0.0000  XZZ=              0.0000  YZZ=              0.0000
  YYZ=              0.0000  XYZ=             -0.0000
 Hexadecapole moment (field-independent basis, Debye-Ang**3):
 XXXX=           -399.8306 YYYY=            -63.7683 ZZZZ=            -55.1657 XXXY=              3.7280
 XXXZ=              0.0000 YYYX=             -6.5757 YYYZ=             -0.0000 ZZZX=              0.0000
 ZZZY=             -0.0000 XXYY=            -76.5022 XXZZ=            -76.5976 YYZZ=            -20.3841
 XXYZ=             -0.0000 YYXZ=              0.0000 ZZXY=             -2.0961
 N-N= 5.762106930434D+01 E-N=-1.741581947236D+03  KE= 6.824380183665D+02
                          Isotropic Fermi Contact Couplings
        Atom                 a.u.       MegaHertz       Gauss      10(-4) cm-1
     1  P(31)             -0.00000      -0.00000      -0.00000      -0.00000
     2  P(31)             -0.00000      -0.00000      -0.00000      -0.00000
     3  H(1)              -0.00000      -0.00000      -0.00000      -0.00000
     4  H(1)              -0.00000      -0.00000      -0.00000      -0.00000
 --------------------------------------------------------
       Center         ----  Spin Dipole Couplings  ----
                      3XX-RR        3YY-RR        3ZZ-RR
 --------------------------------------------------------
     1   Atom        0.000000      0.000000      0.000000
     2   Atom        0.000000      0.000000      0.000000
     3   Atom        0.000000      0.000000      0.000000
     4   Atom        0.000000      0.000000      0.000000
 --------------------------------------------------------
                        XY            XZ            YZ
 --------------------------------------------------------
     1   Atom        0.000000      0.000000      0.000000
     2   Atom        0.000000      0.000000      0.000000
     3   Atom        0.000000      0.000000      0.000000
     4   Atom        0.000000      0.000000      0.000000
 --------------------------------------------------------


 ---------------------------------------------------------------------------------
              Anisotropic Spin Dipole Couplings in Principal Axis System
 ---------------------------------------------------------------------------------

       Atom             a.u.   MegaHertz   Gauss  10(-4) cm-1        Axes

              Baa     0.0000     0.000     0.000     0.000  1.0000  0.0000  0.0000
     1 P(31)  Bbb     0.0000     0.000     0.000     0.000 -0.0000  1.0000  0.0000
              Bcc     0.0000     0.000     0.000     0.000  0.0000  0.0000  1.0000
 
              Baa     0.0000     0.000     0.000     0.000  1.0000  0.0000  0.0000
     2 P(31)  Bbb     0.0000     0.000     0.000     0.000 -0.0000  1.0000  0.0000
              Bcc     0.0000     0.000     0.000     0.000  0.0000  0.0000  1.0000
 
              Baa     0.0000     0.000     0.000     0.000  1.0000  0.0000  0.0000
     3 H(1)   Bbb     0.0000     0.000     0.000     0.000 -0.0000  1.0000  0.0000
              Bcc     0.0000     0.000     0.000     0.000  0.0000  0.0000  1.0000
 
              Baa     0.0000     0.000     0.000     0.000  1.0000  0.0000  0.0000
     4 H(1)   Bbb     0.0000     0.000     0.000     0.000 -0.0000  1.0000  0.0000
              Bcc     0.0000     0.000     0.000     0.000  0.0000  0.0000  1.0000
 

 ---------------------------------------------------------------------------------

 No NMR shielding tensors so no spin-rotation constants.
 Leave Link  601 at Mon Apr 21 21:11:00 2025, MaxMem=   536870912 cpu:               1.5 elap:               0.2
 (Enter /home/szhao/Apps/g16/l701.exe)
 ... and contract with generalized density number  0.
 Compute integral first derivatives.
 Leave Link  701 at Mon Apr 21 21:11:01 2025, MaxMem=   536870912 cpu:               1.4 elap:               0.2
 (Enter /home/szhao/Apps/g16/l702.exe)
 L702 exits ... SP integral derivatives will be done elsewhere.
 Leave Link  702 at Mon Apr 21 21:11:02 2025, MaxMem=   536870912 cpu:               0.5 elap:               0.2
 (Enter /home/szhao/Apps/g16/l703.exe)
 Integral derivatives from FoFJK, PRISM(SPDF).
 Compute integral first derivatives, UseDBF=F ICtDFT=           0.
 Calling FoFJK, ICntrl=      2127 FMM=F ISym2X=0 I1Cent= 0 IOpClX= 1 NMat=1 NMatS=1 NMatT=0.
 FoFJK:  IHMeth= 1 ICntrl=    2127 DoSepK=F KAlg= 0 I1Cent=           0 FoldK=F
 IRaf=         0 NMat=       1 IRICut=       1 DoRegI=T DoRafI=F ISym2E= 0 IDoP0=0 IntGTp=1.
 FoFCou: FMM=F IPFlag=           0 FMFlag=      100000 FMFlg1=         800
         NFxFlg=           0 DoJE=F BraDBF=F KetDBF=F FulRan=T
         wScrn=  0.000000 ICntrl=      2127 IOpCl=  1 I1Cent=           0 NGrid=           0
         NMat0=    1 NMatS0=      1 NMatT0=    0 NMatD0=    1 NMtDS0=    0 NMtDT0=    0
 Symmetry not used in FoFCou.
 Leave Link  703 at Mon Apr 21 21:11:03 2025, MaxMem=   536870912 cpu:               6.1 elap:               1.3
 (Enter /home/szhao/Apps/g16/l716.exe)
 Dipole        = 1.41243090D-07-7.66431363D-10 5.51552603D-13
 -------------------------------------------------------------------
 Center     Atomic                   Forces (Hartrees/Bohr)
 Number     Number              X              Y              Z
 -------------------------------------------------------------------
      1       15          -0.000000000   -0.000000000   -0.000000000
      2       15          -0.000000000   -0.000000000   -0.000000000
      3        1           0.004619422   -0.001048522    0.000000000
      4        1          -0.004619423    0.001048520   -0.000000000
 -------------------------------------------------------------------
 Cartesian Forces:  Max     0.004619423 RMS     0.001933842
 Leave Link  716 at Mon Apr 21 21:11:04 2025, MaxMem=   536870912 cpu:               1.1 elap:               0.2
 (Enter /home/szhao/Apps/g16/l103.exe)

 GradGradGradGradGradGradGradGradGradGradGradGradGradGradGradGradGradGrad
 Berny optimization.
 FormGI is forming the generalized inverse of G from B-inverse, IUseBI=4.
 Internal  Forces:  Max     0.012575659 RMS     0.006213496
 Search for a local minimum.
 Step number   1 out of a maximum of   21
 All quantities printed in internal units (Hartrees-Bohrs-Radians)
 RMS Force = .79663D-02 SwitMx=.10000D-02 MixMth= 1
 Mixed Optimization -- RFO/linear search
 Second derivative matrix not updated -- first step.
 The second derivative matrix:
                          X1        Y1        Z1        X2        Y2
           X1           0.50000
           Y1           0.00000   0.50000
           Z1           0.00000   0.00000   0.50000
           X2           0.00000   0.00000   0.00000   0.50000
           Y2           0.00000   0.00000   0.00000   0.00000   0.50000
           Z2           0.00000   0.00000   0.00000   0.00000   0.00000
           R1           0.00000   0.00000   0.00000   0.00000   0.00000
           R2           0.00000   0.00000   0.00000   0.00000   0.00000
           A1           0.00000   0.00000   0.00000   0.00000   0.00000
           A2           0.00000   0.00000   0.00000   0.00000   0.00000
           D1           0.00000   0.00000   0.00000   0.00000   0.00000
                          Z2        R1        R2        A1        A2
           Z2           0.50000
           R1           0.00000   0.20874
           R2           0.00000   0.00000   0.20874
           A1           0.00000   0.00000   0.00000   0.16000
           A2           0.00000   0.00000   0.00000   0.00000   0.16000
           D1           0.00000   0.00000   0.00000   0.00000   0.00000
                          D1
           D1           0.00230
 ITU=  0
     Eigenvalues ---    0.00230   0.16000   0.16000   0.20874   0.20874
     Eigenvalues --- 1000.000001000.000001000.000001000.000001000.00000
     Eigenvalues --- 1000.00000
 RFO step:  Lambda=-1.95775118D-03 EMin= 2.30000000D-03
 Linear search not attempted -- first point.
 Iteration  1 RMS(Cart)=  0.08785972 RMS(Int)=  0.00338071
 Iteration  2 RMS(Cart)=  0.00360390 RMS(Int)=  0.00000165
 Iteration  3 RMS(Cart)=  0.00000399 RMS(Int)=  0.00000000
 Iteration  4 RMS(Cart)=  0.00000000 RMS(Int)=  0.00000000
 ITry= 1 IFail=0 DXMaxC= 2.08D-01 DCOld= 1.00D+10 DXMaxT= 3.00D-01 DXLimC= 3.00D+00 Rises=F
 Variable       Old X    -DE/DX   Delta X   Delta X   Delta X     New X
                                 (Linear)    (Quad)   (Total)
    X1       -2.71079   0.00462   0.00000   0.00000   0.00000  -2.71079
    Y1        0.00000  -0.00569   0.00000   0.00000   0.00000   0.00000
    Z1        0.00000  -0.00000   0.00000   0.00000   0.00000   0.00000
    X2        2.71079  -0.00462   0.00000   0.00000   0.00000   2.71079
    Y2        0.00000   0.00569   0.00000   0.00000   0.00000   0.00000
    Z2        0.00000  -0.00000   0.00000   0.00000   0.00000   0.00000
    R1        2.68527   0.00071   0.00000   0.00338   0.00338   2.68864
    R2        2.68527   0.00071   0.00000   0.00338   0.00338   2.68864
    A1        1.64325  -0.01258   0.00000  -0.07765  -0.07765   1.56560
    A2        1.64325  -0.01258   0.00000  -0.07765  -0.07765   1.56560
    D1        3.14159  -0.00000   0.00000  -0.00000   0.00000   3.14159
         Item               Value     Threshold  Converged?
 Maximum Force            0.012576     0.000450     NO 
 RMS     Force            0.007966     0.000300     NO 
 Maximum Displacement     0.208352     0.001800     NO 
 RMS     Displacement     0.088952     0.001200     NO 
 Predicted change in Energy=-9.906998D-04
 Lowest energy point so far.  Saving SCF results.
 GradGradGradGradGradGradGradGradGradGradGradGradGradGradGradGradGradGrad

 Leave Link  103 at Mon Apr 21 21:11:05 2025, MaxMem=   536870912 cpu:               0.9 elap:               0.4
 (Enter /home/szhao/Apps/g16/l202.exe)
                          Input orientation:                          
 ---------------------------------------------------------------------
 Center     Atomic      Atomic             Coordinates (Angstroms)
 Number     Number       Type             X           Y           Z
 ---------------------------------------------------------------------
      1         15           0       -1.434490    0.000000    0.000000
      2         15           0        1.434490    0.000000    0.000000
      3          1           0       -1.427095   -1.422750   -0.000000
      4          1           0        1.427095    1.422750   -0.000000
 ---------------------------------------------------------------------
                    Distance matrix (angstroms):
                    1          2          3          4
     1  P    0.000000
     2  P    2.868979   0.000000
     3  H    1.422770   3.195761   0.000000
     4  H    3.195761   1.422770   4.030295   0.000000
 Symmetry turned off by external request.
 Stoichiometry    H2P2
 Framework group  C2H[SGH(H2P2)]
 Deg. of freedom     3
 Full point group                 C2H     NOp   4
 Rotational constants (GHZ):         127.9802296           3.8370737           3.7253802
 Leave Link  202 at Mon Apr 21 21:11:05 2025, MaxMem=   536870912 cpu:               0.3 elap:               0.3
 (Enter /home/szhao/Apps/g16/l301.exe)
 Standard basis: 6-311+G(d,p) (5D, 7F)
 Ernie: Thresh=  0.10000D-02 Tol=  0.10000D-05 Strict=F.
    72 basis functions,   116 primitive gaussians,    74 cartesian basis functions
    16 alpha electrons       16 beta electrons
       nuclear repulsion energy        57.7577320549 Hartrees.
 IExCor= 4336 DFT=T Ex+Corr=M062X ExCW=0 ScaHFX=  0.540000
 ScaDFX=  1.000000  1.000000  1.000000  1.000000 ScalE2=  1.000000  1.000000
 IRadAn=      7 IRanWt=     -1 IRanGd=            0 ICorTp=0 IEmpDi=  4
 NAtoms=    4 NActive=    4 NUniq=    4 SFac= 1.00D+00 NAtFMM=   60 NAOKFM=F Big=F
 Integral buffers will be    131072 words long.
 Raffenetti 2 integral format.
 Two-electron integral symmetry is turned off.
 Leave Link  301 at Mon Apr 21 21:11:07 2025, MaxMem=   536870912 cpu:               1.1 elap:               0.6
 (Enter /home/szhao/Apps/g16/l302.exe)
 NPDir=0 NMtPBC=     1 NCelOv=     1 NCel=       1 NClECP=     1 NCelD=      1
         NCelK=      1 NCelE2=     1 NClLst=     1 CellRange=     0.0.
 One-electron integrals computed using PRISM.
 NBasis=    72 RedAO= T EigKep=  4.71D-03  NBF=    72
 NBsUse=    72 1.00D-06 EigRej= -1.00D+00 NBFU=    72
 Precomputing XC quadrature grid using
 IXCGrd= 4 IRadAn=           7 IRanWt=          -1 IRanGd=           0 AccXCQ= 0.00D+00.
 Generated NRdTot=       0 NPtTot=           0 NUsed=           0 NTot=          32
 NSgBfM=    72    72    72    72    72 MxSgAt=     4 MxSgA2=     4.
 Leave Link  302 at Mon Apr 21 21:11:07 2025, MaxMem=   536870912 cpu:               2.3 elap:               0.4
 (Enter /home/szhao/Apps/g16/l303.exe)
 DipDrv:  MaxL=1.
 Leave Link  303 at Mon Apr 21 21:11:08 2025, MaxMem=   536870912 cpu:               1.0 elap:               0.3
 (Enter /home/szhao/Apps/g16/l401.exe)
 Initial guess from the checkpoint file:  "opt.chk"
 B after Tr=    -0.000000   -0.000000   -0.000000
         Rot=    0.999997    0.000000   -0.000000   -0.002348 Ang=  -0.27 deg.
 Guess basis will be translated and rotated to current coordinates.
 JPrj=2 DoOrth=T DoCkMO=T.
 Initial guess <Sx>= 0.0000 <Sy>= 0.0000 <Sz>= 0.0000 <S**2>= 0.0000 S= 0.0000
 Generating alternative initial guess.
 ExpMin= 3.48D-02 ExpMax= 7.75D+04 ExpMxC= 2.65D+03 IAcc=3 IRadAn=         5 AccDes= 0.00D+00
 Harris functional with IExCor= 1009 and IRadAn=       5 diagonalized for initial guess.
 HarFok:  IExCor= 1009 AccDes= 0.00D+00 IRadAn=         5 IDoV= 1 UseB2=F ITyADJ=14
 ICtDFT=  3500011 ScaDFX=  1.000000  1.000000  1.000000  1.000000
 FoFCou: FMM=F IPFlag=           0 FMFlag=      100000 FMFlg1=           0
         NFxFlg=           0 DoJE=T BraDBF=F KetDBF=T FulRan=T
         wScrn=  0.000000 ICntrl=       500 IOpCl=  0 I1Cent=   200000004 NGrid=           0
         NMat0=    1 NMatS0=      1 NMatT0=    0 NMatD0=    1 NMtDS0=    0 NMtDT0=    0
 Symmetry not used in FoFCou.
 Harris En= -683.452737041123    
 Leave Link  401 at Mon Apr 21 21:11:09 2025, MaxMem=   536870912 cpu:               4.7 elap:               0.7
 (Enter /home/szhao/Apps/g16/l502.exe)
 Keep R1 and R2 ints in memory in canonical form, NReq=14118010.
 FoFCou: FMM=F IPFlag=           0 FMFlag=           0 FMFlg1=           0
         NFxFlg=           0 DoJE=F BraDBF=F KetDBF=F FulRan=T
         wScrn=  0.000000 ICntrl=       600 IOpCl=  0 I1Cent=           0 NGrid=           0
         NMat0=    1 NMatS0=   2628 NMatT0=    0 NMatD0=    1 NMtDS0=    0 NMtDT0=    0
 Symmetry not used in FoFCou.
 Two-electron integral symmetry not used.
 UHF open shell SCF:
 Using DIIS extrapolation, IDIIS=  1040.
 NGot=   536870912 LenX=   529949706 LenY=   529943789
 Requested convergence on RMS density matrix=1.00D-08 within 128 cycles.
 Requested convergence on MAX density matrix=1.00D-06.
 Requested convergence on             energy=1.00D-06.
 No special actions if energy rises.

 Cycle   1  Pass 1  IDiag  1:
 E= -683.729534972637    
 DIIS: error= 3.55D-03 at cycle   1 NSaved=   1.
 NSaved= 1 IEnMin= 1 EnMin= -683.729534972637     IErMin= 1 ErrMin= 3.55D-03
 ErrMax= 3.55D-03  0.00D+00 EMaxC= 1.00D-01 BMatC= 1.59D-03 BMatP= 1.59D-03
 IDIUse=3 WtCom= 9.65D-01 WtEn= 3.55D-02
 Coeff-Com:  0.100D+01
 Coeff-En:   0.100D+01
 Coeff:      0.100D+01
 Gap=     0.422 Goal=   None    Shift=    0.000
 Gap=     0.422 Goal=   None    Shift=    0.000
 GapD=    0.422 DampG=2.000 DampE=1.000 DampFc=2.0000 IDamp=-1.
 RMSDP=4.59D-04 MaxDP=5.13D-03              OVMax= 1.52D-02

 Cycle   2  Pass 1  IDiag  1:
 E= -683.730406251124     Delta-E=       -0.000871278487 Rises=F Damp=F
 DIIS: error= 5.48D-04 at cycle   2 NSaved=   2.
 NSaved= 2 IEnMin= 2 EnMin= -683.730406251124     IErMin= 2 ErrMin= 5.48D-04
 ErrMax= 5.48D-04  0.00D+00 EMaxC= 1.00D-01 BMatC= 6.17D-05 BMatP= 1.59D-03
 IDIUse=3 WtCom= 9.95D-01 WtEn= 5.48D-03
 Coeff-Com: -0.136D+00 0.114D+01
 Coeff-En:   0.000D+00 0.100D+01
 Coeff:     -0.135D+00 0.114D+01
 Gap=     0.130 Goal=   None    Shift=    0.000
 Gap=     0.130 Goal=   None    Shift=    0.000
 RMSDP=1.30D-04 MaxDP=1.63D-03 DE=-8.71D-04 OVMax= 4.61D-03

 Cycle   3  Pass 1  IDiag  1:
 E= -683.730459844020     Delta-E=       -0.000053592895 Rises=F Damp=F
 DIIS: error= 9.24D-05 at cycle   3 NSaved=   3.
 NSaved= 3 IEnMin= 3 EnMin= -683.730459844020     IErMin= 3 ErrMin= 9.24D-05
 ErrMax= 9.24D-05  0.00D+00 EMaxC= 1.00D-01 BMatC= 3.28D-06 BMatP= 6.17D-05
 IDIUse=1 WtCom= 1.00D+00 WtEn= 0.00D+00
 Coeff-Com: -0.295D-01 0.112D+00 0.917D+00
 Coeff:     -0.295D-01 0.112D+00 0.917D+00
 Gap=     0.130 Goal=   None    Shift=    0.000
 Gap=     0.130 Goal=   None    Shift=    0.000
 RMSDP=3.95D-05 MaxDP=5.58D-04 DE=-5.36D-05 OVMax= 1.45D-03

 Cycle   4  Pass 1  IDiag  1:
 E= -683.730462726972     Delta-E=       -0.000002882952 Rises=F Damp=F
 DIIS: error= 7.14D-05 at cycle   4 NSaved=   4.
 NSaved= 4 IEnMin= 4 EnMin= -683.730462726972     IErMin= 4 ErrMin= 7.14D-05
 ErrMax= 7.14D-05  0.00D+00 EMaxC= 1.00D-01 BMatC= 7.72D-07 BMatP= 3.28D-06
 IDIUse=1 WtCom= 1.00D+00 WtEn= 0.00D+00
 Coeff-Com:  0.813D-02-0.108D+00 0.204D+00 0.896D+00
 Coeff:      0.813D-02-0.108D+00 0.204D+00 0.896D+00
 Gap=     0.130 Goal=   None    Shift=    0.000
 Gap=     0.130 Goal=   None    Shift=    0.000
 RMSDP=1.11D-05 MaxDP=1.37D-04 DE=-2.88D-06 OVMax= 4.06D-04

 Cycle   5  Pass 1  IDiag  1:
 E= -683.730463096407     Delta-E=       -0.000000369435 Rises=F Damp=F
 DIIS: error= 5.01D-06 at cycle   5 NSaved=   5.
 NSaved= 5 IEnMin= 5 EnMin= -683.730463096407     IErMin= 5 ErrMin= 5.01D-06
 ErrMax= 5.01D-06  0.00D+00 EMaxC= 1.00D-01 BMatC= 1.06D-08 BMatP= 7.72D-07
 IDIUse=1 WtCom= 1.00D+00 WtEn= 0.00D+00
 Coeff-Com:  0.194D-02-0.184D-01 0.101D-01 0.780D-01 0.928D+00
 Coeff:      0.194D-02-0.184D-01 0.101D-01 0.780D-01 0.928D+00
 Gap=     0.130 Goal=   None    Shift=    0.000
 Gap=     0.130 Goal=   None    Shift=    0.000
 RMSDP=1.63D-06 MaxDP=1.83D-05 DE=-3.69D-07 OVMax= 7.23D-05

 Cycle   6  Pass 1  IDiag  1:
 E= -683.730463102425     Delta-E=       -0.000000006018 Rises=F Damp=F
 DIIS: error= 1.30D-06 at cycle   6 NSaved=   6.
 NSaved= 6 IEnMin= 6 EnMin= -683.730463102425     IErMin= 6 ErrMin= 1.30D-06
 ErrMax= 1.30D-06  0.00D+00 EMaxC= 1.00D-01 BMatC= 9.67D-10 BMatP= 1.06D-08
 IDIUse=1 WtCom= 1.00D+00 WtEn= 0.00D+00
 Coeff-Com: -0.387D-03 0.618D-02-0.129D-01-0.645D-01 0.151D+00 0.921D+00
 Coeff:     -0.387D-03 0.618D-02-0.129D-01-0.645D-01 0.151D+00 0.921D+00
 Gap=     0.130 Goal=   None    Shift=    0.000
 Gap=     0.130 Goal=   None    Shift=    0.000
 RMSDP=5.18D-07 MaxDP=7.25D-06 DE=-6.02D-09 OVMax= 1.99D-05

 Cycle   7  Pass 1  IDiag  1:
 E= -683.730463102442     Delta-E=       -0.000000000017 Rises=F Damp=F
 DIIS: error= 2.75D-06 at cycle   7 NSaved=   7.
 NSaved= 7 IEnMin= 7 EnMin= -683.730463102442     IErMin= 6 ErrMin= 1.30D-06
 ErrMax= 2.75D-06  0.00D+00 EMaxC= 1.00D-01 BMatC= 1.03D-09 BMatP= 9.67D-10
 IDIUse=1 WtCom= 1.00D+00 WtEn= 0.00D+00
 Coeff-Com: -0.326D-03 0.496D-02-0.973D-02-0.496D-01 0.938D-01 0.676D+00
 Coeff-Com:  0.284D+00
 Coeff:     -0.326D-03 0.496D-02-0.973D-02-0.496D-01 0.938D-01 0.676D+00
 Coeff:      0.284D+00
 Gap=     0.130 Goal=   None    Shift=    0.000
 Gap=     0.130 Goal=   None    Shift=    0.000
 RMSDP=2.96D-07 MaxDP=6.70D-06 DE=-1.67D-11 OVMax= 1.86D-05

 Cycle   8  Pass 1  IDiag  1:
 E= -683.730463102841     Delta-E=       -0.000000000399 Rises=F Damp=F
 DIIS: error= 8.44D-07 at cycle   8 NSaved=   8.
 NSaved= 8 IEnMin= 8 EnMin= -683.730463102841     IErMin= 8 ErrMin= 8.44D-07
 ErrMax= 8.44D-07  0.00D+00 EMaxC= 1.00D-01 BMatC= 1.02D-10 BMatP= 9.67D-10
 IDIUse=1 WtCom= 1.00D+00 WtEn= 0.00D+00
 Coeff-Com: -0.296D-04 0.256D-03-0.314D-04-0.107D-02-0.166D-01-0.303D-01
 Coeff-Com:  0.239D+00 0.809D+00
 Coeff:     -0.296D-04 0.256D-03-0.314D-04-0.107D-02-0.166D-01-0.303D-01
 Coeff:      0.239D+00 0.809D+00
 Gap=     0.130 Goal=   None    Shift=    0.000
 Gap=     0.130 Goal=   None    Shift=    0.000
 RMSDP=1.11D-07 MaxDP=1.64D-06 DE=-3.99D-10 OVMax= 4.44D-06

 Cycle   9  Pass 1  IDiag  1:
 E= -683.730463102890     Delta-E=       -0.000000000049 Rises=F Damp=F
 DIIS: error= 2.80D-08 at cycle   9 NSaved=   9.
 NSaved= 9 IEnMin= 9 EnMin= -683.730463102890     IErMin= 9 ErrMin= 2.80D-08
 ErrMax= 2.80D-08  0.00D+00 EMaxC= 1.00D-01 BMatC= 3.87D-13 BMatP= 1.02D-10
 IDIUse=1 WtCom= 1.00D+00 WtEn= 0.00D+00
 Coeff-Com:  0.133D-04-0.216D-03 0.445D-03 0.231D-02-0.597D-02-0.306D-01
 Coeff-Com: -0.123D-01 0.296D-02 0.104D+01
 Coeff:      0.133D-04-0.216D-03 0.445D-03 0.231D-02-0.597D-02-0.306D-01
 Coeff:     -0.123D-01 0.296D-02 0.104D+01
 Gap=     0.130 Goal=   None    Shift=    0.000
 Gap=     0.130 Goal=   None    Shift=    0.000
 RMSDP=2.65D-08 MaxDP=3.38D-07 DE=-4.89D-11 OVMax= 5.87D-07

 Cycle  10  Pass 1  IDiag  1:
 E= -683.730463102890     Delta-E=        0.000000000000 Rises=F Damp=F
 DIIS: error= 6.17D-09 at cycle  10 NSaved=  10.
 NSaved=10 IEnMin= 9 EnMin= -683.730463102890     IErMin=10 ErrMin= 6.17D-09
 ErrMax= 6.17D-09  0.00D+00 EMaxC= 1.00D-01 BMatC= 1.12D-14 BMatP= 3.87D-13
 IDIUse=1 WtCom= 1.00D+00 WtEn= 0.00D+00
 Coeff-Com:  0.513D-06 0.190D-06-0.130D-04-0.587D-04 0.997D-03 0.225D-02
 Coeff-Com: -0.886D-02-0.306D-01 0.265D-01 0.101D+01
 Coeff:      0.513D-06 0.190D-06-0.130D-04-0.587D-04 0.997D-03 0.225D-02
 Coeff:     -0.886D-02-0.306D-01 0.265D-01 0.101D+01
 Gap=     0.130 Goal=   None    Shift=    0.000
 Gap=     0.130 Goal=   None    Shift=    0.000
 RMSDP=3.34D-09 MaxDP=3.76D-08 DE= 0.00D+00 OVMax= 9.53D-08

 SCF Done:  E(UM062X) =  -683.730463103     A.U. after   10 cycles
            NFock= 10  Conv=0.33D-08     -V/T= 2.0019
 <Sx>= 0.0000 <Sy>= 0.0000 <Sz>= 0.0000 <S**2>=-0.0000 S=-0.0000
 <L.S>=  0.00000000000    
 KE= 6.824352620606D+02 PE=-1.741860066940D+03 EE= 3.179366097212D+02
 Annihilation of the first spin contaminant:
 S**2 before annihilation    -0.0000,   after     0.0000
 Leave Link  502 at Mon Apr 21 21:11:15 2025, MaxMem=   536870912 cpu:              45.9 elap:               6.2
 (Enter /home/szhao/Apps/g16/l701.exe)
 ... and contract with generalized density number  0.
 Compute integral first derivatives.
 Leave Link  701 at Mon Apr 21 21:11:16 2025, MaxMem=   536870912 cpu:               1.1 elap:               0.2
 (Enter /home/szhao/Apps/g16/l702.exe)
 L702 exits ... SP integral derivatives will be done elsewhere.
 Leave Link  702 at Mon Apr 21 21:11:18 2025, MaxMem=   536870912 cpu:               0.5 elap:               0.2
 (Enter /home/szhao/Apps/g16/l703.exe)
 Integral derivatives from FoFJK, PRISM(SPDF).
 Compute integral first derivatives, UseDBF=F ICtDFT=           0.
 Calling FoFJK, ICntrl=      2127 FMM=F ISym2X=0 I1Cent= 0 IOpClX= 1 NMat=1 NMatS=1 NMatT=0.
 FoFJK:  IHMeth= 1 ICntrl=    2127 DoSepK=F KAlg= 0 I1Cent=           0 FoldK=F
 IRaf=         0 NMat=       1 IRICut=       1 DoRegI=T DoRafI=F ISym2E= 0 IDoP0=0 IntGTp=1.
 FoFCou: FMM=F IPFlag=           0 FMFlag=      100000 FMFlg1=         800
         NFxFlg=           0 DoJE=F BraDBF=F KetDBF=F FulRan=T
         wScrn=  0.000000 ICntrl=      2127 IOpCl=  1 I1Cent=           0 NGrid=           0
         NMat0=    1 NMatS0=      1 NMatT0=    0 NMatD0=    1 NMtDS0=    0 NMtDT0=    0
 Symmetry not used in FoFCou.
 Leave Link  703 at Mon Apr 21 21:11:19 2025, MaxMem=   536870912 cpu:               5.9 elap:               1.4
 (Enter /home/szhao/Apps/g16/l716.exe)
 Dipole        = 5.75632875D-11 1.65702652D-09-9.66959701D-12
 -------------------------------------------------------------------
 Center     Atomic                   Forces (Hartrees/Bohr)
 Number     Number              X              Y              Z
 -------------------------------------------------------------------
      1       15          -0.000000000   -0.000000000   -0.000000000
      2       15          -0.000000000   -0.000000000   -0.000000000
      3        1           0.000982015    0.000324374    0.000000000
      4        1          -0.000982015   -0.000324372    0.000000000
 -------------------------------------------------------------------
 Cartesian Forces:  Max     0.000982015 RMS     0.000422211
 Leave Link  716 at Mon Apr 21 21:11:20 2025, MaxMem=   536870912 cpu:               0.9 elap:               0.2
 (Enter /home/szhao/Apps/g16/l103.exe)

 GradGradGradGradGradGradGradGradGradGradGradGradGradGradGradGradGradGrad
 Berny optimization.
 Using GEDIIS/GDIIS optimizer.
 FormGI is forming the generalized inverse of G from B-inverse, IUseBI=4.
 Internal  Forces:  Max     0.002644786 RMS     0.001242090
 Search for a local minimum.
 Step number   2 out of a maximum of   21
 All quantities printed in internal units (Hartrees-Bohrs-Radians)
 RMS Force = .16849D-02 SwitMx=.10000D-02 MixMth= 1
 Mixed Optimization -- RFO/linear search
 Update second derivatives using D2CorX and points    1    2
 DE= -1.19D-03 DEPred=-9.91D-04 R= 1.20D+00
 TightC=F SS=  1.41D+00  RLast= 1.10D-01 DXNew= 5.0454D-01 3.2974D-01
 Trust test= 1.20D+00 RLast= 1.10D-01 DXMaxT set to 3.30D-01
 The second derivative matrix:
                          X1        Y1        Z1        X2        Y2
           X1           0.50854
           Y1          -0.01183   0.51637
           Z1          -0.00000   0.00000   0.50000
           X2          -0.00854   0.01183   0.00000   0.50854
           Y2           0.01183  -0.01637  -0.00000  -0.01183   0.51637
           Z2          -0.00000   0.00000   0.00000   0.00000  -0.00000
           R1           0.00242  -0.00335  -0.00000  -0.00242   0.00335
           R2           0.00242  -0.00335  -0.00000  -0.00242   0.00335
           A1          -0.02332   0.03229   0.00000   0.02332  -0.03229
           A2          -0.02332   0.03229   0.00000   0.02332  -0.03229
           D1          -0.00000   0.00000   0.00000   0.00000  -0.00000
                          Z2        R1        R2        A1        A2
           Z2           0.50000
           R1          -0.00000   0.20917
           R2          -0.00000   0.00043   0.20917
           A1           0.00000  -0.00208  -0.00208   0.14386
           A2           0.00000  -0.00208  -0.00208  -0.01614   0.14386
           D1           0.00000  -0.00000  -0.00000   0.00000   0.00000
                          D1
           D1           0.00230
 ITU=  1  0
 Use linear search instead of GDIIS.
     Eigenvalues ---    0.00230   0.12750   0.16000   0.20874   0.20981
     Eigenvalues --- 1000.000001000.000001000.000001000.000001000.00000
     Eigenvalues --- 1000.00000
 RFO step:  Lambda=-3.34420020D-06 EMin= 2.30000000D-03
 Quartic linear search produced a step of  0.26125.
 Iteration  1 RMS(Cart)=  0.02360592 RMS(Int)=  0.00024293
 Iteration  2 RMS(Cart)=  0.00024327 RMS(Int)=  0.00000000
 Iteration  3 RMS(Cart)=  0.00000000 RMS(Int)=  0.00000000
 ITry= 1 IFail=0 DXMaxC= 5.53D-02 DCOld= 1.00D+10 DXMaxT= 3.30D-01 DXLimC= 3.00D+00 Rises=F
 Variable       Old X    -DE/DX   Delta X   Delta X   Delta X     New X
                                 (Linear)    (Quad)   (Total)
    X1       -2.71079   0.00098   0.00000   0.00000   0.00000  -2.71079
    Y1        0.00000  -0.00065   0.00000   0.00000   0.00000   0.00000
    Z1        0.00000   0.00000   0.00000   0.00000   0.00000   0.00000
    X2        2.71079  -0.00098   0.00000   0.00000   0.00000   2.71079
    Y2        0.00000   0.00065   0.00000   0.00000   0.00000   0.00000
    Z2        0.00000   0.00000   0.00000   0.00000   0.00000   0.00000
    R1        2.68864  -0.00032   0.00088  -0.00282  -0.00194   2.68671
    R2        2.68864  -0.00032   0.00088  -0.00282  -0.00194   2.68671
    A1        1.56560  -0.00264  -0.02029  -0.00029  -0.02058   1.54502
    A2        1.56560  -0.00264  -0.02029  -0.00029  -0.02058   1.54502
    D1        3.14159   0.00000   0.00000   0.00000   0.00000  -3.14159
         Item               Value     Threshold  Converged?
 Maximum Force            0.002645     0.000450     NO 
 RMS     Force            0.001685     0.000300     NO 
 Maximum Displacement     0.055269     0.001800     NO 
 RMS     Displacement     0.023597     0.001200     NO 
 Predicted change in Energy=-5.554916D-05
 Lowest energy point so far.  Saving SCF results.
 GradGradGradGradGradGradGradGradGradGradGradGradGradGradGradGradGradGrad

 Leave Link  103 at Mon Apr 21 21:11:20 2025, MaxMem=   536870912 cpu:               0.9 elap:               0.2
 (Enter /home/szhao/Apps/g16/l202.exe)
                          Input orientation:                          
 ---------------------------------------------------------------------
 Center     Atomic      Atomic             Coordinates (Angstroms)
 Number     Number       Type             X           Y           Z
 ---------------------------------------------------------------------
      1         15           0       -1.434490    0.000000    0.000000
      2         15           0        1.434490    0.000000    0.000000
      3          1           0       -1.397848   -1.421272    0.000000
      4          1           0        1.397848    1.421272    0.000000
 ---------------------------------------------------------------------
                    Distance matrix (angstroms):
                    1          2          3          4
     1  P    0.000000
     2  P    2.868979   0.000000
     3  H    1.421745   3.168935   0.000000
     4  H    3.168935   1.421745   3.986976   0.000000
 Symmetry turned off by external request.
 Stoichiometry    H2P2
 Framework group  C2H[SGH(H2P2)]
 Deg. of freedom     3
 Full point group                 C2H     NOp   4
 Rotational constants (GHZ):         128.0790857           3.8420900           3.7301924
 Leave Link  202 at Mon Apr 21 21:11:21 2025, MaxMem=   536870912 cpu:               0.2 elap:               0.2
 (Enter /home/szhao/Apps/g16/l301.exe)
 Standard basis: 6-311+G(d,p) (5D, 7F)
 Ernie: Thresh=  0.10000D-02 Tol=  0.10000D-05 Strict=F.
    72 basis functions,   116 primitive gaussians,    74 cartesian basis functions
    16 alpha electrons       16 beta electrons
       nuclear repulsion energy        57.8092532039 Hartrees.
 IExCor= 4336 DFT=T Ex+Corr=M062X ExCW=0 ScaHFX=  0.540000
 ScaDFX=  1.000000  1.000000  1.000000  1.000000 ScalE2=  1.000000  1.000000
 IRadAn=      7 IRanWt=     -1 IRanGd=            0 ICorTp=0 IEmpDi=  4
 NAtoms=    4 NActive=    4 NUniq=    4 SFac= 1.00D+00 NAtFMM=   60 NAOKFM=F Big=F
 Integral buffers will be    131072 words long.
 Raffenetti 2 integral format.
 Two-electron integral symmetry is turned off.
 Leave Link  301 at Mon Apr 21 21:11:22 2025, MaxMem=   536870912 cpu:               0.5 elap:               0.3
 (Enter /home/szhao/Apps/g16/l302.exe)
 NPDir=0 NMtPBC=     1 NCelOv=     1 NCel=       1 NClECP=     1 NCelD=      1
         NCelK=      1 NCelE2=     1 NClLst=     1 CellRange=     0.0.
 One-electron integrals computed using PRISM.
 NBasis=    72 RedAO= T EigKep=  4.72D-03  NBF=    72
 NBsUse=    72 1.00D-06 EigRej= -1.00D+00 NBFU=    72
 Precomputing XC quadrature grid using
 IXCGrd= 4 IRadAn=           7 IRanWt=          -1 IRanGd=           0 AccXCQ= 0.00D+00.
 Generated NRdTot=       0 NPtTot=           0 NUsed=           0 NTot=          32
 NSgBfM=    72    72    72    72    72 MxSgAt=     4 MxSgA2=     4.
 Leave Link  302 at Mon Apr 21 21:11:23 2025, MaxMem=   536870912 cpu:               2.2 elap:               0.5
 (Enter /home/szhao/Apps/g16/l303.exe)
 DipDrv:  MaxL=1.
 Leave Link  303 at Mon Apr 21 21:11:23 2025, MaxMem=   536870912 cpu:               0.6 elap:               0.2
 (Enter /home/szhao/Apps/g16/l401.exe)
 Initial guess from the checkpoint file:  "opt.chk"
 B after Tr=     0.000000    0.000000    0.000000
         Rot=    1.000000    0.000000   -0.000000   -0.000566 Ang=  -0.06 deg.
 Guess basis will be translated and rotated to current coordinates.
 JPrj=2 DoOrth=T DoCkMO=T.
 Initial guess <Sx>= 0.0000 <Sy>= 0.0000 <Sz>= 0.0000 <S**2>=-0.0000 S=-0.0000
 Generating alternative initial guess.
 ExpMin= 3.48D-02 ExpMax= 7.75D+04 ExpMxC= 2.65D+03 IAcc=3 IRadAn=         5 AccDes= 0.00D+00
 Harris functional with IExCor= 1009 and IRadAn=       5 diagonalized for initial guess.
 HarFok:  IExCor= 1009 AccDes= 0.00D+00 IRadAn=         5 IDoV= 1 UseB2=F ITyADJ=14
 ICtDFT=  3500011 ScaDFX=  1.000000  1.000000  1.000000  1.000000
 FoFCou: FMM=F IPFlag=           0 FMFlag=      100000 FMFlg1=           0
         NFxFlg=           0 DoJE=T BraDBF=F KetDBF=T FulRan=T
         wScrn=  0.000000 ICntrl=       500 IOpCl=  0 I1Cent=   200000004 NGrid=           0
         NMat0=    1 NMatS0=      1 NMatT0=    0 NMatD0=    1 NMtDS0=    0 NMtDT0=    0
 Symmetry not used in FoFCou.
 Harris En= -683.452906740087    
 Leave Link  401 at Mon Apr 21 21:11:24 2025, MaxMem=   536870912 cpu:               3.0 elap:               0.7
 (Enter /home/szhao/Apps/g16/l502.exe)
 Keep R1 and R2 ints in memory in canonical form, NReq=14118010.
 FoFCou: FMM=F IPFlag=           0 FMFlag=           0 FMFlg1=           0
         NFxFlg=           0 DoJE=F BraDBF=F KetDBF=F FulRan=T
         wScrn=  0.000000 ICntrl=       600 IOpCl=  0 I1Cent=           0 NGrid=           0
         NMat0=    1 NMatS0=   2628 NMatT0=    0 NMatD0=    1 NMtDS0=    0 NMtDT0=    0
 Symmetry not used in FoFCou.
 Two-electron integral symmetry not used.
 UHF open shell SCF:
 Using DIIS extrapolation, IDIIS=  1040.
 NGot=   536870912 LenX=   529949706 LenY=   529943789
 Requested convergence on RMS density matrix=1.00D-08 within 128 cycles.
 Requested convergence on MAX density matrix=1.00D-06.
 Requested convergence on             energy=1.00D-06.
 No special actions if energy rises.

 Cycle   1  Pass 1  IDiag  1:
 E= -683.730451664703    
 DIIS: error= 9.39D-04 at cycle   1 NSaved=   1.
 NSaved= 1 IEnMin= 1 EnMin= -683.730451664703     IErMin= 1 ErrMin= 9.39D-04
 ErrMax= 9.39D-04  0.00D+00 EMaxC= 1.00D-01 BMatC= 1.14D-04 BMatP= 1.14D-04
 IDIUse=3 WtCom= 9.91D-01 WtEn= 9.39D-03
 Coeff-Com:  0.100D+01
 Coeff-En:   0.100D+01
 Coeff:      0.100D+01
 Gap=     0.424 Goal=   None    Shift=    0.000
 Gap=     0.424 Goal=   None    Shift=    0.000
 RMSDP=1.27D-04 MaxDP=1.42D-03              OVMax= 4.15D-03

 Cycle   2  Pass 1  IDiag  1:
 E= -683.730514845182     Delta-E=       -0.000063180478 Rises=F Damp=F
 DIIS: error= 1.46D-04 at cycle   2 NSaved=   2.
 NSaved= 2 IEnMin= 2 EnMin= -683.730514845182     IErMin= 2 ErrMin= 1.46D-04
 ErrMax= 1.46D-04  0.00D+00 EMaxC= 1.00D-01 BMatC= 4.56D-06 BMatP= 1.14D-04
 IDIUse=3 WtCom= 9.99D-01 WtEn= 1.46D-03
 Coeff-Com: -0.135D+00 0.113D+01
 Coeff-En:   0.000D+00 0.100D+01
 Coeff:     -0.134D+00 0.113D+01
 Gap=     0.130 Goal=   None    Shift=    0.000
 Gap=     0.130 Goal=   None    Shift=    0.000
 RMSDP=3.53D-05 MaxDP=4.37D-04 DE=-6.32D-05 OVMax= 1.20D-03

 Cycle   3  Pass 1  IDiag  1:
 E= -683.730518718314     Delta-E=       -0.000003873132 Rises=F Damp=F
 DIIS: error= 2.74D-05 at cycle   3 NSaved=   3.
 NSaved= 3 IEnMin= 3 EnMin= -683.730518718314     IErMin= 3 ErrMin= 2.74D-05
 ErrMax= 2.74D-05  0.00D+00 EMaxC= 1.00D-01 BMatC= 2.74D-07 BMatP= 4.56D-06
 IDIUse=1 WtCom= 1.00D+00 WtEn= 0.00D+00
 Coeff-Com: -0.339D-01 0.142D+00 0.891D+00
 Coeff:     -0.339D-01 0.142D+00 0.891D+00
 Gap=     0.130 Goal=   None    Shift=    0.000
 Gap=     0.130 Goal=   None    Shift=    0.000
 RMSDP=1.08D-05 MaxDP=1.49D-04 DE=-3.87D-06 OVMax= 3.81D-04

 Cycle   4  Pass 1  IDiag  1:
 E= -683.730518936499     Delta-E=       -0.000000218185 Rises=F Damp=F
 DIIS: error= 1.84D-05 at cycle   4 NSaved=   4.
 NSaved= 4 IEnMin= 4 EnMin= -683.730518936499     IErMin= 4 ErrMin= 1.84D-05
 ErrMax= 1.84D-05  0.00D+00 EMaxC= 1.00D-01 BMatC= 5.57D-08 BMatP= 2.74D-07
 IDIUse=1 WtCom= 1.00D+00 WtEn= 0.00D+00
 Coeff-Com:  0.784D-02-0.104D+00 0.182D+00 0.915D+00
 Coeff:      0.784D-02-0.104D+00 0.182D+00 0.915D+00
 Gap=     0.130 Goal=   None    Shift=    0.000
 Gap=     0.130 Goal=   None    Shift=    0.000
 RMSDP=3.14D-06 MaxDP=3.97D-05 DE=-2.18D-07 OVMax= 1.10D-04

 Cycle   5  Pass 1  IDiag  1:
 E= -683.730518963586     Delta-E=       -0.000000027087 Rises=F Damp=F
 DIIS: error= 1.44D-06 at cycle   5 NSaved=   5.
 NSaved= 5 IEnMin= 5 EnMin= -683.730518963586     IErMin= 5 ErrMin= 1.44D-06
 ErrMax= 1.44D-06  0.00D+00 EMaxC= 1.00D-01 BMatC= 8.86D-10 BMatP= 5.57D-08
 IDIUse=1 WtCom= 1.00D+00 WtEn= 0.00D+00
 Coeff-Com:  0.232D-02-0.224D-01 0.126D-01 0.110D+00 0.897D+00
 Coeff:      0.232D-02-0.224D-01 0.126D-01 0.110D+00 0.897D+00
 Gap=     0.130 Goal=   None    Shift=    0.000
 Gap=     0.130 Goal=   None    Shift=    0.000
 RMSDP=4.37D-07 MaxDP=4.63D-06 DE=-2.71D-08 OVMax= 1.93D-05

 Cycle   6  Pass 1  IDiag  1:
 E= -683.730518964058     Delta-E=       -0.000000000472 Rises=F Damp=F
 DIIS: error= 2.86D-07 at cycle   6 NSaved=   6.
 NSaved= 6 IEnMin= 6 EnMin= -683.730518964058     IErMin= 6 ErrMin= 2.86D-07
 ErrMax= 2.86D-07  0.00D+00 EMaxC= 1.00D-01 BMatC= 4.91D-11 BMatP= 8.86D-10
 IDIUse=1 WtCom= 1.00D+00 WtEn= 0.00D+00
 Coeff-Com: -0.411D-03 0.609D-02-0.991D-02-0.624D-01 0.725D-01 0.994D+00
 Coeff:     -0.411D-03 0.609D-02-0.991D-02-0.624D-01 0.725D-01 0.994D+00
 Gap=     0.130 Goal=   None    Shift=    0.000
 Gap=     0.130 Goal=   None    Shift=    0.000
 RMSDP=1.20D-07 MaxDP=1.15D-06 DE=-4.72D-10 OVMax= 5.68D-06

 Cycle   7  Pass 1  IDiag  1:
 E= -683.730518964088     Delta-E=       -0.000000000030 Rises=F Damp=F
 DIIS: error= 6.03D-08 at cycle   7 NSaved=   7.
 NSaved= 7 IEnMin= 7 EnMin= -683.730518964088     IErMin= 7 ErrMin= 6.03D-08
 ErrMax= 6.03D-08  0.00D+00 EMaxC= 1.00D-01 BMatC= 1.00D-12 BMatP= 4.91D-11
 IDIUse=1 WtCom= 1.00D+00 WtEn= 0.00D+00
 Coeff-Com: -0.712D-04 0.823D-03-0.940D-03-0.709D-02-0.109D-01 0.425D-01
 Coeff-Com:  0.976D+00
 Coeff:     -0.712D-04 0.823D-03-0.940D-03-0.709D-02-0.109D-01 0.425D-01
 Coeff:      0.976D+00
 Gap=     0.130 Goal=   None    Shift=    0.000
 Gap=     0.130 Goal=   None    Shift=    0.000
 RMSDP=2.69D-08 MaxDP=3.00D-07 DE=-2.99D-11 OVMax= 7.71D-07

 Cycle   8  Pass 1  IDiag  1:
 E= -683.730518964090     Delta-E=       -0.000000000002 Rises=F Damp=F
 DIIS: error= 7.41D-08 at cycle   8 NSaved=   8.
 NSaved= 8 IEnMin= 8 EnMin= -683.730518964090     IErMin= 7 ErrMin= 6.03D-08
 ErrMax= 7.41D-08  0.00D+00 EMaxC= 1.00D-01 BMatC= 7.98D-13 BMatP= 1.00D-12
 IDIUse=1 WtCom= 1.00D+00 WtEn= 0.00D+00
 Coeff-Com: -0.227D-04 0.201D-03-0.877D-04-0.122D-02-0.957D-02-0.195D-01
 Coeff-Com:  0.534D+00 0.496D+00
 Coeff:     -0.227D-04 0.201D-03-0.877D-04-0.122D-02-0.957D-02-0.195D-01
 Coeff:      0.534D+00 0.496D+00
 Gap=     0.130 Goal=   None    Shift=    0.000
 Gap=     0.130 Goal=   None    Shift=    0.000
 RMSDP=1.47D-08 MaxDP=3.13D-07 DE=-1.71D-12 OVMax= 8.70D-07

 Cycle   9  Pass 1  IDiag  1:
 E= -683.730518964089     Delta-E=        0.000000000000 Rises=F Damp=F
 DIIS: error= 9.40D-08 at cycle   9 NSaved=   9.
 NSaved= 9 IEnMin= 8 EnMin= -683.730518964090     IErMin= 7 ErrMin= 6.03D-08
 ErrMax= 9.40D-08  0.00D+00 EMaxC= 1.00D-01 BMatC= 1.21D-12 BMatP= 7.98D-13
 IDIUse=1 WtCom= 1.00D+00 WtEn= 0.00D+00
 Coeff-Com:  0.174D-04-0.272D-03 0.484D-03 0.298D-02-0.457D-02-0.485D-01
 Coeff-Com:  0.945D-02 0.583D+00 0.457D+00
 Coeff:      0.174D-04-0.272D-03 0.484D-03 0.298D-02-0.457D-02-0.485D-01
 Coeff:      0.945D-02 0.583D+00 0.457D+00
 Gap=     0.130 Goal=   None    Shift=    0.000
 Gap=     0.130 Goal=   None    Shift=    0.000
 RMSDP=9.45D-09 MaxDP=1.78D-07 DE= 4.55D-13 OVMax= 4.93D-07

 SCF Done:  E(UM062X) =  -683.730518964     A.U. after    9 cycles
            NFock=  9  Conv=0.95D-08     -V/T= 2.0019
 <Sx>= 0.0000 <Sy>= 0.0000 <Sz>= 0.0000 <S**2>=-0.0000 S=-0.0000
 <L.S>=  0.00000000000    
 KE= 6.824382229327D+02 PE=-1.741968003548D+03 EE= 3.179900084477D+02
 Annihilation of the first spin contaminant:
 S**2 before annihilation    -0.0000,   after     0.0000
 Leave Link  502 at Mon Apr 21 21:11:30 2025, MaxMem=   536870912 cpu:              41.5 elap:               5.6
 (Enter /home/szhao/Apps/g16/l701.exe)
 ... and contract with generalized density number  0.
 Compute integral first derivatives.
 Leave Link  701 at Mon Apr 21 21:11:30 2025, MaxMem=   536870912 cpu:               1.1 elap:               0.2
 (Enter /home/szhao/Apps/g16/l702.exe)
 L702 exits ... SP integral derivatives will be done elsewhere.
 Leave Link  702 at Mon Apr 21 21:11:31 2025, MaxMem=   536870912 cpu:               0.3 elap:               0.1
 (Enter /home/szhao/Apps/g16/l703.exe)
 Integral derivatives from FoFJK, PRISM(SPDF).
 Compute integral first derivatives, UseDBF=F ICtDFT=           0.
 Calling FoFJK, ICntrl=      2127 FMM=F ISym2X=0 I1Cent= 0 IOpClX= 1 NMat=1 NMatS=1 NMatT=0.
 FoFJK:  IHMeth= 1 ICntrl=    2127 DoSepK=F KAlg= 0 I1Cent=           0 FoldK=F
 IRaf=         0 NMat=       1 IRICut=       1 DoRegI=T DoRafI=F ISym2E= 0 IDoP0=0 IntGTp=1.
 FoFCou: FMM=F IPFlag=           0 FMFlag=      100000 FMFlg1=         800
         NFxFlg=           0 DoJE=F BraDBF=F KetDBF=F FulRan=T
         wScrn=  0.000000 ICntrl=      2127 IOpCl=  1 I1Cent=           0 NGrid=           0
         NMat0=    1 NMatS0=      1 NMatT0=    0 NMatD0=    1 NMtDS0=    0 NMtDT0=    0
 Symmetry not used in FoFCou.
 Leave Link  703 at Mon Apr 21 21:11:32 2025, MaxMem=   536870912 cpu:               6.2 elap:               0.8
 (Enter /home/szhao/Apps/g16/l716.exe)
 Dipole        = 1.01414397D-07-1.90174854D-09 9.71086377D-10
 -------------------------------------------------------------------
 Center     Atomic                   Forces (Hartrees/Bohr)
 Number     Number              X              Y              Z
 -------------------------------------------------------------------
      1       15          -0.000000000   -0.000000000   -0.000000000
      2       15          -0.000000000   -0.000000000   -0.000000000
      3        1           0.000014941   -0.000029915   -0.000000000
      4        1          -0.000014941    0.000029913   -0.000000000
 -------------------------------------------------------------------
 Cartesian Forces:  Max     0.000029915 RMS     0.000013651
 Leave Link  716 at Mon Apr 21 21:11:33 2025, MaxMem=   536870912 cpu:               0.7 elap:               0.2
 (Enter /home/szhao/Apps/g16/l103.exe)

 GradGradGradGradGradGradGradGradGradGradGradGradGradGradGradGradGradGrad
 Berny optimization.
 Using GEDIIS/GDIIS optimizer.
 FormGI is forming the generalized inverse of G from B-inverse, IUseBI=4.
 Internal  Forces:  Max     0.000043954 RMS     0.000028671
 Search for a local minimum.
 Step number   3 out of a maximum of   21
 All quantities printed in internal units (Hartrees-Bohrs-Radians)
 RMS Force = .30763D-04 SwitMx=.10000D-02 MixMth= 2
 Mixed Optimization -- En-DIIS/RFO-DIIS
 Update second derivatives using D2CorX and points    1    2    3
 DE= -5.59D-05 DEPred=-5.55D-05 R= 1.01D+00
 TightC=F SS=  1.41D+00  RLast= 2.92D-02 DXNew= 5.5456D-01 8.7691D-02
 Trust test= 1.01D+00 RLast= 2.92D-02 DXMaxT set to 3.30D-01
 The second derivative matrix:
                          X1        Y1        Z1        X2        Y2
           X1           0.50887
           Y1          -0.00574   0.50381
           Z1           0.00000  -0.00000   0.50000
           X2          -0.00887   0.00574  -0.00000   0.50887
           Y2           0.00574  -0.00381   0.00000  -0.00574   0.50381
           Z2           0.00000  -0.00000   0.00000  -0.00000   0.00000
           R1           0.00212  -0.00463  -0.00000  -0.00212   0.00463
           R2           0.00212  -0.00463  -0.00000  -0.00212   0.00463
           A1          -0.02370   0.01519  -0.00000   0.02370  -0.01519
           A2          -0.02370   0.01519  -0.00000   0.02370  -0.01519
           D1           0.00000  -0.00000   0.00000  -0.00000   0.00000
                          Z2        R1        R2        A1        A2
           Z2           0.50000
           R1          -0.00000   0.20930
           R2          -0.00000   0.00056   0.20930
           A1          -0.00000  -0.00138  -0.00138   0.14347
           A2          -0.00000  -0.00138  -0.00138  -0.01653   0.14347
           D1           0.00000  -0.00000  -0.00000  -0.00000  -0.00000
                          D1
           D1           0.00230
 ITU=  1  1  0
 Use linear search instead of GDIIS.
     Eigenvalues ---    0.00230   0.12684   0.16000   0.20874   0.20995
     Eigenvalues --- 1000.000001000.000001000.000001000.000001000.00000
     Eigenvalues --- 1000.00000
 RFO step:  Lambda=-1.17640107D-08 EMin= 2.30000000D-03
 Quartic linear search produced a step of  0.01327.
 Iteration  1 RMS(Cart)=  0.00034356 RMS(Int)=  0.00000005
 Iteration  2 RMS(Cart)=  0.00000007 RMS(Int)=  0.00000000
 ITry= 1 IFail=0 DXMaxC= 7.97D-04 DCOld= 1.00D+10 DXMaxT= 3.30D-01 DXLimC= 3.00D+00 Rises=F
 Variable       Old X    -DE/DX   Delta X   Delta X   Delta X     New X
                                 (Linear)    (Quad)   (Total)
    X1       -2.71079   0.00001   0.00000   0.00000   0.00000  -2.71079
    Y1        0.00000  -0.00004   0.00000   0.00000   0.00000   0.00000
    Z1        0.00000  -0.00000   0.00000   0.00000   0.00000   0.00000
    X2        2.71079  -0.00001   0.00000   0.00000   0.00000   2.71079
    Y2        0.00000   0.00004   0.00000   0.00000   0.00000   0.00000
    Z2        0.00000  -0.00000   0.00000   0.00000   0.00000   0.00000
    R1        2.68671   0.00003  -0.00003   0.00017   0.00014   2.68685
    R2        2.68671   0.00003  -0.00003   0.00017   0.00014   2.68685
    A1        1.54502  -0.00004  -0.00027  -0.00002  -0.00030   1.54473
    A2        1.54502  -0.00004  -0.00027  -0.00002  -0.00030   1.54473
    D1       -3.14159  -0.00000   0.00000  -0.00000  -0.00000   3.14159
         Item               Value     Threshold  Converged?
 Maximum Force            0.000038     0.000450     YES
 RMS     Force            0.000031     0.000300     YES
 Maximum Displacement     0.000797     0.001800     YES
 RMS     Displacement     0.000344     0.001200     YES
 Predicted change in Energy=-1.554750D-08
 Optimization completed.
    -- Stationary point found.
                           ----------------------------
                           !   Optimized Parameters   !
                           ! (Angstroms and Degrees)  !
 --------------------------                            --------------------------
 ! Name  Definition              Value          Derivative Info.                !
 --------------------------------------------------------------------------------
 ! X1    R(1,-1)                -1.4345         -DE/DX =    0.0                 !
 ! Y1    R(1,-2)                 0.0            -DE/DX =    0.0                 !
 ! Z1    R(1,-3)                 0.0            -DE/DX =    0.0                 !
 ! X2    R(2,-1)                 1.4345         -DE/DX =    0.0                 !
 ! Y2    R(2,-2)                 0.0            -DE/DX =    0.0                 !
 ! Z2    R(2,-3)                 0.0            -DE/DX =    0.0                 !
 ! R1    R(1,3)                  1.4217         -DE/DX =    0.0                 !
 ! R2    R(2,4)                  1.4217         -DE/DX =    0.0                 !
 ! A1    A(2,1,3)               88.5232         -DE/DX =    0.0                 !
 ! A2    A(1,2,4)               88.5232         -DE/DX =    0.0                 !
 ! D1    D(3,1,2,4)            180.0            -DE/DX =    0.0                 !
 --------------------------------------------------------------------------------
 Lowest energy point so far.  Saving SCF results.
 Largest change from initial coordinates is atom    4       0.140 Angstoms.
 GradGradGradGradGradGradGradGradGradGradGradGradGradGradGradGradGradGrad

 Leave Link  103 at Mon Apr 21 21:11:33 2025, MaxMem=   536870912 cpu:               0.5 elap:               0.1
 (Enter /home/szhao/Apps/g16/l202.exe)
                          Input orientation:                          
 ---------------------------------------------------------------------
 Center     Atomic      Atomic             Coordinates (Angstroms)
 Number     Number       Type             X           Y           Z
 ---------------------------------------------------------------------
      1         15           0       -1.434490    0.000000    0.000000
      2         15           0        1.434490    0.000000    0.000000
      3          1           0       -1.397848   -1.421272    0.000000
      4          1           0        1.397848    1.421272    0.000000
 ---------------------------------------------------------------------
                    Distance matrix (angstroms):
                    1          2          3          4
     1  P    0.000000
     2  P    2.868979   0.000000
     3  H    1.421745   3.168935   0.000000
     4  H    3.168935   1.421745   3.986976   0.000000
 Symmetry turned off by external request.
 Stoichiometry    H2P2
 Framework group  C2H[SGH(H2P2)]
 Deg. of freedom     3
 Full point group                 C2H     NOp   4
 Rotational constants (GHZ):         128.0790857           3.8420900           3.7301924
 Leave Link  202 at Mon Apr 21 21:11:34 2025, MaxMem=   536870912 cpu:               0.2 elap:               0.1
 (Enter /home/szhao/Apps/g16/l601.exe)
 Copying SCF densities to generalized density rwf, IOpCl= 1 IROHF=0.

 **********************************************************************

            Population analysis using the SCF density.

 **********************************************************************

 Alpha  occ. eigenvalues --  -78.07773 -78.07773  -6.89737  -6.89735  -5.01185
 Alpha  occ. eigenvalues --   -5.01184  -5.01136  -5.01135  -5.00969  -5.00968
 Alpha  occ. eigenvalues --   -0.70375  -0.66054  -0.40899  -0.39771  -0.30473
 Alpha  occ. eigenvalues --   -0.26747
 Alpha virt. eigenvalues --   -0.13729  -0.07540   0.01912   0.03358   0.03861
 Alpha virt. eigenvalues --    0.04639   0.04978   0.06119   0.06758   0.08576
 Alpha virt. eigenvalues --    0.09221   0.12602   0.28113   0.29749   0.30369
 Alpha virt. eigenvalues --    0.30783   0.33620   0.34165   0.39336   0.44238
 Alpha virt. eigenvalues --    0.52143   0.59542   0.65758   0.66326   0.66683
 Alpha virt. eigenvalues --    0.68839   0.69506   0.69831   0.73621   0.86056
 Alpha virt. eigenvalues --    0.91818   0.92644   1.43221   1.45442   1.45671
 Alpha virt. eigenvalues --    1.47066   1.49572   1.53267   1.55894   1.59523
 Alpha virt. eigenvalues --    1.59764   1.73180   2.02677   2.03037   2.57996
 Alpha virt. eigenvalues --    2.60700   6.85926   6.92250  13.91691  13.95112
 Alpha virt. eigenvalues --   13.97613  14.00115  14.02231  14.05383 163.10878
 Alpha virt. eigenvalues --  163.19272
  Beta  occ. eigenvalues --  -78.07773 -78.07773  -6.89737  -6.89735  -5.01185
  Beta  occ. eigenvalues --   -5.01184  -5.01136  -5.01135  -5.00969  -5.00968
  Beta  occ. eigenvalues --   -0.70375  -0.66054  -0.40899  -0.39771  -0.30473
  Beta  occ. eigenvalues --   -0.26747
  Beta virt. eigenvalues --   -0.13729  -0.07540   0.01912   0.03358   0.03861
  Beta virt. eigenvalues --    0.04639   0.04978   0.06119   0.06758   0.08576
  Beta virt. eigenvalues --    0.09221   0.12602   0.28113   0.29749   0.30369
  Beta virt. eigenvalues --    0.30783   0.33620   0.34165   0.39336   0.44238
  Beta virt. eigenvalues --    0.52143   0.59542   0.65758   0.66326   0.66683
  Beta virt. eigenvalues --    0.68839   0.69506   0.69831   0.73621   0.86056
  Beta virt. eigenvalues --    0.91818   0.92644   1.43221   1.45442   1.45671
  Beta virt. eigenvalues --    1.47066   1.49572   1.53267   1.55894   1.59523
  Beta virt. eigenvalues --    1.59764   1.73180   2.02677   2.03037   2.57996
  Beta virt. eigenvalues --    2.60700   6.85926   6.92250  13.91691  13.95112
  Beta virt. eigenvalues --   13.97613  14.00115  14.02231  14.05383 163.10878
  Beta virt. eigenvalues --  163.19272
          Condensed to atoms (all electrons):
               1          2          3          4
     1  P   14.445954   0.330043   0.221616  -0.004687
     2  P    0.330043  14.445954  -0.004687   0.221616
     3  H    0.221616  -0.004687   0.789088   0.001058
     4  H   -0.004687   0.221616   0.001058   0.789088
          Atomic-Atomic Spin Densities.
               1          2          3          4
     1  P   -0.000000  -0.000000   0.000000   0.000000
     2  P   -0.000000   0.000000  -0.000000  -0.000000
     3  H    0.000000  -0.000000   0.000000  -0.000000
     4  H    0.000000  -0.000000  -0.000000  -0.000000
 Mulliken charges and spin densities:
               1          2
     1  P    0.007074  -0.000000
     2  P    0.007074   0.000000
     3  H   -0.007074   0.000000
     4  H   -0.007074  -0.000000
 Sum of Mulliken charges =  -0.00000   0.00000
 Mulliken charges and spin densities with hydrogens summed into heavy atoms:
               1          2
     1  P   -0.000000  -0.000000
     2  P    0.000000   0.000000
 Electronic spatial extent (au):  <R**2>=            313.0391
 Charge=             -0.0000 electrons
 Dipole moment (field-independent basis, Debye):
    X=              0.0000    Y=             -0.0000    Z=              0.0000  Tot=              0.0000
 Quadrupole moment (field-independent basis, Debye-Ang):
   XX=            -27.9117   YY=            -28.0739   ZZ=            -30.3716
   XY=              2.6762   XZ=             -0.0000   YZ=              0.0000
 Traceless Quadrupole moment (field-independent basis, Debye-Ang):
   XX=              0.8740   YY=              0.7118   ZZ=             -1.5859
   XY=              2.6762   XZ=             -0.0000   YZ=              0.0000
 Octapole moment (field-independent basis, Debye-Ang**2):
  XXX=              0.0000  YYY=             -0.0000  ZZZ=             -0.0000  XYY=              0.0000
  XXY=             -0.0000  XXZ=              0.0000  XZZ=              0.0000  YZZ=             -0.0000
  YYZ=             -0.0000  XYZ=              0.0000
 Hexadecapole moment (field-independent basis, Debye-Ang**3):
 XXXX=           -397.3041 YYYY=            -63.5756 ZZZZ=            -55.2560 XXXY=              1.9680
 XXXZ=             -0.0000 YYYX=             -6.6271 YYYZ=              0.0000 ZZZX=             -0.0000
 ZZZY=              0.0000 XXYY=            -76.0374 XXZZ=            -75.9867 YYZZ=            -20.3711
 XXYZ=              0.0000 YYXZ=             -0.0000 ZZXY=             -1.9485
 N-N= 5.780925320386D+01 E-N=-1.741968003452D+03  KE= 6.824382229327D+02
                          Isotropic Fermi Contact Couplings
        Atom                 a.u.       MegaHertz       Gauss      10(-4) cm-1
     1  P(31)              0.00000       0.00000       0.00000       0.00000
     2  P(31)             -0.00000      -0.00000      -0.00000      -0.00000
     3  H(1)               0.00000       0.00000       0.00000       0.00000
     4  H(1)              -0.00000      -0.00000      -0.00000      -0.00000
 --------------------------------------------------------
       Center         ----  Spin Dipole Couplings  ----
                      3XX-RR        3YY-RR        3ZZ-RR
 --------------------------------------------------------
     1   Atom        0.000000      0.000000     -0.000000
     2   Atom       -0.000000     -0.000000      0.000000
     3   Atom        0.000000     -0.000000     -0.000000
     4   Atom       -0.000000      0.000000      0.000000
 --------------------------------------------------------
                        XY            XZ            YZ
 --------------------------------------------------------
     1   Atom       -0.000000      0.000000      0.000000
     2   Atom        0.000000      0.000000      0.000000
     3   Atom        0.000000      0.000000     -0.000000
     4   Atom       -0.000000      0.000000      0.000000
 --------------------------------------------------------


 ---------------------------------------------------------------------------------
              Anisotropic Spin Dipole Couplings in Principal Axis System
 ---------------------------------------------------------------------------------

       Atom             a.u.   MegaHertz   Gauss  10(-4) cm-1        Axes

              Baa    -0.0000    -0.000    -0.000    -0.000 -0.0006 -0.0000  1.0000
     1 P(31)  Bbb     0.0000     0.000     0.000     0.000  0.9979  0.0643  0.0006
              Bcc     0.0000     0.000     0.000     0.000 -0.0643  0.9979 -0.0000
 
              Baa    -0.0000    -0.000    -0.000    -0.000 -0.0686  0.9976  0.0000
     2 P(31)  Bbb    -0.0000    -0.000    -0.000    -0.000  0.9976  0.0686 -0.0006
              Bcc     0.0000     0.000     0.000     0.000  0.0006  0.0000  1.0000
 
              Baa    -0.0000    -0.000    -0.000    -0.000 -0.0870  0.9962  0.0001
     3 H(1)   Bbb    -0.0000    -0.000    -0.000    -0.000 -0.0003 -0.0001  1.0000
              Bcc     0.0000     0.000     0.000     0.000  0.9962  0.0870  0.0003
 
              Baa    -0.0000    -0.000    -0.000    -0.000  0.9962  0.0870 -0.0003
     4 H(1)   Bbb     0.0000     0.000     0.000     0.000  0.0003  0.0001  1.0000
              Bcc     0.0000     0.000     0.000     0.000 -0.0870  0.9962 -0.0000
 

 ---------------------------------------------------------------------------------

 No NMR shielding tensors so no spin-rotation constants.
 Leave Link  601 at Mon Apr 21 21:11:34 2025, MaxMem=   536870912 cpu:               1.9 elap:               0.3
 (Enter /home/szhao/Apps/g16/l9999.exe)
 1\1\GINC-NODE06\FOpt\UM062X\6-311+G(d,p)\H2P2\SZHAO\21-Apr-2025\0\\#p 
 opt UM062X/6-311+G** nosymm int=superfine\\Title Card Required\\0,1\P,
 -1.43448966,0.,0.\P,1.43448966,0.,0.\H,-1.3978479743,-1.4212724785,0.0
 000000055\H,1.3978479721,1.4212724798,0.0000000055\\Version=ES64L-G16R
 evA.03\HF=-683.730519\S2=0.\S2-1=0.\S2A=0.\RMSD=9.452e-09\RMSF=1.365e-
 05\Dipole=0.0000001,0.,0.\Quadrupole=0.6498154,0.5292303,-1.1790457,1.
 9897059,0.,0.\PG=C02H [SGH(H2P2)]\\@


 Democracy is the recurrent suspicion that more than half of the people
 are right more than half of the time.
 -- E. B. White
 Job cpu time:       0 days  0 hours  3 minutes 24.0 seconds.
 Elapsed time:       0 days  0 hours  0 minutes 34.7 seconds.
 File lengths (MBytes):  RWF=     22 Int=      0 D2E=      0 Chk=      2 Scr=      2
 Normal termination of Gaussian 16 at Mon Apr 21 21:11:35 2025.
