Title Card Required                                                     
Force     UM062X                                                      6-311+G(d,p)        
Number of atoms                            I                6
Info1-9                                    I   N=           9
          15          15           0           0           0         100
           5          18        -502
Full Title                                 C   N=           2
Title Card Required     
Route                                      C   N=           4
#p UM062X/6-311+G** force int=superfine         
Charge                                     I                0
Multiplicity                               I                1
Number of electrons                        I               16
Number of alpha electrons                  I                8
Number of beta electrons                   I                8
Number of basis functions                  I               68
Number of independent functions            I               68
Number of point charges in /Mol/           I                0
Number of translation vectors              I                0
Atomic numbers                             I   N=           6
           6           6           1           1           1           1
Nuclear charges                            R   N=           6
  6.00000000E+00  6.00000000E+00  1.00000000E+00  1.00000000E+00  1.00000000E+00
  1.00000000E+00
Current cartesian coordinates              R   N=          18
  1.60102192E-21  1.96665499E+00  0.00000000E+00 -2.40848442E-16 -1.96665499E+00
  0.00000000E+00 -1.84446529E+00  2.82853261E+00  0.00000000E+00  1.84470340E+00
  2.82858553E+00  0.00000000E+00  1.84446529E+00 -2.82853261E+00  0.00000000E+00
 -1.84470340E+00 -2.82858553E+00  0.00000000E+00
Number of symbols in /Mol/                 I                0
Force Field                                I                0
Atom Types                                 C   N=           6
                                                            
            
Int Atom Types                             I   N=           6
           0           0           0           0           0           0
MM charges                                 R   N=           6
  0.00000000E+00  0.00000000E+00  0.00000000E+00  0.00000000E+00  0.00000000E+00
  0.00000000E+00
Integer atomic weights                     I   N=           6
          12          12           1           1           1           1
Real atomic weights                        R   N=           6
  1.20000000E+01  1.20000000E+01  1.00782504E+00  1.00782504E+00  1.00782504E+00
  1.00782504E+00
Atom fragment info                         I   N=           6
           0           0           0           0           0           0
Atom residue num                           I   N=           6
           0           0           0           0           0           0
Nuclear spins                              I   N=           6
           0           0           1           1           1           1
Nuclear ZEff                               R   N=           6
 -3.60000000E+00 -3.60000000E+00 -1.00000000E+00 -1.00000000E+00 -1.00000000E+00
 -1.00000000E+00
Nuclear ZNuc                               R   N=           6
  6.00000000E+00  6.00000000E+00  1.00000000E+00  1.00000000E+00  1.00000000E+00
  1.00000000E+00
Nuclear QMom                               R   N=           6
  0.00000000E+00  0.00000000E+00  0.00000000E+00  0.00000000E+00  0.00000000E+00
  0.00000000E+00
Nuclear GFac                               R   N=           6
  0.00000000E+00  0.00000000E+00  2.79284600E+00  2.79284600E+00  2.79284600E+00
  2.79284600E+00
MicOpt                                     I   N=           6
          -1          -1          -1          -1          -1          -1
Number of residues                         I                0
Number of secondary structures             I                0
SymInf integers                            I   N=          26
           2           4           1           1           1          -1
          -1           1           1           1          -1          -1
          -1          -1           0           0           0           0
           0           0           0           0           0           0
           0           0
RotTr to input orientation                 R   N=          12
  2.49352932E-18  1.00000000E+00  0.00000000E+00 -1.00000000E+00  2.49380068E-18
  0.00000000E+00  0.00000000E+00  0.00000000E+00  1.00000000E+00  0.00000000E+00
  0.00000000E+00  0.00000000E+00
Number of contracted shells                I               28
Number of primitive shells                 I               50
Pure/Cartesian d shells                    I                0
Pure/Cartesian f shells                    I                0
Highest angular momentum                   I                2
Largest degree of contraction              I                6
Shell types                                I   N=          28
           0          -1          -1          -1          -1          -2
           0          -1          -1          -1          -1          -2
           0           0           0           1           0           0
           0           1           0           0           0           1
           0           0           0           1
Number of primitives per shell             I   N=          28
           6           3           1           1           1           1
           6           3           1           1           1           1
           3           1           1           1           3           1
           1           1           3           1           1           1
           3           1           1           1
Shell to atom map                          I   N=          28
           1           1           1           1           1           1
           2           2           2           2           2           2
           3           3           3           3           4           4
           4           4           5           5           5           5
           6           6           6           6
Primitive exponents                        R   N=          50
  4.56324000E+03  6.82024000E+02  1.54973000E+02  4.44553000E+01  1.30290000E+01
  1.82773000E+00  2.09642000E+01  4.80331000E+00  1.45933000E+00  4.83456000E-01
  1.45585000E-01  4.38000000E-02  6.26000000E-01  4.56324000E+03  6.82024000E+02
  1.54973000E+02  4.44553000E+01  1.30290000E+01  1.82773000E+00  2.09642000E+01
  4.80331000E+00  1.45933000E+00  4.83456000E-01  1.45585000E-01  4.38000000E-02
  6.26000000E-01  3.38650000E+01  5.09479000E+00  1.15879000E+00  3.25840000E-01
  1.02741000E-01  7.50000000E-01  3.38650000E+01  5.09479000E+00  1.15879000E+00
  3.25840000E-01  1.02741000E-01  7.50000000E-01  3.38650000E+01  5.09479000E+00
  1.15879000E+00  3.25840000E-01  1.02741000E-01  7.50000000E-01  3.38650000E+01
  5.09479000E+00  1.15879000E+00  3.25840000E-01  1.02741000E-01  7.50000000E-01
Contraction coefficients                   R   N=          50
  1.96665025E-03  1.52306019E-02  7.61269097E-02  2.60801033E-01  6.16462078E-01
  2.21006028E-01  1.14660081E-01  9.19999648E-01 -3.03068213E-03  1.00000000E+00
  1.00000000E+00  1.00000000E+00  1.00000000E+00  1.96665025E-03  1.52306019E-02
  7.61269097E-02  2.60801033E-01  6.16462078E-01  2.21006028E-01  1.14660081E-01
  9.19999648E-01 -3.03068213E-03  1.00000000E+00  1.00000000E+00  1.00000000E+00
  1.00000000E+00  2.54938145E-02  1.90373109E-01  8.52161486E-01  1.00000000E+00
  1.00000000E+00  1.00000000E+00  2.54938145E-02  1.90373109E-01  8.52161486E-01
  1.00000000E+00  1.00000000E+00  1.00000000E+00  2.54938145E-02  1.90373109E-01
  8.52161486E-01  1.00000000E+00  1.00000000E+00  1.00000000E+00  2.54938145E-02
  1.90373109E-01  8.52161486E-01  1.00000000E+00  1.00000000E+00  1.00000000E+00
P(S=P) Contraction coefficients            R   N=          50
  0.00000000E+00  0.00000000E+00  0.00000000E+00  0.00000000E+00  0.00000000E+00
  0.00000000E+00  4.02486927E-02  2.37593957E-01  8.15853851E-01  1.00000000E+00
  1.00000000E+00  1.00000000E+00  0.00000000E+00  0.00000000E+00  0.00000000E+00
  0.00000000E+00  0.00000000E+00  0.00000000E+00  0.00000000E+00  4.02486927E-02
  2.37593957E-01  8.15853851E-01  1.00000000E+00  1.00000000E+00  1.00000000E+00
  0.00000000E+00  0.00000000E+00  0.00000000E+00  0.00000000E+00  0.00000000E+00
  0.00000000E+00  0.00000000E+00  0.00000000E+00  0.00000000E+00  0.00000000E+00
  0.00000000E+00  0.00000000E+00  0.00000000E+00  0.00000000E+00  0.00000000E+00
  0.00000000E+00  0.00000000E+00  0.00000000E+00  0.00000000E+00  0.00000000E+00
  0.00000000E+00  0.00000000E+00  0.00000000E+00  0.00000000E+00  0.00000000E+00
Coordinates of each shell                  R   N=          84
  1.06734795E-21  1.96665499E+00  0.00000000E+00  1.06734795E-21  1.96665499E+00
  0.00000000E+00  1.06734795E-21  1.96665499E+00  0.00000000E+00  1.06734795E-21
  1.96665499E+00  0.00000000E+00  1.06734795E-21  1.96665499E+00  0.00000000E+00
  1.06734795E-21  1.96665499E+00  0.00000000E+00 -2.40847908E-16 -1.96665499E+00
  0.00000000E+00 -2.40847908E-16 -1.96665499E+00  0.00000000E+00 -2.40847908E-16
 -1.96665499E+00  0.00000000E+00 -2.40847908E-16 -1.96665499E+00  0.00000000E+00
 -2.40847908E-16 -1.96665499E+00  0.00000000E+00 -2.40847908E-16 -1.96665499E+00
  0.00000000E+00 -1.84446529E+00  2.82853261E+00  0.00000000E+00 -1.84446529E+00
  2.82853261E+00  0.00000000E+00 -1.84446529E+00  2.82853261E+00  0.00000000E+00
 -1.84446529E+00  2.82853261E+00  0.00000000E+00  1.84470340E+00  2.82858553E+00
  0.00000000E+00  1.84470340E+00  2.82858553E+00  0.00000000E+00  1.84470340E+00
  2.82858553E+00  0.00000000E+00  1.84470340E+00  2.82858553E+00  0.00000000E+00
  1.84446529E+00 -2.82853261E+00  0.00000000E+00  1.84446529E+00 -2.82853261E+00
  0.00000000E+00  1.84446529E+00 -2.82853261E+00  0.00000000E+00  1.84446529E+00
 -2.82853261E+00  0.00000000E+00 -1.84470340E+00 -2.82858553E+00  0.00000000E+00
 -1.84470340E+00 -2.82858553E+00  0.00000000E+00 -1.84470340E+00 -2.82858553E+00
  0.00000000E+00 -1.84470340E+00 -2.82858553E+00  0.00000000E+00
Num ILSW                                   I              100
ILSW                                       I   N=         100
           1           0           0           0           2           0
           0           0           0           0        4336          -1
           7           0           0           0           2           0
           0           0           0           0           1           0
           1           0           0           0           0           0
           0           0      100000           0          -1           0
           0           0           0           0           0           0
           0           0           0           1           0           0
           0 -2000000000           1           0           0           0
           0           0           4          52           0           0
           0           0          55           0           0           0
           0           0           0           6           0           1
           0           0           0           0           0           0
           0           0           0           0           0           0
           0           0           0           0           0           0
           0           0           0           0           0           0
           0           0           0           0
Num RLSW                                   I               52
RLSW                                       R   N=          52
  1.00000000E+00  1.00000000E+00  1.00000000E+00  1.00000000E+00  5.40000000E-01
  0.00000000E+00  0.00000000E+00  1.00000000E+00  0.00000000E+00  0.00000000E+00
  0.00000000E+00  0.00000000E+00  1.00000000E+00  0.00000000E+00  0.00000000E+00
  0.00000000E+00  0.00000000E+00  1.00000000E+00  0.00000000E+00  0.00000000E+00
  0.00000000E+00  0.00000000E+00  1.00000000E+00  0.00000000E+00  0.00000000E+00
  0.00000000E+00  0.00000000E+00  1.00000000E+00  0.00000000E+00  0.00000000E+00
  0.00000000E+00  0.00000000E+00  1.00000000E+00  0.00000000E+00  0.00000000E+00
  0.00000000E+00  0.00000000E+00  0.00000000E+00  1.00000000E+00  1.00000000E+00
  0.00000000E+00  1.00000000E+00  0.00000000E+00  0.00000000E+00  0.00000000E+00
  0.00000000E+00  0.00000000E+00  0.00000000E+00  0.00000000E+00  0.00000000E+00
  0.00000000E+00  0.00000000E+00
MxBond                                     I                2
NBond                                      I   N=           6
           2           2           1           1           1           1
IBond                                      I   N=          12
           3           4           5           6           1           0
           1           0           2           0           2           0
RBond                                      R   N=          12
  1.00000000E+00  1.00000000E+00  1.00000000E+00  1.00000000E+00  1.00000000E+00
  0.00000000E+00  1.00000000E+00  0.00000000E+00  1.00000000E+00  0.00000000E+00
  1.00000000E+00  0.00000000E+00
Virial Ratio                               R      2.012069783473481E+00
SCF Energy                                 R     -7.835410922359326E+01
Total Energy                               R     -7.835410922359326E+01
S**2                                       R     -5.329070518200751E-15
S**2 after annihilation                    R     -2.255973186038304E-13
RMS Force                                  R      5.180807390590922E-02
RMS Density                                R      4.746947388126734E-09
Job Status                                 I                1
Nuclear derivative order                   I                1
External E-field                           R   N=          35
  0.00000000E+00  0.00000000E+00  0.00000000E+00  0.00000000E+00  0.00000000E+00
  0.00000000E+00  0.00000000E+00  0.00000000E+00  0.00000000E+00  0.00000000E+00
  0.00000000E+00  0.00000000E+00  0.00000000E+00  0.00000000E+00  0.00000000E+00
  0.00000000E+00  0.00000000E+00  0.00000000E+00  0.00000000E+00  0.00000000E+00
  0.00000000E+00  0.00000000E+00  0.00000000E+00  0.00000000E+00  0.00000000E+00
  0.00000000E+00  0.00000000E+00  0.00000000E+00  0.00000000E+00  0.00000000E+00
  0.00000000E+00  0.00000000E+00  0.00000000E+00  0.00000000E+00  0.00000000E+00
IOpCl                                      I                1
IROHF                                      I                0
Alpha Orbital Energies                     R   N=          68
 -1.06139410E+01 -1.06138179E+01 -7.71942897E-01 -7.18381692E-01 -5.30561207E-01
 -5.02961414E-01 -3.69887467E-01 -2.57357836E-01 -7.18120053E-02  9.64961769E-03
  3.36188044E-02  5.38135242E-02  7.27623765E-02  8.19993625E-02  9.17341702E-02
  9.92233348E-02  1.13482536E-01  1.52260412E-01  1.64257903E-01  2.03727705E-01
  2.13399815E-01  2.79850117E-01  3.95108557E-01  4.34541984E-01  4.47153947E-01
  5.84210925E-01  6.18588790E-01  6.39620337E-01  6.49827381E-01  6.71835219E-01
  7.03063410E-01  7.62415730E-01  7.64526286E-01  8.22657305E-01  1.07870170E+00
  1.09364679E+00  1.16682420E+00  1.18557172E+00  1.39827751E+00  1.41770444E+00
  1.45075442E+00  1.51468499E+00  1.52360978E+00  1.69812338E+00  1.73677132E+00
  1.77866778E+00  1.81972443E+00  1.86840667E+00  1.93180795E+00  2.00693184E+00
  2.02374130E+00  2.05810785E+00  2.35839260E+00  2.53314857E+00  2.57483894E+00
  2.59567103E+00  2.62333662E+00  2.63917773E+00  2.64761861E+00  2.70280272E+00
  2.76316039E+00  2.77235043E+00  2.78651922E+00  3.33608624E+00  3.71148897E+00
  3.74909603E+00  2.38239022E+01  2.38293238E+01
Beta Orbital Energies                      R   N=          68
 -1.06139410E+01 -1.06138179E+01 -7.71942897E-01 -7.18381692E-01 -5.30561207E-01
 -5.02961414E-01 -3.69887467E-01 -2.57357836E-01 -7.18120053E-02  9.64961769E-03
  3.36188044E-02  5.38135242E-02  7.27623765E-02  8.19993625E-02  9.17341702E-02
  9.92233348E-02  1.13482536E-01  1.52260412E-01  1.64257903E-01  2.03727705E-01
  2.13399815E-01  2.79850117E-01  3.95108557E-01  4.34541984E-01  4.47153947E-01
  5.84210925E-01  6.18588790E-01  6.39620337E-01  6.49827381E-01  6.71835219E-01
  7.03063410E-01  7.62415730E-01  7.64526286E-01  8.22657305E-01  1.07870170E+00
  1.09364679E+00  1.16682420E+00  1.18557172E+00  1.39827751E+00  1.41770444E+00
  1.45075442E+00  1.51468499E+00  1.52360978E+00  1.69812338E+00  1.73677132E+00
  1.77866778E+00  1.81972443E+00  1.86840667E+00  1.93180795E+00  2.00693184E+00
  2.02374130E+00  2.05810785E+00  2.35839260E+00  2.53314857E+00  2.57483894E+00
  2.59567103E+00  2.62333662E+00  2.63917773E+00  2.64761861E+00  2.70280272E+00
  2.76316039E+00  2.77235043E+00  2.78651922E+00  3.33608624E+00  3.71148897E+00
  3.74909603E+00  2.38239022E+01  2.38293238E+01
Alpha MO coefficients                      R   N=        4624
  3.98972465E-01  3.28086046E-01  1.04596221E-07 -3.65154418E-04  0.00000000E+00
  8.09677656E-03 -1.38701909E-06  1.34226347E-03  0.00000000E+00 -1.92952197E-03
 -4.49955414E-08 -9.90710483E-06  0.00000000E+00 -5.55480797E-04  4.93420901E-07
 -3.81183235E-04  0.00000000E+00 -9.00975635E-04  0.00000000E+00  0.00000000E+00
  9.89540161E-04 -4.93526701E-07  3.98972465E-01  3.28086046E-01 -1.04596221E-07
  3.65154418E-04  0.00000000E+00  8.09677656E-03  1.38701909E-06 -1.34226347E-03
  0.00000000E+00 -1.92952197E-03  4.49955414E-08  9.90710483E-06  0.00000000E+00
 -5.55480797E-04 -4.93420901E-07  3.81183235E-04  0.00000000E+00 -9.00975635E-04
  0.00000000E+00  0.00000000E+00  9.89540161E-04 -4.93526701E-07  1.15248974E-04
 -2.37455908E-03  1.50020601E-03 -1.32343208E-03  6.92216416E-04  0.00000000E+00
  1.15543078E-04 -2.37225050E-03  1.49863593E-03  1.32250404E-03  6.91737826E-04
  0.00000000E+00  1.15248974E-04 -2.37455908E-03  1.50020601E-03  1.32343208E-03
 -6.92216416E-04  0.00000000E+00  1.15543078E-04 -2.37225050E-03  1.49863593E-03
 -1.32250404E-03 -6.91737826E-04  0.00000000E+00  3.98987515E-01  3.28111472E-01
  9.94430991E-08 -4.40397789E-04  0.00000000E+00  8.23663175E-03 -1.35627419E-06
  1.75726368E-03  0.00000000E+00 -3.13523188E-03  1.28593414E-07  3.75957859E-04
  0.00000000E+00  6.36898876E-04  1.96291374E-07 -8.78871883E-04  0.00000000E+00
 -8.04695363E-04  0.00000000E+00  0.00000000E+00  1.19877984E-03 -4.97285183E-07
 -3.98987515E-01 -3.28111472E-01  9.94430991E-08 -4.40397789E-04  0.00000000E+00
 -8.23663175E-03 -1.35627419E-06  1.75726368E-03  0.00000000E+00  3.13523188E-03
  1.28593414E-07  3.75957859E-04  0.00000000E+00 -6.36898876E-04  1.96291374E-07
 -8.78871883E-04  0.00000000E+00  8.04695363E-04  0.00000000E+00  0.00000000E+00
 -1.19877984E-03  4.97285183E-07  7.59134054E-05 -2.28111080E-03  1.70266231E-03
 -1.35564236E-03  6.51131402E-04  0.00000000E+00  7.62626633E-05 -2.27909531E-03
  1.70128641E-03  1.35472797E-03  6.50677584E-04  0.00000000E+00 -7.59134054E-05
  2.28111080E-03 -1.70266231E-03 -1.35564236E-03  6.51131402E-04  0.00000000E+00
 -7.62626633E-05  2.27909531E-03 -1.70128641E-03  1.35472797E-03  6.50677584E-04
  0.00000000E+00 -7.79911910E-02 -1.25622706E-01 -1.39175600E-05  1.28343139E-02
  0.00000000E+00  3.37266230E-01 -1.34665670E-05  1.25534794E-02  0.00000000E+00
  2.32863040E-01 -4.31352187E-06  2.69942818E-03  0.00000000E+00  3.13508332E-03
 -1.09335934E-06  3.71254264E-03  0.00000000E+00 -8.51988901E-03  0.00000000E+00
  0.00000000E+00  1.53653665E-03 -1.24873707E-06 -7.79911910E-02 -1.25622706E-01
  1.39175600E-05 -1.28343139E-02  0.00000000E+00  3.37266230E-01  1.34665670E-05
 -1.25534794E-02  0.00000000E+00  2.32863040E-01  4.31352187E-06 -2.69942818E-03
  0.00000000E+00  3.13508332E-03  1.09335934E-06 -3.71254264E-03  0.00000000E+00
 -8.51988901E-03  0.00000000E+00  0.00000000E+00  1.53653665E-03 -1.24873707E-06
  7.36177872E-02  8.48968291E-02  4.70741345E-03  1.12940951E-02 -4.28070243E-03
  0.00000000E+00  7.35925468E-02  8.48719946E-02  4.70831328E-03 -1.12909659E-02
 -4.27855028E-03  0.00000000E+00  7.36177872E-02  8.48968291E-02  4.70741345E-03
 -1.12940951E-02  4.28070243E-03  0.00000000E+00  7.35925468E-02  8.48719946E-02
  4.70831328E-03  1.12909659E-02  4.27855028E-03  0.00000000E+00 -7.50054913E-02
 -1.21159326E-01 -2.04088767E-05  4.72847767E-02  0.00000000E+00  3.30098908E-01
 -2.23603216E-05  6.92632462E-02  0.00000000E+00  2.27758446E-01 -8.44680867E-06
  3.31614615E-02  0.00000000E+00 -2.15133549E-02 -1.40020460E-07  1.08000360E-02
  0.00000000E+00 -6.88974438E-03  0.00000000E+00  0.00000000E+00  9.47986374E-03
 -1.76702073E-06  7.50054913E-02  1.21159326E-01 -2.04088767E-05  4.72847767E-02
  0.00000000E+00 -3.30098908E-01 -2.23603216E-05  6.92632462E-02  0.00000000E+00
 -2.27758446E-01 -8.44680867E-06  3.31614615E-02  0.00000000E+00  2.15133549E-02
 -1.40020460E-07  1.08000360E-02  0.00000000E+00  6.88974438E-03  0.00000000E+00
  0.00000000E+00 -9.47986374E-03  1.76702073E-06  8.48790893E-02  1.01656676E-01
  1.18594260E-02  1.22309551E-02 -2.92272545E-03  0.00000000E+00  8.48446657E-02
  1.01622238E-01  1.18568232E-02 -1.22270356E-02 -2.92039816E-03  0.00000000E+00
 -8.48790893E-02 -1.01656676E-01 -1.18594260E-02  1.22309551E-02 -2.92272545E-03
  0.00000000E+00 -8.48446657E-02 -1.01622238E-01 -1.18568232E-02 -1.22270356E-02
 -2.92039816E-03  0.00000000E+00 -7.18384476E-06 -1.20514465E-05  1.49122513E-01
  1.69699212E-06  0.00000000E+00  3.52153033E-05  2.06545100E-01  6.15147946E-06
  0.00000000E+00  4.43537466E-05  1.18594273E-01  4.74452319E-06  0.00000000E+00
 -3.00442960E-06  3.76026959E-03  3.40552750E-06  0.00000000E+00 -5.14307107E-07
  0.00000000E+00  0.00000000E+00  8.48642458E-07  1.12372566E-02  7.18384476E-06
  1.20514465E-05  1.49122513E-01  1.69699212E-06  0.00000000E+00 -3.52153033E-05
  2.06545100E-01  6.15147946E-06  0.00000000E+00 -4.43537466E-05  1.18594273E-01
  4.74452319E-06  0.00000000E+00  3.00442960E-06  3.76026959E-03  3.40552750E-06
  0.00000000E+00  5.14307107E-07  0.00000000E+00  0.00000000E+00 -8.48642458E-07
 -1.12372566E-02 -1.06587435E-01 -1.47793647E-01 -4.33720742E-02 -1.00507104E-02
  7.31295667E-03  0.00000000E+00  1.06600475E-01  1.47822202E-01  4.33796958E-02
 -1.00536773E-02 -7.31256589E-03  0.00000000E+00  1.06587435E-01  1.47793647E-01
  4.33720742E-02 -1.00507104E-02  7.31295667E-03  0.00000000E+00 -1.06600475E-01
 -1.47822202E-01 -4.33796958E-02 -1.00536773E-02 -7.31256589E-03  0.00000000E+00
 -4.83011096E-06 -8.25732614E-06  1.52498592E-01 -1.42479727E-05  0.00000000E+00
  2.45620222E-05  2.08666019E-01 -1.80765927E-05  0.00000000E+00  3.93494162E-05
  1.23553860E-01 -1.07856751E-05  0.00000000E+00  3.54258392E-06  1.01687507E-02
  6.16887657E-07  0.00000000E+00 -3.02403978E-07  0.00000000E+00  0.00000000E+00
 -8.51779000E-07  1.86251164E-02 -4.83011096E-06 -8.25732614E-06 -1.52498592E-01
  1.42479727E-05  0.00000000E+00  2.45620222E-05 -2.08666019E-01  1.80765927E-05
  0.00000000E+00  3.93494162E-05 -1.23553860E-01  1.07856751E-05  0.00000000E+00
  3.54258392E-06 -1.01687507E-02 -6.16887657E-07  0.00000000E+00 -3.02403978E-07
  0.00000000E+00  0.00000000E+00 -8.51779000E-07  1.86251164E-02 -1.12125683E-01
 -1.60407605E-01 -5.06552759E-02 -1.02425614E-02  7.61236082E-03  0.00000000E+00
  1.12122811E-01  1.60414281E-01  5.06571953E-02 -1.02433502E-02 -7.61257539E-03
  0.00000000E+00 -1.12125683E-01 -1.60407605E-01 -5.06552759E-02  1.02425614E-02
 -7.61236082E-03  0.00000000E+00  1.12122811E-01  1.60414281E-01  5.06571953E-02
  1.02433502E-02  7.61257539E-03  0.00000000E+00  1.41800438E-02  2.35050516E-02
  7.45870763E-06  1.70828946E-01  0.00000000E+00 -6.31843350E-02  1.41030244E-05
  2.63210406E-01  0.00000000E+00 -1.14590388E-01  1.02830542E-05  2.14955764E-01
  0.00000000E+00 -6.82938549E-03  2.59969812E-06  2.01091330E-02  0.00000000E+00
 -8.49098691E-04  0.00000000E+00  0.00000000E+00  1.25901988E-02  5.37527600E-07
  1.41800438E-02  2.35050516E-02 -7.45870763E-06 -1.70828946E-01  0.00000000E+00
 -6.31843350E-02 -1.41030244E-05 -2.63210406E-01  0.00000000E+00 -1.14590388E-01
 -1.02830542E-05 -2.14955764E-01  0.00000000E+00 -6.82938549E-03 -2.59969812E-06
 -2.01091330E-02  0.00000000E+00 -8.49098691E-04  0.00000000E+00  0.00000000E+00
  1.25901988E-02  5.37527600E-07  5.38148154E-02  8.46290659E-02  4.43180111E-02
  7.73625035E-03  7.98123289E-03  0.00000000E+00  5.38263583E-02  8.46537032E-02
  4.43332277E-02 -7.73617283E-03  7.97952690E-03  0.00000000E+00  5.38148154E-02
  8.46290659E-02  4.43180111E-02 -7.73625035E-03 -7.98123289E-03  0.00000000E+00
  5.38263583E-02  8.46537032E-02  4.43332277E-02  7.73617283E-03 -7.97952690E-03
  0.00000000E+00  0.00000000E+00  0.00000000E+00  0.00000000E+00  0.00000000E+00
  1.71759464E-01  0.00000000E+00  0.00000000E+00  0.00000000E+00  2.67032934E-01
  0.00000000E+00  0.00000000E+00  0.00000000E+00  2.99719025E-01  0.00000000E+00
  0.00000000E+00  0.00000000E+00  6.31256644E-02  0.00000000E+00 -6.58308551E-07
 -5.09255137E-03  0.00000000E+00  0.00000000E+00  0.00000000E+00  0.00000000E+00
  0.00000000E+00  0.00000000E+00  1.71759464E-01  0.00000000E+00  0.00000000E+00
  0.00000000E+00  2.67032934E-01  0.00000000E+00  0.00000000E+00  0.00000000E+00
  2.99719025E-01  0.00000000E+00  0.00000000E+00  0.00000000E+00  6.31256644E-02
  0.00000000E+00  6.58308551E-07  5.09255137E-03  0.00000000E+00  0.00000000E+00
  0.00000000E+00  0.00000000E+00  0.00000000E+00  0.00000000E+00  0.00000000E+00
  1.46532235E-02  0.00000000E+00  0.00000000E+00  0.00000000E+00  0.00000000E+00
  0.00000000E+00  1.46513438E-02  0.00000000E+00  0.00000000E+00  0.00000000E+00
  0.00000000E+00  0.00000000E+00  1.46532235E-02  0.00000000E+00  0.00000000E+00
  0.00000000E+00  0.00000000E+00  0.00000000E+00  1.46513438E-02  0.00000000E+00
  0.00000000E+00  0.00000000E+00  0.00000000E+00  1.85210272E-01  0.00000000E+00
  0.00000000E+00  0.00000000E+00  2.82827638E-01  0.00000000E+00  0.00000000E+00
  0.00000000E+00  3.59365886E-01  0.00000000E+00  0.00000000E+00  0.00000000E+00
  2.44427561E-01  0.00000000E+00 -6.12089323E-07  1.70877086E-02  0.00000000E+00
  0.00000000E+00  0.00000000E+00  0.00000000E+00  0.00000000E+00  0.00000000E+00
 -1.85210272E-01  0.00000000E+00  0.00000000E+00  0.00000000E+00 -2.82827638E-01
  0.00000000E+00  0.00000000E+00  0.00000000E+00 -3.59365886E-01  0.00000000E+00
  0.00000000E+00  0.00000000E+00 -2.44427561E-01  0.00000000E+00 -6.12089323E-07
  1.70877086E-02  0.00000000E+00  0.00000000E+00  0.00000000E+00  0.00000000E+00
  0.00000000E+00  0.00000000E+00  0.00000000E+00  1.89582796E-02  0.00000000E+00
  0.00000000E+00  0.00000000E+00  0.00000000E+00  0.00000000E+00  1.89561655E-02
  0.00000000E+00  0.00000000E+00  0.00000000E+00  0.00000000E+00  0.00000000E+00
 -1.89582796E-02  0.00000000E+00  0.00000000E+00  0.00000000E+00  0.00000000E+00
  0.00000000E+00 -1.89561655E-02 -4.35221280E-02 -7.29519181E-02  5.82166595E-06
 -1.10182459E-01  0.00000000E+00  2.14201965E-01  1.16339263E-06 -1.65301080E-01
  0.00000000E+00  4.70305867E-01  2.27943947E-05 -2.31182293E-01  0.00000000E+00
  1.75815264E+00  6.20745210E-06 -1.31595308E+00  0.00000000E+00  7.05160272E-03
  0.00000000E+00  0.00000000E+00  1.97824206E-02 -1.49691674E-06  4.35221280E-02
  7.29519181E-02  5.82166595E-06 -1.10182459E-01  0.00000000E+00 -2.14201965E-01
  1.16339263E-06 -1.65301080E-01  0.00000000E+00 -4.70305867E-01  2.27943947E-05
 -2.31182293E-01  0.00000000E+00 -1.75815264E+00  6.20745210E-06 -1.31595308E+00
  0.00000000E+00 -7.05160272E-03  0.00000000E+00  0.00000000E+00 -1.97824206E-02
  1.49691674E-06 -1.35426323E-02 -6.93000859E-02 -4.40216420E-04 -3.08588682E-03
 -1.45896522E-02  0.00000000E+00 -1.35442818E-02 -6.92979128E-02 -4.99623860E-04
  3.08209018E-03 -1.45911046E-02  0.00000000E+00  1.35426323E-02  6.93000859E-02
  4.40216420E-04 -3.08588682E-03 -1.45896522E-02  0.00000000E+00  1.35442818E-02
  6.92979128E-02  4.99623860E-04  3.08209018E-03 -1.45911046E-02  0.00000000E+00
  2.21525833E-02  3.72780286E-02 -5.89316536E-06 -3.23002939E-02  0.00000000E+00
 -9.82687345E-02  8.55827781E-06 -4.91574259E-02  0.00000000E+00 -3.99848786E-01
 -4.32979901E-05 -1.05017701E-01  0.00000000E+00  1.17480225E+00 -9.70285537E-05
  4.90692750E-01  0.00000000E+00  1.43920990E-02  0.00000000E+00  0.00000000E+00
 -1.04558987E-02  3.78676095E-06  2.21525833E-02  3.72780286E-02  5.89316536E-06
  3.23002939E-02  0.00000000E+00 -9.82687345E-02 -8.55827781E-06  4.91574259E-02
  0.00000000E+00 -3.99848786E-01  4.32979901E-05  1.05017701E-01  0.00000000E+00
  1.17480225E+00  9.70285537E-05 -4.90692750E-01  0.00000000E+00  1.43920990E-02
  0.00000000E+00  0.00000000E+00 -1.04558987E-02  3.78676095E-06 -1.64461088E-02
  8.87902003E-02 -3.16640357E-01 -1.05088946E-03 -2.60386386E-04  0.00000000E+00
 -1.64431910E-02  8.87612120E-02 -3.16468772E-01  1.05762154E-03 -2.56784915E-04
  0.00000000E+00 -1.64461088E-02  8.87902003E-02 -3.16640357E-01  1.05088946E-03
  2.60386386E-04  0.00000000E+00 -1.64431910E-02  8.87612120E-02 -3.16468772E-01
 -1.05762154E-03  2.56784915E-04  0.00000000E+00  2.92426981E-06  4.29216851E-06
 -5.21193797E-02  9.68667575E-06  0.00000000E+00 -2.66001626E-06 -9.01833108E-02
  1.85077097E-05  0.00000000E+00 -8.26357567E-05 -1.68464501E-01  1.27742560E-05
  0.00000000E+00 -5.60164116E-05  8.69206953E-01 -5.98877166E-05  0.00000000E+00
 -3.01318798E-06  0.00000000E+00  0.00000000E+00  8.66510150E-07 -1.79591518E-02
 -2.92426981E-06 -4.29216851E-06 -5.21193797E-02  9.68667575E-06  0.00000000E+00
  2.66001626E-06 -9.01833108E-02  1.85077097E-05  0.00000000E+00  8.26357567E-05
 -1.68464501E-01  1.27742560E-05  0.00000000E+00  5.60164116E-05  8.69206953E-01
 -5.98877166E-05  0.00000000E+00  3.01318798E-06  0.00000000E+00  0.00000000E+00
 -8.66510150E-07  1.79591518E-02  2.56929084E-02 -7.86152548E-02  4.35594637E-01
  2.72707600E-03  1.49474801E-04  0.00000000E+00 -2.56817885E-02  7.86147160E-02
 -4.35465024E-01  2.73028452E-03 -1.47451245E-04  0.00000000E+00 -2.56929084E-02