Title Card Required                                                     
FOpt      UM062X                                                      6-311+G(d,p)        
Number of atoms                            I                6
Info1-9                                    I   N=           9
          15          15           0           0           0         110
           2          18        -502
Full Title                                 C   N=           2
Title Card Required     
Route                                      C   N=           6
#p opt UM062X/6-311+G** nosymm int=superfine SCF=NoVarAcc SC
F=tight     
Charge                                     I                1
Multiplicity                               I                2
Number of electrons                        I               15
Number of alpha electrons                  I                8
Number of beta electrons                   I                7
Number of basis functions                  I               68
Number of independent functions            I               68
Number of point charges in /Mol/           I                0
Number of translation vectors              I                0
Atomic numbers                             I   N=           6
           6           6           1           1           1           1
Nuclear charges                            R   N=           6
  6.00000000E+00  6.00000000E+00  1.00000000E+00  1.00000000E+00  1.00000000E+00
  1.00000000E+00
Current cartesian coordinates              R   N=          18
 -3.01605392E+00  0.00000000E+00  0.00000000E+00  3.01605392E+00  0.00000000E+00
  0.00000000E+00 -4.07476262E+00 -1.77783883E+00  1.29655255E-08 -4.07466748E+00
  1.77789487E+00  1.25840714E-08  4.07476262E+00  1.77783883E+00  3.83990112E-09
  4.07466748E+00 -1.77789487E+00  3.45846950E-09
Number of symbols in /Mol/                 I                0
Force Field                                I                0
Atom Types                                 C   N=           6
                                                            
            
Int Atom Types                             I   N=           6
           0           0           0           0           0           0
MM charges                                 R   N=           6
  0.00000000E+00  0.00000000E+00  0.00000000E+00  0.00000000E+00  0.00000000E+00
  0.00000000E+00
Integer atomic weights                     I   N=           6
          12          12           1           1           1           1
Real atomic weights                        R   N=           6
  1.20000000E+01  1.20000000E+01  1.00782504E+00  1.00782504E+00  1.00782504E+00
  1.00782504E+00
Atom fragment info                         I   N=           6
           0           0           0           0           0           0
Atom residue num                           I   N=           6
           0           0           0           0           0           0
Nuclear spins                              I   N=           6
           0           0           1           1           1           1
Nuclear ZEff                               R   N=           6
 -3.60000000E+00 -3.60000000E+00 -1.00000000E+00 -1.00000000E+00 -1.00000000E+00
 -1.00000000E+00
Nuclear ZNuc                               R   N=           6
  6.00000000E+00  6.00000000E+00  1.00000000E+00  1.00000000E+00  1.00000000E+00
  1.00000000E+00
Nuclear QMom                               R   N=           6
  0.00000000E+00  0.00000000E+00  0.00000000E+00  0.00000000E+00  0.00000000E+00
  0.00000000E+00
Nuclear GFac                               R   N=           6
  0.00000000E+00  0.00000000E+00  2.79284600E+00  2.79284600E+00  2.79284600E+00
  2.79284600E+00
MicOpt                                     I   N=           6
          -2          -2          -1          -1          -1          -1
Number of residues                         I                0
Number of secondary structures             I                0
Redundant internal dimensions              I   N=           4
          20          10           6           4
Redundant internal coordinate indices      I   N=          80
           1          -1           0           0           1          -2
           0           0           1          -3           0           0
           2          -1           0           0           2          -2
           0           0           2          -3           0           0
           1           3           0           0           1           4
           0           0           2           5           0           0
           2           6           0           0           2           1
           3           0           2           1           4           0
           3           1           4           0           1           2
           5           0           1           2           6           0
           5           2           6           0           3           1
           2           5           3           1           2           6
           4           1           2           5           4           1
           2           6
Redundant internal coordinates             R   N=          20
 -3.01605392E+00  0.00000000E+00  0.00000000E+00  3.01605392E+00  0.00000000E+00
  0.00000000E+00  2.06919671E+00  2.06919618E+00  2.06919671E+00  2.06919618E+00
  2.10790279E+00  2.10784943E+00  2.06743309E+00  2.10790279E+00  2.10784943E+00
  2.06743309E+00  3.14159265E+00  0.00000000E+00 -0.00000000E+00  3.14159265E+00
ZRed-IntVec                                I   N=          20
          -1          -1          -1          -1          -1          -1
           0           0           0           0           0           0
           0           0           0           0           0           0
           0           0
ZRed-FPVec                                 R   N=          20
  0.00000000E+00  0.00000000E+00  0.00000000E+00  0.00000000E+00  0.00000000E+00
  0.00000000E+00  0.00000000E+00  0.00000000E+00  0.00000000E+00  0.00000000E+00
  0.00000000E+00  0.00000000E+00  0.00000000E+00  0.00000000E+00  0.00000000E+00
  0.00000000E+00  0.00000000E+00  0.00000000E+00  0.00000000E+00  0.00000000E+00
ZRed-Constraint1                           R   N=          20
 -3.01605392E+00  0.00000000E+00  0.00000000E+00  3.01605392E+00  0.00000000E+00
  0.00000000E+00  2.05067934E+00  2.05048469E+00  2.05067934E+00  2.05048469E+00
  1.98162443E+00  1.98155420E+00  2.32000667E+00  1.98162443E+00  1.98155420E+00
  2.32000667E+00  3.14159265E+00  0.00000000E+00  0.00000000E+00  3.14159265E+00
ZRed-Constraint2                           R   N=          20
 -3.01605392E+00  0.00000000E+00  0.00000000E+00  3.01605392E+00  0.00000000E+00
  0.00000000E+00  0.00000000E+00  0.00000000E+00  0.00000000E+00  0.00000000E+00
  0.00000000E+00  0.00000000E+00  0.00000000E+00  0.00000000E+00  0.00000000E+00
  0.00000000E+00  0.00000000E+00  0.00000000E+00  0.00000000E+00  0.00000000E+00
Number of contracted shells                I               28
Number of primitive shells                 I               50
Pure/Cartesian d shells                    I                0
Pure/Cartesian f shells                    I                0
Highest angular momentum                   I                2
Largest degree of contraction              I                6
Shell types                                I   N=          28
           0          -1          -1          -1          -1          -2
           0          -1          -1          -1          -1          -2
           0           0           0           1           0           0
           0           1           0           0           0           1
           0           0           0           1
Number of primitives per shell             I   N=          28
           6           3           1           1           1           1
           6           3           1           1           1           1
           3           1           1           1           3           1
           1           1           3           1           1           1
           3           1           1           1
Shell to atom map                          I   N=          28
           1           1           1           1           1           1
           2           2           2           2           2           2
           3           3           3           3           4           4
           4           4           5           5           5           5
           6           6           6           6
Primitive exponents                        R   N=          50
  4.56324000E+03  6.82024000E+02  1.54973000E+02  4.44553000E+01  1.30290000E+01
  1.82773000E+00  2.09642000E+01  4.80331000E+00  1.45933000E+00  4.83456000E-01
  1.45585000E-01  4.38000000E-02  6.26000000E-01  4.56324000E+03  6.82024000E+02
  1.54973000E+02  4.44553000E+01  1.30290000E+01  1.82773000E+00  2.09642000E+01
  4.80331000E+00  1.45933000E+00  4.83456000E-01  1.45585000E-01  4.38000000E-02
  6.26000000E-01  3.38650000E+01  5.09479000E+00  1.15879000E+00  3.25840000E-01
  1.02741000E-01  7.50000000E-01  3.38650000E+01  5.09479000E+00  1.15879000E+00
  3.25840000E-01  1.02741000E-01  7.50000000E-01  3.38650000E+01  5.09479000E+00
  1.15879000E+00  3.25840000E-01  1.02741000E-01  7.50000000E-01  3.38650000E+01
  5.09479000E+00  1.15879000E+00  3.25840000E-01  1.02741000E-01  7.50000000E-01
Contraction coefficients                   R   N=          50
  1.96665025E-03  1.52306019E-02  7.61269097E-02  2.60801033E-01  6.16462078E-01
  2.21006028E-01  1.14660081E-01  9.19999648E-01 -3.03068213E-03  1.00000000E+00
  1.00000000E+00  1.00000000E+00  1.00000000E+00  1.96665025E-03  1.52306019E-02
  7.61269097E-02  2.60801033E-01  6.16462078E-01  2.21006028E-01  1.14660081E-01
  9.19999648E-01 -3.03068213E-03  1.00000000E+00  1.00000000E+00  1.00000000E+00
  1.00000000E+00  2.54938145E-02  1.90373109E-01  8.52161486E-01  1.00000000E+00
  1.00000000E+00  1.00000000E+00  2.54938145E-02  1.90373109E-01  8.52161486E-01
  1.00000000E+00  1.00000000E+00  1.00000000E+00  2.54938145E-02  1.90373109E-01
  8.52161486E-01  1.00000000E+00  1.00000000E+00  1.00000000E+00  2.54938145E-02
  1.90373109E-01  8.52161486E-01  1.00000000E+00  1.00000000E+00  1.00000000E+00
P(S=P) Contraction coefficients            R   N=          50
  0.00000000E+00  0.00000000E+00  0.00000000E+00  0.00000000E+00  0.00000000E+00
  0.00000000E+00  4.02486927E-02  2.37593957E-01  8.15853851E-01  1.00000000E+00
  1.00000000E+00  1.00000000E+00  0.00000000E+00  0.00000000E+00  0.00000000E+00
  0.00000000E+00  0.00000000E+00  0.00000000E+00  0.00000000E+00  4.02486927E-02
  2.37593957E-01  8.15853851E-01  1.00000000E+00  1.00000000E+00  1.00000000E+00
  0.00000000E+00  0.00000000E+00  0.00000000E+00  0.00000000E+00  0.00000000E+00
  0.00000000E+00  0.00000000E+00  0.00000000E+00  0.00000000E+00  0.00000000E+00
  0.00000000E+00  0.00000000E+00  0.00000000E+00  0.00000000E+00  0.00000000E+00
  0.00000000E+00  0.00000000E+00  0.00000000E+00  0.00000000E+00  0.00000000E+00
  0.00000000E+00  0.00000000E+00  0.00000000E+00  0.00000000E+00  0.00000000E+00
Coordinates of each shell                  R   N=          84
 -3.01605392E+00  0.00000000E+00  0.00000000E+00 -3.01605392E+00  0.00000000E+00
  0.00000000E+00 -3.01605392E+00  0.00000000E+00  0.00000000E+00 -3.01605392E+00
  0.00000000E+00  0.00000000E+00 -3.01605392E+00  0.00000000E+00  0.00000000E+00
 -3.01605392E+00  0.00000000E+00  0.00000000E+00  3.01605392E+00  0.00000000E+00
  0.00000000E+00  3.01605392E+00  0.00000000E+00  0.00000000E+00  3.01605392E+00
  0.00000000E+00  0.00000000E+00  3.01605392E+00  0.00000000E+00  0.00000000E+00
  3.01605392E+00  0.00000000E+00  0.00000000E+00  3.01605392E+00  0.00000000E+00
  0.00000000E+00 -4.07476262E+00 -1.77783883E+00  1.29655255E-08 -4.07476262E+00
 -1.77783883E+00  1.29655255E-08 -4.07476262E+00 -1.77783883E+00  1.29655255E-08
 -4.07476262E+00 -1.77783883E+00  1.29655255E-08 -4.07466748E+00  1.77789487E+00
  1.25840714E-08 -4.07466748E+00  1.77789487E+00  1.25840714E-08 -4.07466748E+00
  1.77789487E+00  1.25840714E-08 -4.07466748E+00  1.77789487E+00  1.25840714E-08
  4.07476262E+00  1.77783883E+00  3.83990112E-09  4.07476262E+00  1.77783883E+00
  3.83990112E-09  4.07476262E+00  1.77783883E+00  3.83990112E-09  4.07476262E+00
  1.77783883E+00  3.83990112E-09  4.07466748E+00 -1.77789487E+00  3.45846950E-09
  4.07466748E+00 -1.77789487E+00  3.45846950E-09  4.07466748E+00 -1.77789487E+00
  3.45846950E-09  4.07466748E+00 -1.77789487E+00  3.45846950E-09
Num ILSW                                   I              100
ILSW                                       I   N=         100
           1           0           0           1           2           0
           0           0           0           0        4336          -1
           7           0           0           0           2           0
           0           0           0           0           1           0
           1           1           0           0           0           0
           0           0      100000           0          -1           0
           0           0           0           0           0           0
           0           0           0           1           0           0
           0 -2000000000           1           0           0           0
           0           0           4          52           0           0
           0           0          55           0           0           0
           0           0           0           6           0           1
           0           0           0           0           0           0
           0           0           0           0           0           0
           0           0           0           0           0           0
           0           0           0           0           0           0
           0           0           0           0
Num RLSW                                   I               52
RLSW                                       R   N=          52
  1.00000000E+00  1.00000000E+00  1.00000000E+00  1.00000000E+00  5.40000000E-01
  0.00000000E+00  0.00000000E+00  1.00000000E+00  0.00000000E+00  0.00000000E+00
  0.00000000E+00  0.00000000E+00  1.00000000E+00  0.00000000E+00  0.00000000E+00
  0.00000000E+00  0.00000000E+00  1.00000000E+00  0.00000000E+00  0.00000000E+00
  0.00000000E+00  0.00000000E+00  1.00000000E+00  0.00000000E+00  0.00000000E+00
  0.00000000E+00  0.00000000E+00  1.00000000E+00  0.00000000E+00  0.00000000E+00
  0.00000000E+00  0.00000000E+00  1.00000000E+00  0.00000000E+00  0.00000000E+00
  0.00000000E+00  0.00000000E+00  0.00000000E+00  1.00000000E+00  1.00000000E+00
  0.00000000E+00  1.00000000E+00  0.00000000E+00  0.00000000E+00  0.00000000E+00
  0.00000000E+00  0.00000000E+00  0.00000000E+00  0.00000000E+00  0.00000000E+00
  0.00000000E+00  0.00000000E+00
MxBond                                     I                3
NBond                                      I   N=           6
           3           3           1           1           1           1
IBond                                      I   N=          18
           2           3           4           1           5           6
           1           0           0           1           0           0
           2           0           0           2           0           0
RBond                                      R   N=          18
  1.00000000E-01  1.00000000E+00  1.00000000E+00  1.00000000E-01  1.00000000E+00
  1.00000000E+00  1.00000000E+00  0.00000000E+00  0.00000000E+00  1.00000000E+00
  0.00000000E+00  0.00000000E+00  1.00000000E+00  0.00000000E+00  0.00000000E+00
  1.00000000E+00  0.00000000E+00  0.00000000E+00
Virial Ratio                               R      2.004767563529381E+00
SCF Energy                                 R     -7.792547086991758E+01
Total Energy                               R     -7.792547086991758E+01
S**2                                       R      7.614243762464827E-01
S**2 after annihilation                    R      7.500143521574805E-01
RMS Force                                  R      6.611397128491099E-06
RMS Density                                R      2.852031192146943E-09
Job Status                                 I                1
Nuclear derivative order                   I                1
External E-field                           R   N=          35
  0.00000000E+00  0.00000000E+00  0.00000000E+00  0.00000000E+00  0.00000000E+00
  0.00000000E+00  0.00000000E+00  0.00000000E+00  0.00000000E+00  0.00000000E+00
  0.00000000E+00  0.00000000E+00  0.00000000E+00  0.00000000E+00  0.00000000E+00
  0.00000000E+00  0.00000000E+00  0.00000000E+00  0.00000000E+00  0.00000000E+00
  0.00000000E+00  0.00000000E+00  0.00000000E+00  0.00000000E+00  0.00000000E+00
  0.00000000E+00  0.00000000E+00  0.00000000E+00  0.00000000E+00  0.00000000E+00
  0.00000000E+00  0.00000000E+00  0.00000000E+00  0.00000000E+00  0.00000000E+00
IOpCl                                      I                1
IROHF                                      I                0
Alpha Orbital Energies                     R   N=          68
 -1.08922895E+01 -1.08922844E+01 -1.00636708E+00 -1.00274141E+00 -7.51884348E-01
 -7.49979130E-01 -6.04343084E-01 -5.58024507E-01 -3.28385686E-01 -3.17669409E-01
 -1.31818700E-01 -1.09637248E-01 -9.67211226E-02 -7.59772840E-02 -6.84157072E-02
 -5.37545549E-02 -4.55270601E-02 -1.82794634E-02 -1.05221729E-02 -2.35750907E-03
  1.95923155E-02  7.00964344E-02  2.43571944E-01  2.65719947E-01  2.79971238E-01
  2.92859183E-01  3.23332198E-01  3.62309556E-01  4.01068068E-01  4.16501594E-01
  4.54342814E-01  4.89174381E-01  4.97521817E-01  5.88380358E-01  8.43448156E-01
  8.43494235E-01  9.31264638E-01  9.78612702E-01  9.93034816E-01  1.03206244E+00
  1.20082844E+00  1.25672866E+00  1.29578054E+00  1.30588028E+00  1.48238742E+00
  1.48529735E+00  1.57215083E+00  1.57439522E+00  1.71367315E+00  1.71382696E+00
  1.82637885E+00  1.83892344E+00  2.15348961E+00  2.22262587E+00  2.24887160E+00
  2.27576092E+00  2.28588574E+00  2.28962713E+00  2.40754753E+00  2.41557931E+00
  2.47941163E+00  2.50637407E+00  2.71350007E+00  2.75029916E+00  3.45397434E+00
  3.46696961E+00  2.34995562E+01  2.35118633E+01
Beta Orbital Energies                      R   N=          68
 -1.08837335E+01 -1.08837162E+01 -9.84371612E-01 -9.79344892E-01 -7.41678564E-01
 -7.39533836E-01 -5.03700409E-01 -3.38766912E-01 -3.09841258E-01 -2.96833896E-01
 -1.30396183E-01 -1.10510165E-01 -9.55456874E-02 -7.42870434E-02 -6.81552988E-02
 -4.71210170E-02 -4.16533316E-02 -1.55798021E-02 -5.06922524E-03  1.16658552E-03
  1.99752986E-02  7.75198376E-02  2.35296784E-01  2.65022582E-01  2.78954811E-01
  2.96110832E-01  3.51154276E-01  3.63546184E-01  4.07350371E-01  4.32256342E-01
  4.69974750E-01  5.01090915E-01  5.09646099E-01  6.08424839E-01  8.60592445E-01
  8.60653927E-01  9.57741849E-01  9.98347520E-01  1.01402754E+00  1.05598070E+00
  1.21563184E+00  1.27289572E+00  1.30993930E+00  1.32039604E+00  1.49509364E+00
  1.49725011E+00  1.57907273E+00  1.58076771E+00  1.72288901E+00  1.72309893E+00
  1.83882180E+00  1.85224692E+00  2.16895464E+00  2.24325537E+00  2.27281150E+00
  2.31005896E+00  2.31428738E+00  2.32215853E+00  2.42884136E+00  2.43249136E+00
  2.49562929E+00  2.52376500E+00  2.75592126E+00  2.79238152E+00  3.49412288E+00
  3.50714428E+00  2.35065297E+01  2.35188643E+01
Alpha MO coefficients                      R   N=        4624
  3.98964005E-01  3.28136310E-01 -5.08068017E-04  1.25066772E-08  1.53265524E-13
  8.01826151E-03 -1.24144273E-03  3.46240306E-08  1.90878480E-11 -2.72895516E-03
 -1.97672318E-04 -1.49507709E-08 -1.84566591E-12  1.59683424E-04  8.35184558E-04
 -1.03878464E-08 -5.34941862E-12 -7.78945476E-04 -9.24679424E-12 -2.52319786E-13
 -6.37144341E-04  3.61900565E-08 -3.98939341E-01 -3.28116024E-01 -5.08040499E-04
  1.25058432E-08  3.70501604E-13 -8.01777295E-03 -1.24134938E-03  3.46218377E-08
 -5.51947249E-12  2.72880094E-03 -1.97687468E-04 -1.49522790E-08  3.31740803E-13
 -1.59721274E-04  8.35159845E-04 -1.03889563E-08  2.55730802E-12  7.78895487E-04
 -2.69597974E-12 -2.52188551E-13  6.37104476E-04 -3.61880796E-08  2.19970081E-04
 -2.09514503E-03  1.57214022E-03 -6.93455952E-04 -1.14585822E-03  8.42649206E-12
  2.19966085E-04 -2.09512378E-03  1.57214694E-03 -6.93390326E-04  1.14589393E-03
  8.20678541E-12 -2.19956959E-04  2.09501414E-03 -1.57203714E-03 -6.93409780E-04
 -1.14578606E-03 -2.47944913E-12 -2.19952963E-04  2.09499289E-03 -1.57204386E-03
 -6.93344158E-04  1.14582176E-03 -2.25958033E-12  3.98940193E-01  3.28132623E-01
 -4.45117709E-04  1.34843495E-08  8.70909686E-14  7.90265645E-03 -1.50996364E-03
  3.54008876E-08  1.99128116E-11 -2.49441911E-03  2.45066037E-04  2.43375016E-08
 -2.48462401E-12 -6.12250411E-04  3.99718464E-04  1.79067645E-08 -4.94102495E-12
 -8.08581916E-04 -9.20883681E-12 -2.59515987E-13 -6.44827247E-04  3.20040759E-08
  3.98964857E-01  3.28152908E-01  4.45149118E-04 -1.34851221E-08 -4.87814899E-13
  7.90315213E-03  1.51004039E-03 -3.54030278E-08  6.05930974E-12 -2.49458781E-03
 -2.45053816E-04 -2.43365748E-08 -9.73359768E-13 -6.12240538E-04 -3.99770095E-04
 -1.79061248E-08 -3.68947879E-13 -8.08630070E-04  2.56705480E-12  2.58981494E-13
 -6.44866634E-04  3.20063140E-08  2.12257321E-04 -2.11720536E-03  1.66740507E-03
 -7.46840117E-04 -1.16729568E-03  8.68577813E-12  2.12256761E-04 -2.11721100E-03
  1.66732146E-03 -7.46782921E-04  1.16733765E-03  8.46160250E-12  2.12270919E-04
 -2.11733488E-03  1.66750225E-03  7.46882986E-04  1.16736651E-03  2.52638143E-12
  2.12270359E-04 -2.11734052E-03  1.66741865E-03  7.46825786E-04 -1.16740849E-03
  2.30203452E-12 -7.95488636E-02 -1.29048428E-01 -3.19934221E-02  8.64287400E-07
  3.74089380E-10  3.65227455E-01 -4.62089174E-02  1.26077048E-06  5.03341407E-10
  2.32277152E-01 -1.75820688E-02  3.04671939E-07  2.37430916E-10  1.89583462E-03
 -3.47936874E-03 -1.95117217E-07  4.43446561E-11 -5.02438472E-03 -7.67921579E-11
 -1.25080338E-12 -3.58493186E-03  1.88917128E-07 -7.95488603E-02 -1.29048422E-01
  3.19934207E-02 -8.64287360E-07  1.09558571E-10  3.65227440E-01  4.62089152E-02
 -1.26077042E-06  1.50517555E-10  2.32277142E-01  1.75820681E-02 -3.04671907E-07
  8.79677055E-11  1.89583524E-03  3.47936827E-03  1.95117228E-07 -1.04436109E-11
 -5.02438451E-03  1.83598804E-11  1.24744597E-12 -3.58493169E-03  1.88917121E-07
  7.68127623E-02  9.12650396E-02 -4.74797551E-03  5.61210601E-03  1.30832744E-02
 -6.80816108E-11  7.68127563E-02  9.12649238E-02 -4.74718428E-03  5.61143345E-03
 -1.30835560E-02 -6.53311908E-11  7.68127591E-02  9.12650359E-02 -4.74797540E-03
 -5.61210579E-03 -1.30832739E-02 -1.97854204E-11  7.68127531E-02  9.12649201E-02
 -4.74718418E-03 -5.61143322E-03  1.30835555E-02 -1.70524772E-11 -7.95271449E-02
 -1.28984784E-01 -3.48745311E-02  8.71974432E-07  3.85750293E-10  3.64551141E-01
 -5.20223641E-02  1.28819037E-06  5.25312615E-10  2.34539897E-01 -1.84963946E-02
  4.00838658E-07  2.30330991E-10 -1.50736742E-02 -1.15346270E-02 -7.92359594E-09
  4.67368891E-11 -5.11811821E-03 -8.28975471E-11 -1.30897827E-12 -4.01550259E-03
  1.93256358E-07  7.95271481E-02  1.28984790E-01 -3.48745324E-02  8.71974461E-07
 -1.13595588E-10 -3.64551156E-01 -5.20223660E-02  1.28819041E-06 -1.52392047E-10
 -2.34539906E-01 -1.84963953E-02  4.00838647E-07 -8.76892537E-11  1.50736741E-02
 -1.15346271E-02 -7.92363543E-09 -3.28421575E-11  5.11811842E-03 -2.05618958E-11
 -1.31102570E-12  4.01550273E-03 -1.93256367E-07  7.80105575E-02  9.22218718E-02
 -2.46305318E-03  5.44600735E-03  1.30902897E-02 -6.71342218E-11  7.80104816E-02
  9.22216433E-02 -2.46265944E-03  5.44529386E-03 -1.30905493E-02 -6.43789046E-11
 -7.80105606E-02 -9.22218755E-02  2.46305337E-03  5.44600758E-03  1.30902902E-02
  2.02875075E-11 -7.80104848E-02 -9.22216470E-02  2.46265963E-03  5.44529409E-03
 -1.30905499E-02  1.75305163E-11 -9.51054532E-09 -1.00560221E-08  3.94299538E-06
  1.59014407E-01 -1.70700061E-11 -5.65624003E-09  5.72507186E-06  2.36005378E-01
 -2.50437137E-11 -1.84156743E-07  3.10757808E-06  1.17961552E-01 -1.30429142E-11
  3.48961691E-07  1.29245611E-07 -1.40756065E-03  6.96724627E-13  5.61051249E-10
  2.55468879E-12  2.63288904E-10 -1.29099532E-06 -2.41913853E-02  9.51054253E-09
  1.00560174E-08  3.94299502E-06  1.59014396E-01  1.70694661E-11  5.65626195E-09
  5.72507132E-06  2.36005361E-01  2.50553639E-11  1.84156713E-07  3.10757780E-06
  1.17961543E-01  1.30012409E-11 -3.48961718E-07  1.29245582E-07 -1.40756085E-03
 -6.74874823E-13 -5.61048044E-10  2.55247709E-12  7.82933909E-11  1.29099521E-06
  2.41913836E-02 -1.04840955E-01 -1.49059997E-01 -3.46338714E-02 -8.51783068E-03
 -7.51575560E-03  9.37588848E-11  1.04841148E-01  1.49060346E-01  3.46339836E-02
  8.51740643E-03 -7.51623996E-03 -9.21567569E-11  1.04840948E-01  1.49059987E-01
  3.46338694E-02 -8.51783011E-03 -7.51575508E-03 -2.58436904E-11 -1.04841141E-01
 -1.49060336E-01 -3.46339816E-02  8.51740585E-03 -7.51623944E-03  2.42343475E-11
 -3.73677439E-08 -6.64583916E-08  4.58926707E-06  1.59718036E-01 -1.73030085E-11
  2.98416620E-07  6.87407032E-06  2.35824760E-01 -2.55425113E-11 -1.81727962E-07
  3.42728835E-06  1.25136873E-01 -1.37095429E-11  1.63541639E-08  2.80053761E-07
  2.75675249E-03  2.70894447E-13  3.95506648E-08  2.58410802E-12  2.72174238E-10
 -1.32973890E-06 -2.53099735E-02 -3.73677439E-08 -6.64583914E-08 -4.58926732E-06
 -1.59718047E-01 -1.73014099E-11  2.98416617E-07 -6.87407068E-06 -2.35824777E-01
 -2.55309356E-11 -1.81727961E-07 -3.42728852E-06 -1.25136882E-01 -1.37524881E-11
  1.63543152E-08 -2.80053796E-07 -2.75675239E-03  3.04971155E-13  3.95506647E-08
 -2.58005239E-12 -8.06668576E-11 -1.32973898E-06 -2.53099752E-02 -1.05520450E-01
 -1.48561836E-01 -2.80699283E-02 -8.13084043E-03 -7.35350058E-03  9.07584171E-11
  1.05520207E-01  1.48561352E-01  2.80701423E-02  8.13049527E-03 -7.35389990E-03
 -8.92451184E-11 -1.05520458E-01 -1.48561846E-01 -2.80699308E-02  8.13084103E-03
  7.35350111E-03  2.49307431E-11  1.05520215E-01  1.48561363E-01  2.80701448E-02
 -8.13049587E-03  7.35390043E-03 -2.34017768E-11 -2.74684938E-02 -4.64292320E-02
  1.84612051E-01 -5.40430782E-06 -1.86268544E-09  1.50292385E-01  2.79108604E-01
 -8.13603210E-06 -2.81237627E-09  1.72143567E-01  2.13049930E-01 -6.47415301E-06
 -2.08325437E-09  1.09942861E-02  1.13017791E-02 -5.10731914E-07 -5.04601253E-11
  1.16833084E-02  2.47203293E-10  1.59817047E-12 -3.83202407E-03  3.53271493E-07
 -2.74684937E-02 -4.64292318E-02 -1.84612050E-01  5.40430776E-06 -5.19427984E-10
  1.50292384E-01 -2.79108603E-01  8.13603202E-06 -7.97726601E-10  1.72143566E-01
 -2.13049929E-01  6.47415296E-06 -5.34735014E-10  1.09942860E-02 -1.13017791E-02
  5.10731915E-07  2.10486694E-11  1.16833084E-02 -7.54876583E-11 -1.57234967E-12
 -3.83202405E-03  3.53271496E-07 -4.83170989E-02 -7.63228885E-02 -2.51446163E-02
  7.43821178E-03 -9.07135147E-03 -6.57699739E-11 -4.83178098E-02 -7.63236558E-02
 -2.51443146E-02  7.43872998E-03  9.07097244E-03 -6.76545297E-11 -4.83170987E-02
 -7.63228882E-02 -2.51446162E-02 -7.43821176E-03  9.07135143E-03 -2.04559489E-11
 -4.83178097E-02 -7.63236555E-02 -2.51443146E-02 -7.43872996E-03 -9.07097240E-03
 -2.21906978E-11 -3.54243892E-02 -5.97386773E-02  1.99742041E-01 -4.93076538E-06
 -2.38500101E-09  1.91896079E-01  2.91483521E-01 -7.31595937E-06 -3.60660132E-09
  2.20215469E-01  2.57200006E-01 -6.11344179E-06 -2.94707212E-09  3.23753573E-02
  2.21023613E-02 -2.18710235E-07 -1.93899408E-10  1.42478678E-02  2.79719577E-10
  1.54874884E-12 -8.12450137E-03  9.01252802E-08  3.54243893E-02  5.97386775E-02
  1.99742042E-01 -4.93076535E-06  6.23722417E-10 -1.91896080E-01  2.91483522E-01
 -7.31595934E-06  9.34696739E-10 -2.20215470E-01  2.57200007E-01 -6.11344179E-06
  7.11628507E-10 -3.23753573E-02  2.21023613E-02 -2.18710254E-07  8.71915109E-11
 -1.42478678E-02  9.62281532E-11  1.58836381E-12  8.12450138E-03 -9.01252848E-08
 -4.76266107E-02 -7.70216627E-02 -2.99575982E-02  8.05936819E-03 -9.53247026E-03
 -9.96816758E-11 -4.76258033E-02 -7.70207095E-02 -2.99579157E-02  8.05977722E-03
  9.53204918E-03 -1.01631307E-10  4.76266108E-02  7.70216630E-02  2.99575983E-02
  8.05936822E-03 -9.53247029E-03  2.63804399E-11  4.76258035E-02  7.70207098E-02
  2.99579158E-02  8.05977725E-03  9.53204921E-03  2.85054278E-11  3.99805348E-11
  6.98461262E-11  2.05494102E-09  1.97813142E-11  1.81660752E-01 -2.44245050E-10
  3.25506290E-09  3.20945235E-11  2.90951745E-01 -2.72592052E-10  3.37828620E-09
  3.32690836E-11  3.11136571E-01  1.13354763E-09  1.20821981E-09  1.19104767E-11
  6.70880023E-02  1.13890827E-10 -7.12788220E-03  2.04895308E-07 -1.14782488E-10
 -1.62507406E-12  1.24159153E-10  2.11265676E-10 -1.74476804E-10 -1.97830230E-11
  1.81660750E-01 -7.17043471E-10 -3.98811595E-10 -3.22124549E-11  2.90951741E-01
 -7.09364689E-10 -2.27171052E-10 -3.26724805E-11  3.11136567E-01 -3.99107536E-10
  1.12752356E-10 -1.14113350E-11  6.70880013E-02 -1.23560216E-11  7.12788206E-03
 -2.04895303E-07  1.47467153E-11 -1.62500826E-12  4.01373153E-11  3.76378515E-11
 -2.20336742E-10  1.75714523E-10 -1.34378779E-11  1.55616052E-02  4.09477903E-11
  4.07565911E-11 -2.26396919E-10  1.75405772E-10  1.72047394E-11  1.55616140E-02
  8.62078294E-11  1.11579810E-10  4.44145041E-11 -2.64766868E-11 -1.11578954E-11
  1.55616050E-02  8.70615759E-11  1.14450690E-10  4.10629984E-11 -2.61983328E-11
  7.39518407E-12  1.55616138E-02  7.33408225E-13  4.03599016E-12  2.22992849E-09
  1.95912758E-11  1.89162476E-01 -2.46848262E-11  3.48936451E-09  3.25054318E-11
  3.02404243E-01 -8.49916343E-11  3.79755169E-09  3.47026027E-11  3.22517783E-01
  1.69020295E-09  1.55005856E-09  9.97626087E-12  8.21921389E-02  1.37523329E-10
 -1.05978893E-02  2.14076668E-07 -1.42135290E-10 -1.15963083E-12  8.24012264E-11
  1.37865981E-10  9.52240438E-10  1.96840331E-11 -1.89162478E-01 -4.35456779E-10
  1.37372090E-09  3.24252123E-11 -3.02404247E-01 -5.72198297E-10  1.67322296E-09