 vasp.6.3.1 04May22 (build Aug 04 2022 13:02:54) complex                        
  
 executed on             LinuxIFC date 2024.11.25  05:09:20
 running on   28 total cores
 distrk:  each k-point on   28 cores,    1 groups
 distr:  one band on NCORE=  14 cores,    2 groups


--------------------------------------------------------------------------------------------------------


 INCAR:
   ISTART = 1            (Read existing wavefunction
   ISPIN = 1            (Non-Spin polarised DFT)
   LREAL = .FALSE.       (Projection operators: automatic)
   ENCUT = 520        (Cut-off energy for plane wave basis set, in eV)
   PREC = A       (Precision level)
   LWAVE = .FALSE.        (Write WAVECAR or not)
   LCHARG = .FALSE.        (Write CHGCAR or not)
   ADDGRID = .TRUE.        (Increase grid
   KSPACING = 0.2000
   KGAMMA = .FALSE.
   IVDW = 12
   ISMEAR = 0            (Gaussian smearing
   SIGMA = 0.05         (Smearing value in eV
   NELM = 200           (Max electronic SCF steps)
   NELMIN = 6            (Min electronic SCF steps)
   EDIFF = 1E-08        (SCF energy convergence
   NSW = 0          (Max ionic steps)
   IBRION = -1            (Algorithm: 0-MD
   ISIF = 3           (Stress/relaxation: 2-Ions, 3-Shape/Ions/V, 4-Shape/Ions)
   EDIFFG = -1E-04        (Ionic convergence
   NCORE = 14

 POTCAR:    PAW_PBE C 08Apr2002                   
 -----------------------------------------------------------------------------
|                                                                             |
|           W    W    AA    RRRRR   N    N  II  N    N   GGGG   !!!           |
|           W    W   A  A   R    R  NN   N  II  NN   N  G    G  !!!           |
|           W    W  A    A  R    R  N N  N  II  N N  N  G       !!!           |
|           W WW W  AAAAAA  RRRRR   N  N N  II  N  N N  G  GGG   !            |
|           WW  WW  A    A  R   R   N   NN  II  N   NN  G    G                |
|           W    W  A    A  R    R  N    N  II  N    N   GGGG   !!!           |
|                                                                             |
|     For optimal performance we recommend to set                             |
|       NCORE = 2 up to number-of-cores-per-socket                            |
|     NCORE specifies how many cores store one orbital (NPAR=cpu/NCORE).      |
|     This setting can greatly improve the performance of VASP for DFT.       |
|     The default, NCORE=1 might be grossly inefficient on modern             |
|     multi-core architectures or massively parallel machines. Do your        |
|     own testing! More info at https://www.vasp.at/wiki/index.php/NCORE      |
|     Unfortunately you need to use the default for GW and RPA                |
|     calculations (for HF NCORE is supported but not extensively tested      |
|     yet).                                                                   |
|                                                                             |
 -----------------------------------------------------------------------------

 POTCAR:    PAW_PBE C 08Apr2002                   
   VRHFIN =C: s2p2                                                                                  
   LEXCH  = PE                                                                                      
   EATOM  =   147.1560 eV,   10.8157 Ry                                                             
                                                                                                    
   TITEL  = PAW_PBE C 08Apr2002                                                                     
   LULTRA =        F    use ultrasoft PP ?                                                          
   IUNSCR =        1    unscreen: 0-lin 1-nonlin 2-no                                               
   RPACOR =    1.200    partial core radius                                                         
   POMASS =   12.011; ZVAL   =    4.000    mass and valenz                                          
   RCORE  =    1.500    outmost cutoff radius                                                       
   RWIGS  =    1.630; RWIGS  =    0.863    wigner-seitz radius (au A)                               
   ENMAX  =  400.000; ENMIN  =  300.000 eV                                                          
   ICORE  =        2    local potential                                                             
   LCOR   =        T    correct aug charges                                                         
   LPAW   =        T    paw PP                                                                      
   EAUG   =  644.873                                                                                
   DEXC   =    0.000                                                                                
   RMAX   =    1.529    core radius for proj-oper                                                   
   RAUG   =    1.300    factor for augmentation sphere                                              
   RDEP   =    1.501    radius for radial grids                                                     
   RDEPT  =    1.300    core radius for aug-charge                                                  
                                                                                                    
   Atomic configuration                                                                             
    4 entries                                                                                       
     n  l   j            E        occ.                                                              
     1  0  0.50      -273.3789   2.0000                                                             
     2  0  0.50       -13.7508   2.0000                                                             
     2  1  0.50        -5.2854   2.0000                                                             
     3  2  1.50        -5.4423   0.0000                                                             
   Description                                                                                      
     l       E           TYP  RCUT    TYP  RCUT                                                     
     0    -13.7508458     23  1.200                                                                 
     0     -8.2022199     23  1.200                                                                 
     1     -5.2854383     23  1.500                                                                 
     1     34.0145650     23  1.500                                                                 
     2     -5.4423304      7  1.500                                                                 
  local pseudopotential read in
  partial core-charges read in
  partial kinetic energy density read in
  atomic valenz-charges read in
  non local Contribution for L=           0  read in
    real space projection operators read in
  non local Contribution for L=           0  read in
    real space projection operators read in
  non local Contribution for L=           1  read in
    real space projection operators read in
  non local Contribution for L=           1  read in
    real space projection operators read in
    PAW grid and wavefunctions read in
 
   number of l-projection  operators is LMAX  =           4
   number of lm-projection operators is LMMAX =           8
 
  PAW_PBE C 08Apr2002                   :
 energy of atom  1       EATOM= -147.1560
 kinetic energy error for atom=    0.0071 (will be added to EATOM!!)
 
 
 POSCAR: AB-stacked Graphene
  positions in direct lattice
  velocities in cartesian coordinates
 exchange correlation table for  LEXCH =        8
   RHO(1)=    0.500       N(1)  =     2000
   RHO(2)=  100.500       N(2)  =     4000
 


--------------------------------------------------------------------------------------------------------


 ion  position               nearest neighbor table
   1  0.118  0.998  1.000-   2 1.42   2 1.42   2 1.42
   2  0.784  0.332  0.000-   1 1.42   1 1.42   1 1.42
   3  0.465  0.668  0.500-   4 1.42   4 1.42   4 1.42
   4  0.132  0.002  0.500-   3 1.42   3 1.42   3 1.42
 
  Warning from LATTYP: Monoclinic adjustment (A1->A3, A2->A1, A3->A2)!
  LATTYP: Found a base centered orthorhombic cell.
 ALAT       =     2.4664926102
 B/A-ratio  =     1.7321284541
 C/A-ratio  =     5.6760761991
  
  Lattice vectors:
  
 A1 = (   1.2335791197,   2.1359430323,  -0.0000000552)
 A2 = (  -2.4665805555,   0.0002435830,   0.0000000494)
 A3 = (  -0.0000000441,  -0.0000001059,  14.0000000000)


Analysis of symmetry for initial positions (statically):
=====================================================================
 Subroutine PRICEL returns:
 Original cell was already a primitive cell.
 

 Routine SETGRP: Setting up the symmetry group for a 
 base centered orthorhombic supercell.


 Subroutine GETGRP returns: Found  4 space group operations
 (whereof  2 operations were pure point group operations)
 out of a pool of  8 trial point group operations.


The static configuration has the point symmetry C_1h.
 The point group associated with its full space group is C_2h.


Analysis of symmetry for dynamics (positions and initial velocities):
=====================================================================
 Subroutine PRICEL returns:
 Original cell was already a primitive cell.
 

 Routine SETGRP: Setting up the symmetry group for a 
 base centered orthorhombic supercell.


 Subroutine GETGRP returns: Found  4 space group operations
 (whereof  2 operations were pure point group operations)
 out of a pool of  8 trial point group operations.


The dynamic configuration has the point symmetry C_1h.
 The point group associated with its full space group is C_2h.


 Subroutine INISYM returns: Found  4 space group operations
 (whereof  2 operations are pure point group operations),
 and found     1 'primitive' translations


----------------------------------------------------------------------------------------

                                     Primitive cell                                     

  volume of cell :      73.7629

  direct lattice vectors                    reciprocal lattice vectors
     2.466580556 -0.000243583 -0.000000049     0.405442669  0.234020469  0.000000003
    -1.233001436  2.136186615 -0.000000006     0.000046231  0.468150580  0.000000004
    -0.000000044 -0.000000106 14.000000000     0.000000001  0.000000001  0.071428571

  length of vectors
     2.466580568  2.466492610 14.000000000     0.468133888  0.468150582  0.071428571

  position of ions in fractional coordinates (direct lattice)
     0.117794189  0.998254412  0.999999659
     0.784453271  0.331580559  0.000000223
     0.465038818  0.668419402  0.499999796
     0.131697875  0.001745627  0.500000322

  ion indices of the primitive-cell ions
   primitive index   ion index
                 1           1
                 2           2
                 3           3
                 4           4

----------------------------------------------------------------------------------------

 
 
 KPOINTS: K-Spacing Value to Generate K-Mesh: 0.03

Automatic generation of k-mesh.
 Grid dimensions read from file:
 generate k-points for:   18   18    2

 Generating k-lattice:

  Cartesian coordinates                     Fractional coordinates (reciprocal lattice)
     0.022524593  0.013001137  0.000000000     0.055555556 -0.000000000  0.000000000
     0.000002568  0.026008366  0.000000000    -0.000000000  0.055555556  0.000000000
     0.000000001  0.000000001  0.035714286    -0.000000000 -0.000000000  0.500000000

  Length of vectors
     0.026007438  0.026008366  0.035714286

  Shift w.r.t. Gamma in fractional coordinates (k-lattice)
     0.000000000  0.000000000  0.000000000

 
 Subroutine IBZKPT returns following result:
 ===========================================
 
 Found    328 irreducible k-points:
 
 Following reciprocal coordinates:
            Coordinates               Weight
  0.000000  0.000000  0.000000      1.000000
  0.055556 -0.000000  0.000000      2.000000
  0.111111 -0.000000 -0.000000      2.000000
  0.166667 -0.000000 -0.000000      2.000000
  0.222222 -0.000000  0.000000      2.000000
  0.277778  0.000000  0.000000      2.000000
  0.333333 -0.000000 -0.000000      2.000000
  0.388889 -0.000000 -0.000000      2.000000
  0.444444 -0.000000  0.000000      2.000000
  0.500000 -0.000000  0.000000      1.000000
 -0.000000  0.055556 -0.000000      2.000000
 -0.055556  0.055556 -0.000000      2.000000
  0.055556  0.055556  0.000000      2.000000
 -0.111111  0.055556 -0.000000      2.000000
  0.111111  0.055556  0.000000      2.000000
 -0.166667  0.055556 -0.000000      2.000000
  0.166667  0.055556 -0.000000      2.000000
 -0.222222  0.055556 -0.000000      2.000000
  0.222222  0.055556  0.000000      2.000000
 -0.277778  0.055556 -0.000000      2.000000
  0.277778  0.055556  0.000000      2.000000
 -0.333333  0.055556 -0.000000      2.000000
  0.333333  0.055556 -0.000000      2.000000
 -0.388889  0.055556  0.000000      2.000000
  0.388889  0.055556 -0.000000      2.000000
 -0.444444  0.055556 -0.000000      2.000000
  0.444444  0.055556  0.000000      2.000000
  0.500000  0.055556 -0.000000      2.000000
 -0.000000  0.111111 -0.000000      2.000000
 -0.111111  0.111111  0.000000      2.000000
  0.055556  0.111111  0.000000      2.000000
 -0.166667  0.111111  0.000000      2.000000
  0.111111  0.111111  0.000000      2.000000
 -0.222222  0.111111 -0.000000      2.000000
  0.166667  0.111111 -0.000000      2.000000
 -0.277778  0.111111  0.000000      2.000000
  0.222222  0.111111 -0.000000      2.000000
 -0.333333  0.111111  0.000000      2.000000
  0.277778  0.111111  0.000000      2.000000
 -0.388889  0.111111 -0.000000      2.000000
  0.333333  0.111111 -0.000000      2.000000
 -0.444444  0.111111  0.000000      2.000000
  0.388889  0.111111 -0.000000      2.000000
  0.500000  0.111111  0.000000      2.000000
  0.444444  0.111111  0.000000      2.000000
 -0.055556  0.111111 -0.000000      2.000000
 -0.000000  0.166667 -0.000000      2.000000
 -0.166667  0.166667 -0.000000      2.000000
  0.055556  0.166667  0.000000      2.000000
 -0.222222  0.166667 -0.000000      2.000000
  0.111111  0.166667  0.000000      2.000000
 -0.277778  0.166667 -0.000000      2.000000
  0.166667  0.166667 -0.000000      2.000000
 -0.333333  0.166667  0.000000      2.000000
  0.222222  0.166667 -0.000000      2.000000
 -0.388889  0.166667 -0.000000      2.000000
  0.277778  0.166667  0.000000      2.000000
 -0.444444  0.166667 -0.000000      2.000000
  0.333333  0.166667  0.000000      2.000000
  0.500000  0.166667 -0.000000      2.000000
  0.388889  0.166667 -0.000000      2.000000
  0.444444  0.166667  0.000000      2.000000
 -0.111111  0.166667  0.000000      2.000000
 -0.055556  0.166667 -0.000000      2.000000
 -0.000000  0.222222 -0.000000      2.000000
 -0.222222  0.222222  0.000000      2.000000
  0.055556  0.222222  0.000000      2.000000
 -0.277778  0.222222  0.000000      2.000000
  0.111111  0.222222  0.000000      2.000000
 -0.333333  0.222222  0.000000      2.000000
  0.166667  0.222222 -0.000000      2.000000
 -0.388889  0.222222  0.000000      2.000000
  0.222222  0.222222 -0.000000      2.000000
 -0.444444  0.222222  0.000000      2.000000
  0.277778  0.222222  0.000000      2.000000
  0.500000  0.222222  0.000000      2.000000
  0.333333  0.222222  0.000000      2.000000
  0.444444  0.222222 -0.000000      2.000000
  0.388889  0.222222 -0.000000      2.000000
 -0.166667  0.222222 -0.000000      2.000000
 -0.055556  0.222222  0.000000      2.000000
 -0.111111  0.222222  0.000000      2.000000
 -0.000000  0.277778 -0.000000      2.000000
 -0.277778  0.277778  0.000000      2.000000
  0.055556  0.277778 -0.000000      2.000000
 -0.333333  0.277778  0.000000      2.000000
  0.111111  0.277778  0.000000      2.000000
 -0.388889  0.277778 -0.000000      2.000000
  0.166667  0.277778  0.000000      2.000000
 -0.444444  0.277778 -0.000000      2.000000
  0.222222  0.277778 -0.000000      2.000000
  0.500000  0.277778  0.000000      2.000000
  0.277778  0.277778  0.000000      2.000000
  0.444444  0.277778 -0.000000      2.000000
  0.333333  0.277778  0.000000      2.000000
  0.388889  0.277778 -0.000000      2.000000
 -0.222222  0.277778  0.000000      2.000000
 -0.055556  0.277778 -0.000000      2.000000
 -0.166667  0.277778 -0.000000      2.000000
 -0.111111  0.277778  0.000000      2.000000
  0.000000  0.333333 -0.000000      2.000000
 -0.333333  0.333333 -0.000000      2.000000
  0.055556  0.333333 -0.000000      2.000000
 -0.388889  0.333333 -0.000000      2.000000
  0.111111  0.333333  0.000000      2.000000
 -0.444444  0.333333 -0.000000      2.000000
  0.166667  0.333333  0.000000      2.000000
  0.500000  0.333333 -0.000000      2.000000
  0.222222  0.333333 -0.000000      2.000000
  0.444444  0.333333 -0.000000      2.000000
  0.277778  0.333333 -0.000000      2.000000
  0.388889  0.333333 -0.000000      2.000000
  0.333333  0.333333  0.000000      2.000000
 -0.277778  0.333333  0.000000      2.000000
 -0.055556  0.333333  0.000000      2.000000
 -0.222222  0.333333  0.000000      2.000000
 -0.111111  0.333333  0.000000      2.000000
 -0.166667  0.333333 -0.000000      2.000000
 -0.000000  0.388889 -0.000000      2.000000
 -0.388889  0.388889  0.000000      2.000000
  0.055556  0.388889 -0.000000      2.000000
 -0.444444  0.388889  0.000000      2.000000
  0.111111  0.388889  0.000000      2.000000
  0.500000  0.388889  0.000000      2.000000
  0.166667  0.388889  0.000000      2.000000
  0.444444  0.388889 -0.000000      2.000000
  0.222222  0.388889 -0.000000      2.000000
  0.388889  0.388889  0.000000      2.000000
  0.277778  0.388889 -0.000000      2.000000
  0.333333  0.388889  0.000000      2.000000
 -0.333333  0.388889 -0.000000      2.000000
 -0.055556  0.388889  0.000000      2.000000
 -0.277778  0.388889  0.000000      2.000000
 -0.111111  0.388889 -0.000000      2.000000
 -0.222222  0.388889  0.000000      2.000000
 -0.166667  0.388889 -0.000000      2.000000
 -0.000000  0.444444  0.000000      2.000000
 -0.444444  0.444444 -0.000000      2.000000
  0.055556  0.444444 -0.000000      2.000000
  0.500000  0.444444 -0.000000      2.000000
  0.111111  0.444444  0.000000      2.000000
  0.444444  0.444444 -0.000000      2.000000
  0.166667  0.444444  0.000000      2.000000
  0.388889  0.444444 -0.000000      2.000000
  0.222222  0.444444 -0.000000      2.000000
  0.333333  0.444444  0.000000      2.000000
  0.277778  0.444444 -0.000000      2.000000
 -0.388889  0.444444  0.000000      2.000000
 -0.055556  0.444444 -0.000000      2.000000
 -0.333333  0.444444 -0.000000      2.000000
 -0.111111  0.444444 -0.000000      2.000000
 -0.277778  0.444444  0.000000      2.000000
 -0.166667  0.444444 -0.000000      2.000000
 -0.222222  0.444444  0.000000      2.000000
  0.000000  0.500000  0.000000      1.000000
  0.500000  0.500000 -0.000000      1.000000
  0.055556  0.500000 -0.000000      2.000000
  0.444444  0.500000  0.000000      2.000000
  0.111111  0.500000 -0.000000      2.000000
  0.388889  0.500000  0.000000      2.000000
  0.166667  0.500000  0.000000      2.000000
  0.333333  0.500000  0.000000      2.000000
  0.222222  0.500000  0.000000      2.000000
  0.277778  0.500000 -0.000000      2.000000
 -0.000000  0.000000  0.500000      1.000000
  0.055556  0.000000  0.500000      2.000000
  0.111111 -0.000000  0.500000      2.000000
  0.166667 -0.000000  0.500000      2.000000
  0.222222 -0.000000  0.500000      2.000000
  0.277778 -0.000000  0.500000      2.000000
  0.333333 -0.000000  0.500000      2.000000
  0.388889  0.000000  0.500000      2.000000
  0.444444 -0.000000  0.500000      2.000000
  0.500000 -0.000000  0.500000      1.000000
 -0.000000  0.055556  0.500000      2.000000
 -0.055556  0.055556  0.500000      2.000000
  0.055556  0.055556  0.500000      2.000000
 -0.111111  0.055556  0.500000      2.000000
  0.111111  0.055556  0.500000      2.000000
 -0.166667  0.055556  0.500000      2.000000
  0.166667  0.055556  0.500000      2.000000
 -0.222222  0.055556  0.500000      2.000000
  0.222222  0.055556  0.500000      2.000000
 -0.277778  0.055556  0.500000      2.000000
  0.277778  0.055556  0.500000      2.000000
 -0.333333  0.055556  0.500000      2.000000
  0.333333  0.055556  0.500000      2.000000
 -0.388889  0.055556  0.500000      2.000000
  0.388889  0.055556  0.500000      2.000000
 -0.444444  0.055556  0.500000      2.000000
  0.444444  0.055556  0.500000      2.000000
  0.500000  0.055556  0.500000      2.000000
  0.000000  0.111111  0.500000      2.000000
 -0.111111  0.111111  0.500000      2.000000
  0.055556  0.111111  0.500000      2.000000
 -0.166667  0.111111  0.500000      2.000000
  0.111111  0.111111  0.500000      2.000000
 -0.222222  0.111111  0.500000      2.000000
  0.166667  0.111111  0.500000      2.000000
 -0.277778  0.111111  0.500000      2.000000
  0.222222  0.111111  0.500000      2.000000
 -0.333333  0.111111  0.500000      2.000000
  0.277778  0.111111  0.500000      2.000000
 -0.388889  0.111111  0.500000      2.000000
  0.333333  0.111111  0.500000      2.000000
 -0.444444  0.111111  0.500000      2.000000
  0.388889  0.111111  0.500000      2.000000
  0.500000  0.111111  0.500000      2.000000
  0.444444  0.111111  0.500000      2.000000
 -0.055556  0.111111  0.500000      2.000000
 -0.000000  0.166667  0.500000      2.000000
 -0.166667  0.166667  0.500000      2.000000
  0.055556  0.166667  0.500000      2.000000
 -0.222222  0.166667  0.500000      2.000000
  0.111111  0.166667  0.500000      2.000000
 -0.277778  0.166667  0.500000      2.000000
  0.166667  0.166667  0.500000      2.000000
 -0.333333  0.166667  0.500000      2.000000
  0.222222  0.166667  0.500000      2.000000
 -0.388889  0.166667  0.500000      2.000000
  0.277778  0.166667  0.500000      2.000000
 -0.444444  0.166667  0.500000      2.000000
  0.333333  0.166667  0.500000      2.000000
  0.500000  0.166667  0.500000      2.000000
  0.388889  0.166667  0.500000      2.000000
  0.444444  0.166667  0.500000      2.000000
 -0.111111  0.166667  0.500000      2.000000
 -0.055556  0.166667  0.500000      2.000000
 -0.000000  0.222222  0.500000      2.000000
 -0.222222  0.222222  0.500000      2.000000
  0.055556  0.222222  0.500000      2.000000
 -0.277778  0.222222  0.500000      2.000000
  0.111111  0.222222  0.500000      2.000000
 -0.333333  0.222222  0.500000      2.000000
  0.166667  0.222222  0.500000      2.000000
 -0.388889  0.222222  0.500000      2.000000
  0.222222  0.222222  0.500000      2.000000
 -0.444444  0.222222  0.500000      2.000000
  0.277778  0.222222  0.500000      2.000000
  0.500000  0.222222  0.500000      2.000000
  0.333333  0.222222  0.500000      2.000000
  0.444444  0.222222  0.500000      2.000000
  0.388889  0.222222  0.500000      2.000000
 -0.166667  0.222222  0.500000      2.000000
 -0.055556  0.222222  0.500000      2.000000
 -0.111111  0.222222  0.500000      2.000000
  0.000000  0.277778  0.500000      2.000000
 -0.277778  0.277778  0.500000      2.000000
  0.055556  0.277778  0.500000      2.000000
 -0.333333  0.277778  0.500000      2.000000
  0.111111  0.277778  0.500000      2.000000
 -0.388889  0.277778  0.500000      2.000000
  0.166667  0.277778  0.500000      2.000000
 -0.444444  0.277778  0.500000      2.000000
  0.222222  0.277778  0.500000      2.000000
  0.500000  0.277778  0.500000      2.000000
  0.277778  0.277778  0.500000      2.000000
  0.444444  0.277778  0.500000      2.000000
  0.333333  0.277778  0.500000      2.000000
  0.388889  0.277778  0.500000      2.000000
 -0.222222  0.277778  0.500000      2.000000
 -0.055556  0.277778  0.500000      2.000000
 -0.166667  0.277778  0.500000      2.000000
 -0.111111  0.277778  0.500000      2.000000
  0.000000  0.333333  0.500000      2.000000
 -0.333333  0.333333  0.500000      2.000000
  0.055556  0.333333  0.500000      2.000000
 -0.388889  0.333333  0.500000      2.000000
  0.111111  0.333333  0.500000      2.000000
 -0.444444  0.333333  0.500000      2.000000
  0.166667  0.333333  0.500000      2.000000
  0.500000  0.333333  0.500000      2.000000
  0.222222  0.333333  0.500000      2.000000
  0.444444  0.333333  0.500000      2.000000
  0.277778  0.333333  0.500000      2.000000
  0.388889  0.333333  0.500000      2.000000
  0.333333  0.333333  0.500000      2.000000
 -0.277778  0.333333  0.500000      2.000000
 -0.055556  0.333333  0.500000      2.000000
 -0.222222  0.333333  0.500000      2.000000
 -0.111111  0.333333  0.500000      2.000000
 -0.166667  0.333333  0.500000      2.000000
  0.000000  0.388889  0.500000      2.000000
 -0.388889  0.388889  0.500000      2.000000
  0.055556  0.388889  0.500000      2.000000
 -0.444444  0.388889  0.500000      2.000000
  0.111111  0.388889  0.500000      2.000000
  0.500000  0.388889  0.500000      2.000000
  0.166667  0.388889  0.500000      2.000000
  0.444444  0.388889  0.500000      2.000000
  0.222222  0.388889  0.500000      2.000000
  0.388889  0.388889  0.500000      2.000000
  0.277778  0.388889  0.500000      2.000000
  0.333333  0.388889  0.500000      2.000000
 -0.333333  0.388889  0.500000      2.000000
 -0.055556  0.388889  0.500000      2.000000
 -0.277778  0.388889  0.500000      2.000000
 -0.111111  0.388889  0.500000      2.000000
 -0.222222  0.388889  0.500000      2.000000
 -0.166667  0.388889  0.500000      2.000000
  0.000000  0.444444  0.500000      2.000000
 -0.444444  0.444444  0.500000      2.000000
  0.055556  0.444444  0.500000      2.000000
  0.500000  0.444444  0.500000      2.000000
  0.111111  0.444444  0.500000      2.000000
  0.444444  0.444444  0.500000      2.000000
  0.166667  0.444444  0.500000      2.000000
  0.388889  0.444444  0.500000      2.000000
  0.222222  0.444444  0.500000      2.000000
  0.333333  0.444444  0.500000      2.000000
  0.277778  0.444444  0.500000      2.000000
 -0.388889  0.444444  0.500000      2.000000
 -0.055556  0.444444  0.500000      2.000000
 -0.333333  0.444444  0.500000      2.000000
 -0.111111  0.444444  0.500000      2.000000
 -0.277778  0.444444  0.500000      2.000000
 -0.166667  0.444444  0.500000      2.000000
 -0.222222  0.444444  0.500000      2.000000
  0.000000  0.500000  0.500000      1.000000
  0.500000  0.500000  0.500000      1.000000
  0.055556  0.500000  0.500000      2.000000
  0.444444  0.500000  0.500000      2.000000
  0.111111  0.500000  0.500000      2.000000
  0.388889  0.500000  0.500000      2.000000
  0.166667  0.500000  0.500000      2.000000
  0.333333  0.500000  0.500000      2.000000
  0.222222  0.500000  0.500000      2.000000
  0.277778  0.500000  0.500000      2.000000
 
 Following cartesian coordinates:
            Coordinates               Weight
  0.000000  0.000000  0.000000      1.000000
  0.022525  0.013001  0.000000      2.000000
  0.045049  0.026002  0.000000      2.000000
  0.067574  0.039003  0.000000      2.000000
  0.090098  0.052005  0.000000      2.000000
  0.112623  0.065006  0.000000      2.000000
  0.135148  0.078007  0.000000      2.000000
  0.157672  0.091008  0.000000      2.000000
  0.180197  0.104009  0.000000      2.000000
  0.202721  0.117010  0.000000      1.000000
  0.000003  0.026008  0.000000      2.000000
 -0.022522  0.013007  0.000000      2.000000
  0.022527  0.039010  0.000000      2.000000
 -0.045047  0.000006 -0.000000      2.000000
  0.045052  0.052011  0.000000      2.000000
 -0.067571 -0.012995 -0.000000      2.000000
  0.067576  0.065012  0.000000      2.000000
 -0.090096 -0.025996 -0.000000      2.000000
  0.090101  0.078013  0.000000      2.000000
 -0.112620 -0.038997 -0.000000      2.000000
  0.112626  0.091014  0.000000      2.000000
 -0.135145 -0.051998 -0.000000      2.000000
  0.135150  0.104015  0.000000      2.000000
 -0.157670 -0.065000 -0.000000      2.000000
  0.157675  0.117016  0.000000      2.000000
 -0.180194 -0.078001 -0.000000      2.000000
  0.180199  0.130017  0.000000      2.000000
  0.202724  0.143019  0.000000      2.000000
  0.000005  0.052017  0.000000      2.000000
 -0.045044  0.026014  0.000000      2.000000
  0.022530  0.065018  0.000000      2.000000
 -0.067569  0.013013 -0.000000      2.000000
  0.045054  0.078019  0.000000      2.000000
 -0.090093  0.000012 -0.000000      2.000000
  0.067579  0.091020  0.000000      2.000000
 -0.112618 -0.012989 -0.000000      2.000000
  0.090104  0.104021  0.000000      2.000000
 -0.135142 -0.025990 -0.000000      2.000000
  0.112628  0.117022  0.000000      2.000000
 -0.157667 -0.038991 -0.000000      2.000000
  0.135153  0.130024  0.000000      2.000000
 -0.180192 -0.051992 -0.000000      2.000000
  0.157677  0.143025  0.000000      2.000000
  0.202726  0.169027  0.000000      2.000000
  0.180202  0.156026  0.000000      2.000000
 -0.022519  0.039016  0.000000      2.000000
  0.000008  0.078025  0.000000      2.000000
 -0.067566  0.039022  0.000000      2.000000
  0.022532  0.091026  0.000000      2.000000
 -0.090091  0.026021 -0.000000      2.000000
  0.045057  0.104027  0.000000      2.000000
 -0.112615  0.013019 -0.000000      2.000000
  0.067581  0.117029  0.000000      2.000000
 -0.135140  0.000018 -0.000000      2.000000
  0.090106  0.130030  0.000000      2.000000
 -0.157664 -0.012983 -0.000000      2.000000
  0.112631  0.143031  0.000000      2.000000
 -0.180189 -0.025984 -0.000000      2.000000
  0.135155  0.156032  0.000000      2.000000
  0.202729  0.195035  0.000000      2.000000
  0.157680  0.169033  0.000000      2.000000
  0.180204  0.182034  0.000000      2.000000
 -0.045041  0.052023  0.000000      2.000000
 -0.022517  0.065024  0.000000      2.000000
  0.000010  0.104033  0.000000      2.000000
 -0.090088  0.052029  0.000000      2.000000
  0.022535  0.117035  0.000000      2.000000
 -0.112613  0.039028 -0.000000      2.000000
  0.045059  0.130036  0.000000      2.000000
 -0.135137  0.026027 -0.000000      2.000000
  0.067584  0.143037  0.000000      2.000000
 -0.157662  0.013026 -0.000000      2.000000
  0.090109  0.156038  0.000000      2.000000
 -0.180186  0.000024 -0.000000      2.000000
  0.112633  0.169039  0.000000      2.000000
  0.202732  0.221044  0.000000      2.000000
  0.135158  0.182040  0.000000      2.000000
  0.180207  0.208043  0.000000      2.000000
  0.157682  0.195041  0.000000      2.000000
 -0.067564  0.065030  0.000000      2.000000
 -0.022514  0.091032  0.000000      2.000000
 -0.045039  0.078031  0.000000      2.000000
  0.000013  0.130042  0.000000      2.000000
 -0.112610  0.065036  0.000000      2.000000
  0.022537  0.143043  0.000000      2.000000
 -0.135135  0.052035 -0.000000      2.000000
  0.045062  0.156044  0.000000      2.000000
 -0.157659  0.039034 -0.000000      2.000000
  0.067587  0.169045  0.000000      2.000000
 -0.180184  0.026033 -0.000000      2.000000
  0.090111  0.182046  0.000000      2.000000
  0.202734  0.247052  0.000000      2.000000
  0.112636  0.195048  0.000000      2.000000
  0.180210  0.234051  0.000000      2.000000
  0.135160  0.208049  0.000000      2.000000
  0.157685  0.221050  0.000000      2.000000
 -0.090086  0.078037  0.000000      2.000000
 -0.022512  0.117041  0.000000      2.000000
 -0.067561  0.091038  0.000000      2.000000
 -0.045036  0.104040  0.000000      2.000000
  0.000015  0.156050  0.000000      2.000000
 -0.135132  0.078043  0.000000      2.000000
  0.022540  0.169051  0.000000      2.000000
 -0.157657  0.065042 -0.000000      2.000000
  0.045065  0.182052  0.000000      2.000000
 -0.180181  0.052041 -0.000000      2.000000
  0.067589  0.195054  0.000000      2.000000
  0.202737  0.273060  0.000000      2.000000
  0.090114  0.208055  0.000000      2.000000
  0.180212  0.260059  0.000000      2.000000
  0.112638  0.221056  0.000000      2.000000
  0.157688  0.247058  0.000000      2.000000
  0.135163  0.234057  0.000000      2.000000
 -0.112608  0.091045  0.000000      2.000000
 -0.022509  0.143049  0.000000      2.000000
 -0.090083  0.104046  0.000000      2.000000
 -0.045034  0.130048  0.000000      2.000000
 -0.067558  0.117047  0.000000      2.000000
  0.000018  0.182059  0.000000      2.000000
 -0.157654  0.091051  0.000000      2.000000
  0.022543  0.195060  0.000000      2.000000
 -0.180179  0.078049  0.000000      2.000000
  0.045067  0.208061  0.000000      2.000000
  0.202739  0.299069  0.000000      2.000000
  0.067592  0.221062  0.000000      2.000000
  0.180215  0.286068  0.000000      2.000000
  0.090116  0.234063  0.000000      2.000000
  0.157690  0.273067  0.000000      2.000000
  0.112641  0.247064  0.000000      2.000000
  0.135166  0.260065  0.000000      2.000000
 -0.135130  0.104052  0.000000      2.000000
 -0.022507  0.169057  0.000000      2.000000
 -0.112605  0.117053  0.000000      2.000000
 -0.045031  0.156056  0.000000      2.000000
 -0.090080  0.130054  0.000000      2.000000
 -0.067556  0.143055  0.000000      2.000000
  0.000021  0.208067  0.000000      2.000000
 -0.180176  0.104058  0.000000      2.000000
  0.022545  0.221068  0.000000      2.000000
  0.202742  0.325077  0.000000      2.000000
  0.045070  0.234069  0.000000      2.000000
  0.180217  0.312076  0.000000      2.000000
  0.067594  0.247070  0.000000      2.000000
  0.157693  0.299075  0.000000      2.000000
  0.090119  0.260071  0.000000      2.000000
  0.135168  0.286074  0.000000      2.000000
  0.112644  0.273073  0.000000      2.000000
 -0.157652  0.117059  0.000000      2.000000
 -0.022504  0.195066  0.000000      2.000000
 -0.135127  0.130060  0.000000      2.000000
 -0.045029  0.182065  0.000000      2.000000
 -0.112602  0.143061  0.000000      2.000000
 -0.067553  0.169064  0.000000      2.000000
 -0.090078  0.156062  0.000000      2.000000
  0.000023  0.234075  0.000000      1.000000
  0.202744  0.351086  0.000000      1.000000
  0.022548  0.247076  0.000000      2.000000
  0.180220  0.338084  0.000000      2.000000
  0.045072  0.260078  0.000000      2.000000
  0.157695  0.325083  0.000000      2.000000
  0.067597  0.273079  0.000000      2.000000
  0.135171  0.312082  0.000000      2.000000
  0.090121  0.286080  0.000000      2.000000
  0.112646  0.299081  0.000000      2.000000
  0.000000  0.000000  0.035714      1.000000
  0.022525  0.013001  0.035714      2.000000
  0.045049  0.026002  0.035714      2.000000
  0.067574  0.039003  0.035714      2.000000
  0.090098  0.052005  0.035714      2.000000
  0.112623  0.065006  0.035714      2.000000
  0.135148  0.078007  0.035714      2.000000
  0.157672  0.091008  0.035714      2.000000
  0.180197  0.104009  0.035714      2.000000
  0.202721  0.117010  0.035714      1.000000
  0.000003  0.026008  0.035714      2.000000
 -0.022522  0.013007  0.035714      2.000000
  0.022527  0.039010  0.035714      2.000000
 -0.045047  0.000006  0.035714      2.000000
  0.045052  0.052011  0.035714      2.000000
 -0.067571 -0.012995  0.035714      2.000000
  0.067576  0.065012  0.035714      2.000000
 -0.090096 -0.025996  0.035714      2.000000
  0.090101  0.078013  0.035714      2.000000
 -0.112620 -0.038997  0.035714      2.000000
  0.112626  0.091014  0.035714      2.000000
 -0.135145 -0.051998  0.035714      2.000000
  0.135150  0.104015  0.035714      2.000000
 -0.157670 -0.065000  0.035714      2.000000
  0.157675  0.117016  0.035714      2.000000
 -0.180194 -0.078001  0.035714      2.000000
  0.180199  0.130017  0.035714      2.000000
  0.202724  0.143019  0.035714      2.000000
  0.000005  0.052017  0.035714      2.000000
 -0.045044  0.026014  0.035714      2.000000
  0.022530  0.065018  0.035714      2.000000
 -0.067569  0.013013  0.035714      2.000000
  0.045054  0.078019  0.035714      2.000000
 -0.090093  0.000012  0.035714      2.000000
  0.067579  0.091020  0.035714      2.000000
 -0.112618 -0.012989  0.035714      2.000000
  0.090104  0.104021  0.035714      2.000000
 -0.135142 -0.025990  0.035714      2.000000
  0.112628  0.117022  0.035714      2.000000
 -0.157667 -0.038991  0.035714      2.000000
  0.135153  0.130024  0.035714      2.000000
 -0.180192 -0.051992  0.035714      2.000000
  0.157677  0.143025  0.035714      2.000000
  0.202726  0.169027  0.035714      2.000000
  0.180202  0.156026  0.035714      2.000000
 -0.022519  0.039016  0.035714      2.000000
  0.000008  0.078025  0.035714      2.000000
 -0.067566  0.039022  0.035714      2.000000
  0.022532  0.091026  0.035714      2.000000
 -0.090091  0.026021  0.035714      2.000000
  0.045057  0.104027  0.035714      2.000000
 -0.112615  0.013019  0.035714      2.000000
  0.067581  0.117029  0.035714      2.000000
 -0.135140  0.000018  0.035714      2.000000
  0.090106  0.130030  0.035714      2.000000
 -0.157664 -0.012983  0.035714      2.000000
  0.112631  0.143031  0.035714      2.000000
 -0.180189 -0.025984  0.035714      2.000000
  0.135155  0.156032  0.035714      2.000000
  0.202729  0.195035  0.035714      2.000000
  0.157680  0.169033  0.035714      2.000000
  0.180204  0.182034  0.035714      2.000000
 -0.045041  0.052023  0.035714      2.000000
 -0.022517  0.065024  0.035714      2.000000
  0.000010  0.104033  0.035714      2.000000
 -0.090088  0.052029  0.035714      2.000000
  0.022535  0.117035  0.035714      2.000000
 -0.112613  0.039028  0.035714      2.000000
  0.045059  0.130036  0.035714      2.000000
 -0.135137  0.026027  0.035714      2.000000
  0.067584  0.143037  0.035714      2.000000
 -0.157662  0.013026  0.035714      2.000000
  0.090109  0.156038  0.035714      2.000000
 -0.180186  0.000024  0.035714      2.000000
  0.112633  0.169039  0.035714      2.000000
  0.202732  0.221044  0.035714      2.000000
  0.135158  0.182040  0.035714      2.000000
  0.180207  0.208043  0.035714      2.000000
  0.157682  0.195041  0.035714      2.000000
 -0.067564  0.065030  0.035714      2.000000
 -0.022514  0.091032  0.035714      2.000000
 -0.045039  0.078031  0.035714      2.000000
  0.000013  0.130042  0.035714      2.000000
 -0.112610  0.065036  0.035714      2.000000
  0.022537  0.143043  0.035714      2.000000
 -0.135135  0.052035  0.035714      2.000000
  0.045062  0.156044  0.035714      2.000000
 -0.157659  0.039034  0.035714      2.000000
  0.067587  0.169045  0.035714      2.000000
 -0.180184  0.026033  0.035714      2.000000
  0.090111  0.182046  0.035714      2.000000
  0.202734  0.247052  0.035714      2.000000
  0.112636  0.195048  0.035714      2.000000
  0.180210  0.234051  0.035714      2.000000
  0.135160  0.208049  0.035714      2.000000
  0.157685  0.221050  0.035714      2.000000
 -0.090086  0.078037  0.035714      2.000000
 -0.022512  0.117041  0.035714      2.000000
 -0.067561  0.091038  0.035714      2.000000
 -0.045036  0.104040  0.035714      2.000000
  0.000015  0.156050  0.035714      2.000000
 -0.135132  0.078043  0.035714      2.000000
  0.022540  0.169051  0.035714      2.000000
 -0.157657  0.065042  0.035714      2.000000
  0.045065  0.182052  0.035714      2.000000
 -0.180181  0.052041  0.035714      2.000000
  0.067589  0.195054  0.035714      2.000000
  0.202737  0.273060  0.035714      2.000000
  0.090114  0.208055  0.035714      2.000000
  0.180212  0.260059  0.035714      2.000000
  0.112638  0.221056  0.035714      2.000000
  0.157688  0.247058  0.035714      2.000000
  0.135163  0.234057  0.035714      2.000000
 -0.112608  0.091045  0.035714      2.000000
 -0.022509  0.143049  0.035714      2.000000
 -0.090083  0.104046  0.035714      2.000000
 -0.045034  0.130048  0.035714      2.000000
 -0.067558  0.117047  0.035714      2.000000
  0.000018  0.182059  0.035714      2.000000
 -0.157654  0.091051  0.035714      2.000000
  0.022543  0.195060  0.035714      2.000000
 -0.180179  0.078049  0.035714      2.000000
  0.045067  0.208061  0.035714      2.000000
  0.202739  0.299069  0.035714      2.000000
  0.067592  0.221062  0.035714      2.000000
  0.180215  0.286068  0.035714      2.000000
  0.090116  0.234063  0.035714      2.000000
  0.157690  0.273067  0.035714      2.000000
  0.112641  0.247064  0.035714      2.000000
  0.135166  0.260065  0.035714      2.000000
 -0.135130  0.104052  0.035714      2.000000
 -0.022507  0.169057  0.035714      2.000000
 -0.112605  0.117053  0.035714      2.000000
 -0.045031  0.156056  0.035714      2.000000
 -0.090080  0.130054  0.035714      2.000000
 -0.067556  0.143055  0.035714      2.000000
  0.000021  0.208067  0.035714      2.000000
 -0.180176  0.104058  0.035714      2.000000
  0.022545  0.221068  0.035714      2.000000
  0.202742  0.325077  0.035714      2.000000
  0.045070  0.234069  0.035714      2.000000
  0.180217  0.312076  0.035714      2.000000
  0.067594  0.247070  0.035714      2.000000
  0.157693  0.299075  0.035714      2.000000
  0.090119  0.260071  0.035714      2.000000
  0.135168  0.286074  0.035714      2.000000
  0.112644  0.273073  0.035714      2.000000
 -0.157652  0.117059  0.035714      2.000000
 -0.022504  0.195066  0.035714      2.000000
 -0.135127  0.130060  0.035714      2.000000
 -0.045029  0.182065  0.035714      2.000000
 -0.112602  0.143061  0.035714      2.000000
 -0.067553  0.169064  0.035714      2.000000
 -0.090078  0.156062  0.035714      2.000000
  0.000023  0.234075  0.035714      1.000000
  0.202744  0.351086  0.035714      1.000000
  0.022548  0.247076  0.035714      2.000000
  0.180220  0.338084  0.035714      2.000000
  0.045072  0.260078  0.035714      2.000000
  0.157695  0.325083  0.035714      2.000000
  0.067597  0.273079  0.035714      2.000000
  0.135171  0.312082  0.035714      2.000000
  0.090121  0.286080  0.035714      2.000000
  0.112646  0.299081  0.035714      2.000000
 


--------------------------------------------------------------------------------------------------------




 Dimension of arrays:
   k-points           NKPTS =    328   k-points in BZ     NKDIM =    328   number of bands    NBANDS=     12
   number of dos      NEDOS =    301   number of ions     NIONS =      4
   non local maximal  LDIM  =      4   non local SUM 2l+1 LMDIM =      8
   total plane-waves  NPLWV =  34992
   max r-space proj   IRMAX =      1   max aug-charges    IRDMAX=  44979
   dimension x,y,z NGX =    18 NGY =   18 NGZ =  108
   dimension x,y,z NGXF=    36 NGYF=   36 NGZF=  216
   support grid    NGXF=    72 NGYF=   72 NGZF=  432
   ions per type =               4
   NGX,Y,Z   is equivalent  to a cutoff of  12.13, 12.13, 12.82 a.u.
   NGXF,Y,Z  is equivalent  to a cutoff of  24.26, 24.26, 25.65 a.u.

 SYSTEM =  unknown system                          
 POSCAR =  AB-stacked Graphene                     

 Startparameter for this run:
   NWRITE =      2    write-flag & timer
   PREC   = a         normal or accurate (medium, high low for compatibility)
   ISTART =      0    job   : 0-new  1-cont  2-samecut
   ICHARG =      2    charge: 1-file 2-atom 10-const
   ISPIN  =      1    spin polarized calculation?
   LNONCOLLINEAR =      F non collinear calculations
   LSORBIT =      F    spin-orbit coupling
   INIWAV =      1    electr: 0-lowe 1-rand  2-diag
   LASPH  =      F    aspherical Exc in radial PAW
 Electronic Relaxation 1
   ENCUT  =  520.0 eV  38.22 Ry    6.18 a.u.   4.59  4.59 26.03*2*pi/ulx,y,z
   ENINI  =  520.0     initial cutoff
   ENAUG  =  644.9 eV  augmentation charge cutoff
   NELM   =    200;   NELMIN=  6; NELMDL=  0     # of ELM steps 
   EDIFF  = 0.1E-07   stopping-criterion for ELM
   LREAL  =      F    real-space projection
   NLSPLINE    = F    spline interpolate recip. space projectors
   LCOMPAT=      F    compatible to vasp.4.4
   GGA_COMPAT  = T    GGA compatible to vasp.4.4-vasp.4.6
   LMAXPAW     = -100 max onsite density
   LMAXMIX     =    2 max onsite mixed and CHGCAR
   VOSKOWN=      0    Vosko Wilk Nusair interpolation
   ROPT   =    0.00000
 Ionic relaxation
   EDIFFG = -.1E-03   stopping-criterion for IOM
   NSW    =      0    number of steps for IOM
   NBLOCK =      1;   KBLOCK =      1    inner block; outer block 
   IBRION =     -1    ionic relax: 0-MD 1-quasi-New 2-CG
   NFREE  =      0    steps in history (QN), initial steepest desc. (CG)
   ISIF   =      3    stress and relaxation
   IWAVPR =     10    prediction:  0-non 1-charg 2-wave 3-comb
   ISYM   =      2    0-nonsym 1-usesym 2-fastsym
   LCORR  =      T    Harris-Foulkes like correction to forces

   POTIM  = 0.5000    time-step for ionic-motion
   TEIN   =    0.0    initial temperature
   TEBEG  =    0.0;   TEEND  =   0.0 temperature during run
   SMASS  =  -3.00    Nose mass-parameter (am)
   estimated Nose-frequenzy (Omega)   =  0.10E-29 period in steps = 0.13E+47 mass=  -0.139E-27a.u.
   SCALEE = 1.0000    scale energy and forces
   NPACO  =    256;   APACO  = 10.0  distance and # of slots for P.C.
   PSTRESS=    0.0 pullay stress

  Mass of Ions in am
   POMASS =  12.01
  Ionic Valenz
   ZVAL   =   4.00
  Atomic Wigner-Seitz radii
   RWIGS  =  -1.00
  virtual crystal weights 
   VCA    =   1.00
   NELECT =      16.0000    total number of electrons
   NUPDOWN=      -1.0000    fix difference up-down

 DOS related values:
   EMIN   =  10.00;   EMAX   =-10.00  energy-range for DOS
   EFERMI =   0.00
   ISMEAR =     0;   SIGMA  =   0.05  broadening in eV -4-tet -1-fermi 0-gaus

 Electronic relaxation 2 (details)
   IALGO  =     38    algorithm
   LDIAG  =      T    sub-space diagonalisation (order eigenvalues)
   LSUBROT=      F    optimize rotation matrix (better conditioning)
   TURBO    =      0    0=normal 1=particle mesh
   IRESTART =      0    0=no restart 2=restart with 2 vectors
   NREBOOT  =      0    no. of reboots
   NMIN     =      0    reboot dimension
   EREF     =   0.00    reference energy to select bands
   IMIX   =      4    mixing-type and parameters
     AMIX     =   0.40;   BMIX     =  1.00
     AMIX_MAG =   1.60;   BMIX_MAG =  1.00
     AMIN     =   0.10
     WC   =   100.;   INIMIX=   1;  MIXPRE=   1;  MAXMIX= -45

 Intra band minimization:
   WEIMIN = 0.0000     energy-eigenvalue tresh-hold
   EBREAK =  0.21E-09  absolut break condition
   DEPER  =   0.30     relativ break condition  

   TIME   =   0.40     timestep for ELM

  volume/ion in A,a.u.               =      18.44       124.44
  Fermi-wavevector in a.u.,A,eV,Ry     =   0.983639  1.858807 13.164248  0.967545
  Thomas-Fermi vector in A             =   2.114812
 
 Write flags
   LWAVE        =      F    write WAVECAR
   LDOWNSAMPLE  =      F    k-point downsampling of WAVECAR
   LCHARG       =      F    write CHGCAR
   LVTOT        =      F    write LOCPOT, total local potential
   LVHAR        =      F    write LOCPOT, Hartree potential only
   LELF         =      F    write electronic localiz. function (ELF)
   LORBIT       =      0    0 simple, 1 ext, 2 COOP (PROOUT), +10 PAW based schemes


 Dipole corrections
   LMONO  =      F    monopole corrections only (constant potential shift)
   LDIPOL =      F    correct potential (dipole corrections)
   IDIPOL =      0    1-x, 2-y, 3-z, 4-all directions 
   EPSILON=  1.0000000 bulk dielectric constant

 Exchange correlation treatment:
   GGA     =    --    GGA type
   LEXCH   =     8    internal setting for exchange type
   LIBXC   =     F    Libxc                    
   VOSKOWN =     0    Vosko Wilk Nusair interpolation
   LHFCALC =     F    Hartree Fock is set to
   LHFONE  =     F    Hartree Fock one center treatment
   AEXX    =    0.0000 exact exchange contribution

 Linear response parameters
   LEPSILON=     F    determine dielectric tensor
   LRPA    =     F    only Hartree local field effects (RPA)
   LNABLA  =     F    use nabla operator in PAW spheres
   LVEL    =     F    velocity operator in full k-point grid
   CSHIFT  =0.1000    complex shift for real part using Kramers Kronig
   OMEGAMAX=  -1.0    maximum frequency
   DEG_THRESHOLD= 0.2000000E-02 threshold for treating states as degnerate
   RTIME   =   -0.100 relaxation time in fs
  (WPLASMAI=    0.000 imaginary part of plasma frequency in eV, 0.658/RTIME)
   DFIELD  = 0.0000000 0.0000000 0.0000000 field for delta impulse in time
 
  Optional k-point grid parameters
   LKPOINTS_OPT  =     F    use optional k-point grid
   KPOINTS_OPT_MODE=     1    mode for optional k-point grid
 
 Orbital magnetization related:
   ORBITALMAG=     F  switch on orbital magnetization
   LCHIMAG   =     F  perturbation theory with respect to B field
   DQ        =  0.001000  dq finite difference perturbation B field
   LLRAUG    =     F  two centre corrections for induced B field



--------------------------------------------------------------------------------------------------------


 Static calculation
 charge density and potential will be updated during run
 non-spin polarized calculation
 Variant of blocked Davidson
 Davidson routine will perform the subspace rotation
 perform sub-space diagonalisation
    after iterative eigenvector-optimisation
 modified Broyden-mixing scheme, WC =      100.0
 initial mixing is a Kerker type mixing with AMIX =  0.4000 and BMIX =      1.0000
 Hartree-type preconditioning will be used
 using additional bands            4
 reciprocal scheme for non local part
 use partial core corrections
 calculate Harris-corrections to forces 
   (improved forces if not selfconsistent)
 use gradient corrections 
 use of overlap-Matrix (Vanderbilt PP)
 Gauss-broadening in eV      SIGMA  =   0.05


--------------------------------------------------------------------------------------------------------


  energy-cutoff  :      520.00
  volume of cell :       73.76
      direct lattice vectors                 reciprocal lattice vectors
     2.466580556 -0.000243583 -0.000000049     0.405442669  0.234020469  0.000000003
    -1.233001436  2.136186615 -0.000000006     0.000046231  0.468150580  0.000000004
    -0.000000044 -0.000000106 14.000000000     0.000000001  0.000000001  0.071428571

  length of vectors
     2.466580568  2.466492610 14.000000000     0.468133888  0.468150582  0.071428571


 
 k-points in units of 2pi/SCALE and weight: K-Spacing Value to Generate K-Mesh: 0.03
   0.00000000  0.00000000  0.00000000       0.002
   0.02252459  0.01300114  0.00000000       0.003
   0.04504919  0.02600227  0.00000000       0.003
   0.06757378  0.03900341  0.00000000       0.003
   0.09009837  0.05200455  0.00000000       0.003
   0.11262296  0.06500569  0.00000000       0.003
   0.13514756  0.07800682  0.00000000       0.003
   0.15767215  0.09100796  0.00000000       0.003
   0.18019674  0.10400910  0.00000000       0.003
   0.20272133  0.11701023  0.00000000       0.002
   0.00000257  0.02600837  0.00000000       0.003
  -0.02252202  0.01300723  0.00000000       0.003
   0.02252716  0.03900950  0.00000000       0.003
  -0.04504662  0.00000609 -0.00000000       0.003
   0.04505175  0.05201064  0.00000000       0.003
  -0.06757121 -0.01299505 -0.00000000       0.003
   0.06757635  0.06501178  0.00000000       0.003
  -0.09009580 -0.02599618 -0.00000000       0.003
   0.09010094  0.07801291  0.00000000       0.003
  -0.11262040 -0.03899732 -0.00000000       0.003
   0.11262553  0.09101405  0.00000000       0.003
  -0.13514499 -0.05199846 -0.00000000       0.003
   0.13515012  0.10401519  0.00000000       0.003
  -0.15766958 -0.06499959 -0.00000000       0.003
   0.15767472  0.11701633  0.00000000       0.003
  -0.18019417 -0.07800073 -0.00000000       0.003
   0.18019931  0.13001746  0.00000000       0.003
   0.20272390  0.14301860  0.00000000       0.003
   0.00000514  0.05201673  0.00000000       0.003
  -0.04504405  0.02601446  0.00000000       0.003
   0.02252973  0.06501787  0.00000000       0.003
  -0.06756864  0.01301332 -0.00000000       0.003
   0.04505432  0.07801901  0.00000000       0.003
  -0.09009323  0.00001218 -0.00000000       0.003
   0.06757891  0.09102014  0.00000000       0.003
  -0.11261783 -0.01298895 -0.00000000       0.003
   0.09010351  0.10402128  0.00000000       0.003
  -0.13514242 -0.02599009 -0.00000000       0.003
   0.11262810  0.11702242  0.00000000       0.003
  -0.15766701 -0.03899123 -0.00000000       0.003
   0.13515269  0.13002355  0.00000000       0.003
  -0.18019160 -0.05199237 -0.00000000       0.003
   0.15767729  0.14302469  0.00000000       0.003
   0.20272647  0.16902697  0.00000000       0.003
   0.18020188  0.15602583  0.00000000       0.003
  -0.02251946  0.03901559  0.00000000       0.003
   0.00000771  0.07802510  0.00000000       0.003
  -0.06756607  0.03902169  0.00000000       0.003
   0.02253230  0.09102623  0.00000000       0.003
  -0.09009067  0.02602055 -0.00000000       0.003
   0.04505689  0.10402737  0.00000000       0.003
  -0.11261526  0.01301941 -0.00000000       0.003
   0.06758148  0.11702851  0.00000000       0.003
  -0.13513985  0.00001827 -0.00000000       0.003
   0.09010608  0.13002965  0.00000000       0.003
  -0.15766444 -0.01298286 -0.00000000       0.003
   0.11263067  0.14303078  0.00000000       0.003
  -0.18018904 -0.02598400 -0.00000000       0.003
   0.13515526  0.15603192  0.00000000       0.003
   0.20272904  0.19503533  0.00000000       0.003
   0.15767985  0.16903306  0.00000000       0.003
   0.18020445  0.18203419  0.00000000       0.003
  -0.04504148  0.05202282  0.00000000       0.003
  -0.02251689  0.06502396  0.00000000       0.003
   0.00001027  0.10403346  0.00000000       0.003
  -0.09008810  0.05202891  0.00000000       0.003
   0.02253487  0.11703460  0.00000000       0.003
  -0.11261269  0.03902778 -0.00000000       0.003
   0.04505946  0.13003574  0.00000000       0.003
  -0.13513728  0.02602664 -0.00000000       0.003
   0.06758405  0.14303687  0.00000000       0.003
  -0.15766188  0.01302550 -0.00000000       0.003
   0.09010864  0.15603801  0.00000000       0.003
  -0.18018647  0.00002437 -0.00000000       0.003
   0.11263324  0.16903915  0.00000000       0.003
   0.20273161  0.22104370  0.00000000       0.003
   0.13515783  0.18204029  0.00000000       0.003
   0.18020702  0.20804256  0.00000000       0.003
   0.15768242  0.19504142  0.00000000       0.003
  -0.06756350  0.06503005  0.00000000       0.003
  -0.02251432  0.09103233  0.00000000       0.003
  -0.04503891  0.07803119  0.00000000       0.003
   0.00001284  0.13004183  0.00000000       0.003
  -0.11261012  0.06503614  0.00000000       0.003
   0.02253743  0.14304296  0.00000000       0.003
  -0.13513471  0.05203500 -0.00000000       0.003
   0.04506203  0.15604410  0.00000000       0.003
  -0.15765931  0.03903387 -0.00000000       0.003
   0.06758662  0.16904524  0.00000000       0.003
  -0.18018390  0.02603273 -0.00000000       0.003
   0.09011121  0.18204638  0.00000000       0.003
   0.20273418  0.24705206  0.00000000       0.003
   0.11263581  0.19504751  0.00000000       0.003
   0.18020958  0.23405093  0.00000000       0.003
   0.13516040  0.20804865  0.00000000       0.003
   0.15768499  0.22104979  0.00000000       0.003
  -0.09008553  0.07803728  0.00000000       0.003
  -0.02251175  0.11704069  0.00000000       0.003
  -0.06756094  0.09103842  0.00000000       0.003
  -0.04503634  0.10403955  0.00000000       0.003
   0.00001541  0.15605019  0.00000000       0.003
  -0.13513215  0.07804337  0.00000000       0.003
   0.02254000  0.16905133  0.00000000       0.003
  -0.15765674  0.06504223 -0.00000000       0.003
   0.04506460  0.18205247  0.00000000       0.003
  -0.18018133  0.05204110 -0.00000000       0.003
   0.06758919  0.19505360  0.00000000       0.003
   0.20273674  0.27306043  0.00000000       0.003
   0.09011378  0.20805474  0.00000000       0.003
   0.18021215  0.26005929  0.00000000       0.003
   0.11263837  0.22105588  0.00000000       0.003
   0.15768756  0.24705815  0.00000000       0.003
   0.13516297  0.23405702  0.00000000       0.003
  -0.11260755  0.09104451  0.00000000       0.003
  -0.02250918  0.14304906  0.00000000       0.003
  -0.09008296  0.10404564  0.00000000       0.003
  -0.04503377  0.13004792  0.00000000       0.003
  -0.06755837  0.11704678  0.00000000       0.003
   0.00001798  0.18205856  0.00000000       0.003
  -0.15765417  0.09105060  0.00000000       0.003
   0.02254257  0.19505970  0.00000000       0.003
  -0.18017876  0.07804946  0.00000000       0.003
   0.04506716  0.20806083  0.00000000       0.003
   0.20273931  0.29906879  0.00000000       0.003
   0.06759176  0.22106197  0.00000000       0.003
   0.18021472  0.28606766  0.00000000       0.003
   0.09011635  0.23406311  0.00000000       0.003
   0.15769013  0.27306652  0.00000000       0.003
   0.11264094  0.24706424  0.00000000       0.003
   0.13516554  0.26006538  0.00000000       0.003
  -0.13512958  0.10405174  0.00000000       0.003
  -0.02250661  0.16905742  0.00000000       0.003
  -0.11260498  0.11705287  0.00000000       0.003
  -0.04503121  0.15605628  0.00000000       0.003
  -0.09008039  0.13005401  0.00000000       0.003
  -0.06755580  0.14305515  0.00000000       0.003
   0.00002055  0.20806692  0.00000000       0.003
  -0.18017619  0.10405783  0.00000000       0.003
   0.02254514  0.22106806  0.00000000       0.003
   0.20274188  0.32507716  0.00000000       0.003
   0.04506973  0.23406920  0.00000000       0.003
   0.18021729  0.31207602  0.00000000       0.003
   0.06759433  0.24707034  0.00000000       0.003
   0.15769270  0.29907488  0.00000000       0.003
   0.09011892  0.26007147  0.00000000       0.003
   0.13516810  0.28607375  0.00000000       0.003
   0.11264351  0.27307261  0.00000000       0.003
  -0.15765160  0.11705896  0.00000000       0.003
  -0.02250405  0.19506579  0.00000000       0.003
  -0.13512701  0.13006010  0.00000000       0.003
  -0.04502864  0.18206465  0.00000000       0.003
  -0.11260242  0.14306124  0.00000000       0.003
  -0.06755323  0.16906351  0.00000000       0.003
  -0.09007782  0.15606238  0.00000000       0.003
   0.00002312  0.23407529  0.00000000       0.002
   0.20274445  0.35108552  0.00000000       0.002
   0.02254771  0.24707643  0.00000000       0.003
   0.18021986  0.33808439  0.00000000       0.003
   0.04507230  0.26007756  0.00000000       0.003
   0.15769526  0.32508325  0.00000000       0.003
   0.06759689  0.27307870  0.00000000       0.003
   0.13517067  0.31208211  0.00000000       0.003
   0.09012149  0.28607984  0.00000000       0.003
   0.11264608  0.29908098  0.00000000       0.003
   0.00000000  0.00000000  0.03571429       0.002
   0.02252459  0.01300114  0.03571429       0.003
   0.04504919  0.02600227  0.03571429       0.003
   0.06757378  0.03900341  0.03571429       0.003
   0.09009837  0.05200455  0.03571429       0.003
   0.11262296  0.06500569  0.03571429       0.003
   0.13514756  0.07800682  0.03571429       0.003
   0.15767215  0.09100796  0.03571429       0.003
   0.18019674  0.10400910  0.03571429       0.003
   0.20272134  0.11701023  0.03571429       0.002
   0.00000257  0.02600837  0.03571429       0.003
  -0.02252202  0.01300723  0.03571429       0.003
   0.02252716  0.03900950  0.03571429       0.003
  -0.04504662  0.00000609  0.03571429       0.003
   0.04505175  0.05201064  0.03571429       0.003
  -0.06757121 -0.01299505  0.03571429       0.003
   0.06757635  0.06501178  0.03571429       0.003
  -0.09009580 -0.02599618  0.03571429       0.003
   0.09010094  0.07801291  0.03571429       0.003
  -0.11262039 -0.03899732  0.03571429       0.003
   0.11262553  0.09101405  0.03571429       0.003
  -0.13514499 -0.05199846  0.03571428       0.003
   0.13515013  0.10401519  0.03571429       0.003
  -0.15766958 -0.06499959  0.03571428       0.003
   0.15767472  0.11701633  0.03571429       0.003
  -0.18019417 -0.07800073  0.03571428       0.003
   0.18019931  0.13001746  0.03571429       0.003
   0.20272390  0.14301860  0.03571429       0.003
   0.00000514  0.05201673  0.03571429       0.003
  -0.04504405  0.02601446  0.03571429       0.003
   0.02252973  0.06501787  0.03571429       0.003
  -0.06756864  0.01301332  0.03571429       0.003
   0.04505432  0.07801901  0.03571429       0.003
  -0.09009323  0.00001218  0.03571429       0.003
   0.06757892  0.09102014  0.03571429       0.003
  -0.11261783 -0.01298895  0.03571429       0.003
   0.09010351  0.10402128  0.03571429       0.003
  -0.13514242 -0.02599009  0.03571429       0.003
   0.11262810  0.11702242  0.03571429       0.003
  -0.15766701 -0.03899123  0.03571428       0.003
   0.13515269  0.13002355  0.03571429       0.003
  -0.18019160 -0.05199237  0.03571428       0.003
   0.15767729  0.14302469  0.03571429       0.003
   0.20272647  0.16902697  0.03571429       0.003
   0.18020188  0.15602583  0.03571429       0.003
  -0.02251946  0.03901559  0.03571429       0.003
   0.00000771  0.07802510  0.03571429       0.003
  -0.06756607  0.03902169  0.03571429       0.003
   0.02253230  0.09102623  0.03571429       0.003
  -0.09009066  0.02602055  0.03571429       0.003
   0.04505689  0.10402737  0.03571429       0.003
  -0.11261526  0.01301941  0.03571429       0.003
   0.06758148  0.11702851  0.03571429       0.003
  -0.13513985  0.00001827  0.03571429       0.003
   0.09010608  0.13002965  0.03571429       0.003
  -0.15766444 -0.01298286  0.03571429       0.003
   0.11263067  0.14303078  0.03571429       0.003
  -0.18018904 -0.02598400  0.03571428       0.003
   0.13515526  0.15603192  0.03571429       0.003
   0.20272904  0.19503533  0.03571429       0.003
   0.15767985  0.16903306  0.03571429       0.003
   0.18020445  0.18203419  0.03571429       0.003
  -0.04504148  0.05202282  0.03571429       0.003
  -0.02251689  0.06502396  0.03571429       0.003
   0.00001027  0.10403346  0.03571429       0.003
  -0.09008810  0.05202891  0.03571429       0.003
   0.02253487  0.11703460  0.03571429       0.003
  -0.11261269  0.03902778  0.03571429       0.003
   0.04505946  0.13003574  0.03571429       0.003
  -0.13513728  0.02602664  0.03571429       0.003
   0.06758405  0.14303687  0.03571429       0.003
  -0.15766187  0.01302550  0.03571429       0.003
   0.09010865  0.15603801  0.03571429       0.003
  -0.18018647  0.00002437  0.03571429       0.003
   0.11263324  0.16903915  0.03571429       0.003
   0.20273161  0.22104370  0.03571429       0.003
   0.13515783  0.18204029  0.03571429       0.003
   0.18020702  0.20804256  0.03571429       0.003
   0.15768242  0.19504142  0.03571429       0.003
  -0.06756350  0.06503005  0.03571429       0.003
  -0.02251432  0.09103233  0.03571429       0.003
  -0.04503891  0.07803119  0.03571429       0.003
   0.00001284  0.13004183  0.03571429       0.003
  -0.11261012  0.06503614  0.03571429       0.003
   0.02253744  0.14304297  0.03571429       0.003
  -0.13513471  0.05203501  0.03571429       0.003
   0.04506203  0.15604410  0.03571429       0.003
  -0.15765931  0.03903387  0.03571429       0.003
   0.06758662  0.16904524  0.03571429       0.003
  -0.18018390  0.02603273  0.03571429       0.003
   0.09011121  0.18204638  0.03571429       0.003
   0.20273418  0.24705206  0.03571429       0.003
   0.11263581  0.19504751  0.03571429       0.003
   0.18020958  0.23405093  0.03571429       0.003
   0.13516040  0.20804865  0.03571429       0.003
   0.15768499  0.22104979  0.03571429       0.003
  -0.09008553  0.07803728  0.03571429       0.003
  -0.02251175  0.11704069  0.03571429       0.003
  -0.06756094  0.09103842  0.03571429       0.003
  -0.04503634  0.10403955  0.03571429       0.003
   0.00001541  0.15605019  0.03571429       0.003
  -0.13513215  0.07804337  0.03571429       0.003
   0.02254000  0.16905133  0.03571429       0.003
  -0.15765674  0.06504223  0.03571429       0.003
   0.04506460  0.18205247  0.03571429       0.003
  -0.18018133  0.05204110  0.03571429       0.003
   0.06758919  0.19505361  0.03571429       0.003
   0.20273675  0.27306043  0.03571429       0.003
   0.09011378  0.20805474  0.03571429       0.003
   0.18021215  0.26005929  0.03571429       0.003
   0.11263837  0.22105588  0.03571429       0.003
   0.15768756  0.24705815  0.03571429       0.003
   0.13516297  0.23405702  0.03571429       0.003
  -0.11260755  0.09104451  0.03571429       0.003
  -0.02250918  0.14304906  0.03571429       0.003
  -0.09008296  0.10404565  0.03571429       0.003
  -0.04503377  0.13004792  0.03571429       0.003
  -0.06755837  0.11704678  0.03571429       0.003
   0.00001798  0.18205856  0.03571429       0.003
  -0.15765417  0.09105060  0.03571429       0.003
   0.02254257  0.19505970  0.03571429       0.003
  -0.18017876  0.07804946  0.03571429       0.003
   0.04506717  0.20806083  0.03571429       0.003
   0.20273931  0.29906879  0.03571429       0.003
   0.06759176  0.22106197  0.03571429       0.003
   0.18021472  0.28606766  0.03571429       0.003
   0.09011635  0.23406311  0.03571429       0.003
   0.15769013  0.27306652  0.03571429       0.003
   0.11264094  0.24706425  0.03571429       0.003
   0.13516554  0.26006538  0.03571429       0.003
  -0.13512958  0.10405174  0.03571429       0.003
  -0.02250661  0.16905742  0.03571429       0.003
  -0.11260498  0.11705287  0.03571429       0.003
  -0.04503121  0.15605629  0.03571429       0.003
  -0.09008039  0.13005401  0.03571429       0.003
  -0.06755580  0.14305515  0.03571429       0.003
   0.00002055  0.20806693  0.03571429       0.003
  -0.18017619  0.10405783  0.03571429       0.003
   0.02254514  0.22106806  0.03571429       0.003
   0.20274188  0.32507716  0.03571429       0.003
   0.04506973  0.23406920  0.03571429       0.003
   0.18021729  0.31207602  0.03571429       0.003
   0.06759433  0.24707034  0.03571429       0.003
   0.15769270  0.29907489  0.03571429       0.003
   0.09011892  0.26007147  0.03571429       0.003
   0.13516810  0.28607375  0.03571429       0.003
   0.11264351  0.27307261  0.03571429       0.003
  -0.15765160  0.11705897  0.03571429       0.003
  -0.02250404  0.19506579  0.03571429       0.003
  -0.13512701  0.13006010  0.03571429       0.003
  -0.04502864  0.18206465  0.03571429       0.003
  -0.11260242  0.14306124  0.03571429       0.003
  -0.06755323  0.16906351  0.03571429       0.003
  -0.09007782  0.15606238  0.03571429       0.003
   0.00002312  0.23407529  0.03571429       0.002
   0.20274445  0.35108552  0.03571429       0.002
   0.02254771  0.24707643  0.03571429       0.003
   0.18021986  0.33808439  0.03571429       0.003
   0.04507230  0.26007756  0.03571429       0.003
   0.15769527  0.32508325  0.03571429       0.003
   0.06759689  0.27307870  0.03571429       0.003
   0.13517067  0.31208211  0.03571429       0.003
   0.09012149  0.28607984  0.03571429       0.003
   0.11264608  0.29908098  0.03571429       0.003
 
 k-points in reciprocal lattice and weights: K-Spacing Value to Generate K-Mesh: 0.03
   0.00000000  0.00000000  0.00000000       0.002
   0.05555556 -0.00000000  0.00000000       0.003
   0.11111111 -0.00000000 -0.00000000       0.003
   0.16666667 -0.00000000 -0.00000000       0.003
   0.22222222 -0.00000000  0.00000000       0.003
   0.27777778  0.00000000  0.00000000       0.003
   0.33333333 -0.00000000 -0.00000000       0.003
   0.38888889 -0.00000000 -0.00000000       0.003
   0.44444444 -0.00000000  0.00000000       0.003
   0.50000000 -0.00000000  0.00000000       0.002
  -0.00000000  0.05555556 -0.00000000       0.003
  -0.05555556  0.05555556 -0.00000000       0.003
   0.05555556  0.05555556  0.00000000       0.003
  -0.11111111  0.05555556 -0.00000000       0.003
   0.11111111  0.05555556  0.00000000       0.003
  -0.16666667  0.05555556 -0.00000000       0.003
   0.16666667  0.05555556 -0.00000000       0.003
  -0.22222222  0.05555556 -0.00000000       0.003
   0.22222222  0.05555556  0.00000000       0.003
  -0.27777778  0.05555556 -0.00000000       0.003
   0.27777778  0.05555556  0.00000000       0.003
  -0.33333333  0.05555556 -0.00000000       0.003
   0.33333333  0.05555556 -0.00000000       0.003
  -0.38888889  0.05555556  0.00000000       0.003
   0.38888889  0.05555556 -0.00000000       0.003
  -0.44444444  0.05555556 -0.00000000       0.003
   0.44444444  0.05555556  0.00000000       0.003
   0.50000000  0.05555556 -0.00000000       0.003
  -0.00000000  0.11111111 -0.00000000       0.003
  -0.11111111  0.11111111  0.00000000       0.003
   0.05555556  0.11111111  0.00000000       0.003
  -0.16666667  0.11111111  0.00000000       0.003
   0.11111111  0.11111111  0.00000000       0.003
  -0.22222222  0.11111111 -0.00000000       0.003
   0.16666667  0.11111111 -0.00000000       0.003
  -0.27777778  0.11111111  0.00000000       0.003
   0.22222222  0.11111111 -0.00000000       0.003
  -0.33333333  0.11111111  0.00000000       0.003
   0.27777778  0.11111111  0.00000000       0.003
  -0.38888889  0.11111111 -0.00000000       0.003
   0.33333333  0.11111111 -0.00000000       0.003
  -0.44444444  0.11111111  0.00000000       0.003
   0.38888889  0.11111111 -0.00000000       0.003
   0.50000000  0.11111111  0.00000000       0.003
   0.44444444  0.11111111  0.00000000       0.003
  -0.05555556  0.11111111 -0.00000000       0.003
  -0.00000000  0.16666667 -0.00000000       0.003
  -0.16666667  0.16666667 -0.00000000       0.003
   0.05555556  0.16666667  0.00000000       0.003
  -0.22222222  0.16666667 -0.00000000       0.003
   0.11111111  0.16666667  0.00000000       0.003
  -0.27777778  0.16666667 -0.00000000       0.003
   0.16666667  0.16666667 -0.00000000       0.003
  -0.33333333  0.16666667  0.00000000       0.003
   0.22222222  0.16666667 -0.00000000       0.003
  -0.38888889  0.16666667 -0.00000000       0.003
   0.27777778  0.16666667  0.00000000       0.003
  -0.44444444  0.16666667 -0.00000000       0.003
   0.33333333  0.16666667  0.00000000       0.003
   0.50000000  0.16666667 -0.00000000       0.003
   0.38888889  0.16666667 -0.00000000       0.003
   0.44444444  0.16666667  0.00000000       0.003
  -0.11111111  0.16666667  0.00000000       0.003
  -0.05555556  0.16666667 -0.00000000       0.003
  -0.00000000  0.22222222 -0.00000000       0.003
  -0.22222222  0.22222222  0.00000000       0.003
   0.05555556  0.22222222  0.00000000       0.003
  -0.27777778  0.22222222  0.00000000       0.003
   0.11111111  0.22222222  0.00000000       0.003
  -0.33333333  0.22222222  0.00000000       0.003
   0.16666667  0.22222222 -0.00000000       0.003
  -0.38888889  0.22222222  0.00000000       0.003
   0.22222222  0.22222222 -0.00000000       0.003
  -0.44444444  0.22222222  0.00000000       0.003
   0.27777778  0.22222222  0.00000000       0.003
   0.50000000  0.22222222  0.00000000       0.003
   0.33333333  0.22222222  0.00000000       0.003
   0.44444444  0.22222222 -0.00000000       0.003
   0.38888889  0.22222222 -0.00000000       0.003
  -0.16666667  0.22222222 -0.00000000       0.003
  -0.05555556  0.22222222  0.00000000       0.003
  -0.11111111  0.22222222  0.00000000       0.003
  -0.00000000  0.27777778 -0.00000000       0.003
  -0.27777778  0.27777778  0.00000000       0.003
   0.05555556  0.27777778 -0.00000000       0.003
  -0.33333333  0.27777778  0.00000000       0.003
   0.11111111  0.27777778  0.00000000       0.003
  -0.38888889  0.27777778 -0.00000000       0.003
   0.16666667  0.27777778  0.00000000       0.003
  -0.44444444  0.27777778 -0.00000000       0.003
   0.22222222  0.27777778 -0.00000000       0.003
   0.50000000  0.27777778  0.00000000       0.003
   0.27777778  0.27777778  0.00000000       0.003
   0.44444444  0.27777778 -0.00000000       0.003
   0.33333333  0.27777778  0.00000000       0.003
   0.38888889  0.27777778 -0.00000000       0.003
  -0.22222222  0.27777778  0.00000000       0.003
  -0.05555556  0.27777778 -0.00000000       0.003
  -0.16666667  0.27777778 -0.00000000       0.003
  -0.11111111  0.27777778  0.00000000       0.003
   0.00000000  0.33333333 -0.00000000       0.003
  -0.33333333  0.33333333 -0.00000000       0.003
   0.05555556  0.33333333 -0.00000000       0.003
  -0.38888889  0.33333333 -0.00000000       0.003
   0.11111111  0.33333333  0.00000000       0.003
  -0.44444444  0.33333333 -0.00000000       0.003
   0.16666667  0.33333333  0.00000000       0.003
   0.50000000  0.33333333 -0.00000000       0.003
   0.22222222  0.33333333 -0.00000000       0.003
   0.44444444  0.33333333 -0.00000000       0.003
   0.27777778  0.33333333 -0.00000000       0.003
   0.38888889  0.33333333 -0.00000000       0.003
   0.33333333  0.33333333  0.00000000       0.003
  -0.27777778  0.33333333  0.00000000       0.003
  -0.05555556  0.33333333  0.00000000       0.003
  -0.22222222  0.33333333  0.00000000       0.003
  -0.11111111  0.33333333  0.00000000       0.003
  -0.16666667  0.33333333 -0.00000000       0.003
  -0.00000000  0.38888889 -0.00000000       0.003
  -0.38888889  0.38888889  0.00000000       0.003
   0.05555556  0.38888889 -0.00000000       0.003
  -0.44444444  0.38888889  0.00000000       0.003
   0.11111111  0.38888889  0.00000000       0.003
   0.50000000  0.38888889  0.00000000       0.003
   0.16666667  0.38888889  0.00000000       0.003
   0.44444444  0.38888889 -0.00000000       0.003
   0.22222222  0.38888889 -0.00000000       0.003
   0.38888889  0.38888889  0.00000000       0.003
   0.27777778  0.38888889 -0.00000000       0.003
   0.33333333  0.38888889  0.00000000       0.003
  -0.33333333  0.38888889 -0.00000000       0.003
  -0.05555556  0.38888889  0.00000000       0.003
  -0.27777778  0.38888889  0.00000000       0.003
  -0.11111111  0.38888889 -0.00000000       0.003
  -0.22222222  0.38888889  0.00000000       0.003
  -0.16666667  0.38888889 -0.00000000       0.003
  -0.00000000  0.44444444  0.00000000       0.003
  -0.44444444  0.44444444 -0.00000000       0.003
   0.05555556  0.44444444 -0.00000000       0.003
   0.50000000  0.44444444 -0.00000000       0.003
   0.11111111  0.44444444  0.00000000       0.003
   0.44444444  0.44444444 -0.00000000       0.003
   0.16666667  0.44444444  0.00000000       0.003
   0.38888889  0.44444444 -0.00000000       0.003
   0.22222222  0.44444444 -0.00000000       0.003
   0.33333333  0.44444444  0.00000000       0.003
   0.27777778  0.44444444 -0.00000000       0.003
  -0.38888889  0.44444444  0.00000000       0.003
  -0.05555556  0.44444444 -0.00000000       0.003
  -0.33333333  0.44444444 -0.00000000       0.003
  -0.11111111  0.44444444 -0.00000000       0.003
  -0.27777778  0.44444444  0.00000000       0.003
  -0.16666667  0.44444444 -0.00000000       0.003
  -0.22222222  0.44444444  0.00000000       0.003
   0.00000000  0.50000000  0.00000000       0.002
   0.50000000  0.50000000 -0.00000000       0.002
   0.05555556  0.50000000 -0.00000000       0.003
   0.44444444  0.50000000  0.00000000       0.003
   0.11111111  0.50000000 -0.00000000       0.003
   0.38888889  0.50000000  0.00000000       0.003
   0.16666667  0.50000000  0.00000000       0.003
   0.33333333  0.50000000  0.00000000       0.003
   0.22222222  0.50000000  0.00000000       0.003
   0.27777778  0.50000000 -0.00000000       0.003
  -0.00000000  0.00000000  0.50000000       0.002
   0.05555556  0.00000000  0.50000000       0.003
   0.11111111 -0.00000000  0.50000000       0.003
   0.16666667 -0.00000000  0.50000000       0.003
   0.22222222 -0.00000000  0.50000000       0.003
   0.27777778 -0.00000000  0.50000000       0.003
   0.33333333 -0.00000000  0.50000000       0.003
   0.38888889  0.00000000  0.50000000       0.003
   0.44444444 -0.00000000  0.50000000       0.003
   0.50000000 -0.00000000  0.50000000       0.002
  -0.00000000  0.05555556  0.50000000       0.003
  -0.05555556  0.05555556  0.50000000       0.003
   0.05555556  0.05555556  0.50000000       0.003
  -0.11111111  0.05555556  0.50000000       0.003
   0.11111111  0.05555556  0.50000000       0.003
  -0.16666667  0.05555556  0.50000000       0.003
   0.16666667  0.05555556  0.50000000       0.003
  -0.22222222  0.05555556  0.50000000       0.003
   0.22222222  0.05555556  0.50000000       0.003
  -0.27777778  0.05555556  0.50000000       0.003
   0.27777778  0.05555556  0.50000000       0.003
  -0.33333333  0.05555556  0.50000000       0.003
   0.33333333  0.05555556  0.50000000       0.003
  -0.38888889  0.05555556  0.50000000       0.003
   0.38888889  0.05555556  0.50000000       0.003
  -0.44444444  0.05555556  0.50000000       0.003
   0.44444444  0.05555556  0.50000000       0.003
   0.50000000  0.05555556  0.50000000       0.003
   0.00000000  0.11111111  0.50000000       0.003
  -0.11111111  0.11111111  0.50000000       0.003
   0.05555556  0.11111111  0.50000000       0.003
  -0.16666667  0.11111111  0.50000000       0.003
   0.11111111  0.11111111  0.50000000       0.003
  -0.22222222  0.11111111  0.50000000       0.003
   0.16666667  0.11111111  0.50000000       0.003
  -0.27777778  0.11111111  0.50000000       0.003
   0.22222222  0.11111111  0.50000000       0.003
  -0.33333333  0.11111111  0.50000000       0.003
   0.27777778  0.11111111  0.50000000       0.003
  -0.38888889  0.11111111  0.50000000       0.003
   0.33333333  0.11111111  0.50000000       0.003
  -0.44444444  0.11111111  0.50000000       0.003
   0.38888889  0.11111111  0.50000000       0.003
   0.50000000  0.11111111  0.50000000       0.003
   0.44444444  0.11111111  0.50000000       0.003
  -0.05555556  0.11111111  0.50000000       0.003
  -0.00000000  0.16666667  0.50000000       0.003
  -0.16666667  0.16666667  0.50000000       0.003
   0.05555556  0.16666667  0.50000000       0.003
  -0.22222222  0.16666667  0.50000000       0.003
   0.11111111  0.16666667  0.50000000       0.003
  -0.27777778  0.16666667  0.50000000       0.003
   0.16666667  0.16666667  0.50000000       0.003
  -0.33333333  0.16666667  0.50000000       0.003
   0.22222222  0.16666667  0.50000000       0.003
  -0.38888889  0.16666667  0.50000000       0.003
   0.27777778  0.16666667  0.50000000       0.003
  -0.44444444  0.16666667  0.50000000       0.003
   0.33333333  0.16666667  0.50000000       0.003
   0.50000000  0.16666667  0.50000000       0.003
   0.38888889  0.16666667  0.50000000       0.003
   0.44444444  0.16666667  0.50000000       0.003
  -0.11111111  0.16666667  0.50000000       0.003
  -0.05555556  0.16666667  0.50000000       0.003
  -0.00000000  0.22222222  0.50000000       0.003
  -0.22222222  0.22222222  0.50000000       0.003
   0.05555556  0.22222222  0.50000000       0.003
  -0.27777778  0.22222222  0.50000000       0.003
   0.11111111  0.22222222  0.50000000       0.003
  -0.33333333  0.22222222  0.50000000       0.003
   0.16666667  0.22222222  0.50000000       0.003
  -0.38888889  0.22222222  0.50000000       0.003
   0.22222222  0.22222222  0.50000000       0.003
  -0.44444444  0.22222222  0.50000000       0.003
   0.27777778  0.22222222  0.50000000       0.003
   0.50000000  0.22222222  0.50000000       0.003
   0.33333333  0.22222222  0.50000000       0.003
   0.44444444  0.22222222  0.50000000       0.003
   0.38888889  0.22222222  0.50000000       0.003
  -0.16666667  0.22222222  0.50000000       0.003
  -0.05555556  0.22222222  0.50000000       0.003
  -0.11111111  0.22222222  0.50000000       0.003
   0.00000000  0.27777778  0.50000000       0.003
  -0.27777778  0.27777778  0.50000000       0.003
   0.05555556  0.27777778  0.50000000       0.003
  -0.33333333  0.27777778  0.50000000       0.003
   0.11111111  0.27777778  0.50000000       0.003
  -0.38888889  0.27777778  0.50000000       0.003
   0.16666667  0.27777778  0.50000000       0.003
  -0.44444444  0.27777778  0.50000000       0.003
   0.22222222  0.27777778  0.50000000       0.003
   0.50000000  0.27777778  0.50000000       0.003
   0.27777778  0.27777778  0.50000000       0.003
   0.44444444  0.27777778  0.50000000       0.003
   0.33333333  0.27777778  0.50000000       0.003
   0.38888889  0.27777778  0.50000000       0.003
  -0.22222222  0.27777778  0.50000000       0.003
  -0.05555556  0.27777778  0.50000000       0.003
  -0.16666667  0.27777778  0.50000000       0.003
  -0.11111111  0.27777778  0.50000000       0.003
   0.00000000  0.33333333  0.50000000       0.003
  -0.33333333  0.33333333  0.50000000       0.003
   0.05555556  0.33333333  0.50000000       0.003
  -0.38888889  0.33333333  0.50000000       0.003
   0.11111111  0.33333333  0.50000000       0.003
  -0.44444444  0.33333333  0.50000000       0.003
[...]
     11       7.7424      0.00000
     12       7.7424      0.00000

 k-point   305 :       0.1111    0.4444    0.5000
  band No.  band energies     occupation 
      1     -14.0444      2.00000
      2     -14.0444      2.00000
      3     -13.0034      2.00000
      4     -13.0034      2.00000
      5      -7.2654      2.00000
      6      -7.2654      2.00000
      7      -2.0563      2.00000
      8      -2.0563      2.00000
      9       1.6348      0.00000
     10       1.6348      0.00000
     11       8.6415      0.00000
     12       8.6415      0.00000

 k-point   306 :       0.4444    0.4444    0.5000
  band No.  band energies     occupation 
      1     -14.0444      2.00000
      2     -14.0444      2.00000
      3     -13.0035      2.00000
      4     -13.0035      2.00000
      5      -7.2652      2.00000
      6      -7.2652      2.00000
      7      -2.0563      2.00000
      8      -2.0563      2.00000
      9       1.6347      0.00000
     10       1.6347      0.00000
     11       8.6418      0.00000
     12       8.6418      0.00000

 k-point   307 :       0.1667    0.4444    0.5000
  band No.  band energies     occupation 
      1     -14.0710      2.00000
      2     -14.0710      2.00000
      3     -12.5043      2.00000
      4     -12.5043      2.00000
      5      -8.1627      2.00000
      6      -8.1627      2.00000
      7      -1.8535      2.00000
      8      -1.8535      2.00000
      9       1.6348      0.00000
     10       1.6348      0.00000
     11       9.9623      0.00000
     12       9.9623      0.00000

 k-point   308 :       0.3889    0.4444    0.5000
  band No.  band energies     occupation 
      1     -14.0710      2.00000
      2     -14.0710      2.00000
      3     -12.5044      2.00000
      4     -12.5044      2.00000
      5      -8.1626      2.00000
      6      -8.1626      2.00000
      7      -1.8535      2.00000
      8      -1.8535      2.00000
      9       1.6347      0.00000
     10       1.6347      0.00000
     11       9.9625      0.00000
     12       9.9625      0.00000

 k-point   309 :       0.2222    0.4444    0.5000
  band No.  band energies     occupation 
      1     -14.2063      2.00000
      2     -14.2063      2.00000
      3     -11.7400      2.00000
      4     -11.7400      2.00000
      5      -9.0949      2.00000
      6      -9.0949      2.00000
      7      -1.7625      2.00000
      8      -1.7625      2.00000
      9       1.7442      0.00000
     10       1.7442      0.00000
     11      10.4189      0.00000
     12      10.4191      0.00000

 k-point   310 :       0.3333    0.4444    0.5000
  band No.  band energies     occupation 
      1     -14.2063      2.00000
      2     -14.2063      2.00000
      3     -11.7401      2.00000
      4     -11.7401      2.00000
      5      -9.0948      2.00000
      6      -9.0948      2.00000
      7      -1.7624      2.00000
      8      -1.7624      2.00000
      9       1.7442      0.00000
     10       1.7442      0.00000
     11      10.4190      0.00000
     12      10.4191      0.00000

 k-point   311 :       0.2778    0.4444    0.5000
  band No.  band energies     occupation 
      1     -14.2605      2.00000
      2     -14.2605      2.00000
      3     -11.2588      2.00000
      4     -11.2588      2.00000
      5      -9.6308      2.00000
      6      -9.6308      2.00000
      7      -1.7398      2.00000
      8      -1.7398      2.00000
      9       1.8066      0.00000
     10       1.8066      0.00000
     11      10.2924      0.00000
     12      10.2926      0.00000

 k-point   312 :      -0.3889    0.4444    0.5000
  band No.  band energies     occupation 
      1     -15.4411      2.00000
      2     -15.4411      2.00000
      3     -11.6447      2.00000
      4     -11.6447      2.00000
      5      -6.4461      2.00000
      6      -6.4461      2.00000
      7      -3.1021      2.00000
      8      -3.1021      2.00000
      9       2.7890      0.00000
     10       2.7890      0.00000
     11       7.8109      0.00000
     12       7.8109      0.00000

 k-point   313 :      -0.0556    0.4444    0.5000
  band No.  band energies     occupation 
      1     -15.4410      2.00000
      2     -15.4410      2.00000
      3     -11.6446      2.00000
      4     -11.6446      2.00000
      5      -6.4462      2.00000
      6      -6.4462      2.00000
      7      -3.1021      2.00000
      8      -3.1021      2.00000
      9       2.7891      0.00000
     10       2.7891      0.00000
     11       7.8107      0.00000
     12       7.8107      0.00000

 k-point   314 :      -0.3333    0.4444    0.5000
  band No.  band energies     occupation 
      1     -15.7785      2.00000
      2     -15.7785      2.00000
      3     -10.8695      2.00000
      4     -10.8695      2.00000
      5      -6.9661      2.00000
      6      -6.9661      2.00000
      7      -3.3876      2.00000
      8      -3.3876      2.00000
      9       3.3522      0.00000
     10       3.3522      0.00000
     11       8.2412      0.00000
     12       8.2414      0.00000

 k-point   315 :      -0.1111    0.4444    0.5000
  band No.  band energies     occupation 
      1     -15.7785      2.00000
      2     -15.7785      2.00000
      3     -10.8694      2.00000
      4     -10.8694      2.00000
      5      -6.9662      2.00000
      6      -6.9662      2.00000
      7      -3.3876      2.00000
      8      -3.3876      2.00000
      9       3.3523      0.00000
     10       3.3523      0.00000
     11       8.2412      0.00000
     12       8.2414      0.00000

 k-point   316 :      -0.2778    0.4444    0.5000
  band No.  band energies     occupation 
      1     -15.9843      2.00000
      2     -15.9843      2.00000
      3     -10.0838      2.00000
      4     -10.0838      2.00000
      5      -7.6617      2.00000
      6      -7.6617      2.00000
      7      -3.5699      2.00000
      8      -3.5699      2.00000
      9       3.8005      0.00000
     10       3.8005      0.00000
     11       7.9524      0.00000
     12       7.9525      0.00000

 k-point   317 :      -0.1667    0.4444    0.5000
  band No.  band energies     occupation 
      1     -15.9843      2.00000
      2     -15.9843      2.00000
      3     -10.0837      2.00000
      4     -10.0837      2.00000
      5      -7.6618      2.00000
      6      -7.6618      2.00000
      7      -3.5699      2.00000
      8      -3.5699      2.00000
      9       3.8005      0.00000
     10       3.8005      0.00000
     11       7.9524      0.00000
     12       7.9526      0.00000

 k-point   318 :      -0.2222    0.4444    0.5000
  band No.  band energies     occupation 
      1     -16.0534      2.00000
      2     -16.0534      2.00000
      3      -9.6302      2.00000
      4      -9.6302      2.00000
      5      -8.0964      2.00000
      6      -8.0964      2.00000
      7      -3.6324      2.00000
      8      -3.6324      2.00000
      9       3.9761      0.00000
     10       3.9761      0.00000
     11       7.8516      0.00000
     12       7.8518      0.00000

 k-point   319 :       0.0000    0.5000    0.5000
  band No.  band energies     occupation 
      1     -14.2321      2.00000
      2     -14.2321      2.00000
      3     -13.1858      2.00000
      4     -13.1858      2.00000
      5      -6.3681      2.00000
      6      -6.3681      2.00000
      7      -2.3221      2.00000
      8      -2.3221      2.00000
      9       1.7143      0.00000
     10       1.7143      0.00000
     11       7.4050      0.00000
     12       7.4050      0.00000

 k-point   320 :       0.5000    0.5000    0.5000
  band No.  band energies     occupation 
      1     -14.2321      2.00000
      2     -14.2321      2.00000
      3     -13.1859      2.00000
      4     -13.1859      2.00000
      5      -6.3679      2.00000
      6      -6.3679      2.00000
      7      -2.3221      2.00000
      8      -2.3221      2.00000
      9       1.7141      0.00000
     10       1.7141      0.00000
     11       7.4052      0.00000
     12       7.4052      0.00000

 k-point   321 :       0.0556    0.5000    0.5000
  band No.  band energies     occupation 
      1     -14.4528      2.00000
      2     -14.4528      2.00000
      3     -12.8451      2.00000
      4     -12.8451      2.00000
      5      -6.5913      2.00000
      6      -6.5913      2.00000
      7      -2.3731      2.00000
      8      -2.3731      2.00000
      9       1.8428      0.00000
     10       1.8428      0.00000
     11       7.7421      0.00000
     12       7.7421      0.00000

 k-point   322 :       0.4444    0.5000    0.5000
  band No.  band energies     occupation 
      1     -14.4528      2.00000
      2     -14.4528      2.00000
      3     -12.8452      2.00000
      4     -12.8452      2.00000
      5      -6.5912      2.00000
      6      -6.5912      2.00000
      7      -2.3731      2.00000
      8      -2.3731      2.00000
      9       1.8427      0.00000
     10       1.8427      0.00000
     11       7.7424      0.00000
     12       7.7424      0.00000

 k-point   323 :       0.1111    0.5000    0.5000
  band No.  band energies     occupation 
      1     -14.7883      2.00000
      2     -14.7883      2.00000
      3     -12.1579      2.00000
      4     -12.1579      2.00000
      5      -7.1903      2.00000
      6      -7.1903      2.00000
      7      -2.4927      2.00000
      8      -2.4927      2.00000
      9       2.1700      0.00000
     10       2.1700      0.00000
     11       8.6757      0.00000
     12       8.6757      0.00000

 k-point   324 :       0.3889    0.5000    0.5000
  band No.  band energies     occupation 
      1     -14.7884      2.00000
      2     -14.7883      2.00000
      3     -12.1580      2.00000
      4     -12.1580      2.00000
      5      -7.1901      2.00000
      6      -7.1901      2.00000
      7      -2.4927      2.00000
      8      -2.4927      2.00000
      9       2.1699      0.00000
     10       2.1699      0.00000
     11       8.6760      0.00000
     12       8.6760      0.00000

 k-point   325 :       0.1667    0.5000    0.5000
  band No.  band energies     occupation 
      1     -15.0407      2.00000
      2     -15.0407      2.00000
      3     -11.3570      2.00000
      4     -11.3570      2.00000
      5      -7.9983      2.00000
      6      -7.9983      2.00000
      7      -2.6154      2.00000
      8      -2.6154      2.00000
      9       2.5520      0.00000
     10       2.5520      0.00000
     11       9.2889      0.00000
     12       9.2890      0.00000

 k-point   326 :       0.3333    0.5000    0.5000
  band No.  band energies     occupation 
      1     -15.0407      2.00000
      2     -15.0407      2.00000
      3     -11.3571      2.00000
      4     -11.3571      2.00000
      5      -7.9982      2.00000
      6      -7.9982      2.00000
      7      -2.6154      2.00000
      8      -2.6154      2.00000
      9       2.5519      0.00000
     10       2.5519      0.00000
     11       9.2889      0.00000
     12       9.2890      0.00000

 k-point   327 :       0.2222    0.5000    0.5000
  band No.  band energies     occupation 
      1     -15.1716      2.00000
      2     -15.1716      2.00000
      3     -10.6293      2.00000
      4     -10.6293      2.00000
      5      -8.7542      2.00000
      6      -8.7542      2.00000
      7      -2.6893      2.00000
      8      -2.6893      2.00000
      9       2.8117      0.00000
     10       2.8117      0.00000
     11       9.0876      0.00000
     12       9.0878      0.00000

 k-point   328 :       0.2778    0.5000    0.5000
  band No.  band energies     occupation 
      1     -15.1716      2.00000
      2     -15.1716      2.00000
      3     -10.6294      2.00000
      4     -10.6294      2.00000
      5      -8.7541      2.00000
      6      -8.7541      2.00000
      7      -2.6893      2.00000
      8      -2.6893      2.00000
      9       2.8116      0.00000
     10       2.8116      0.00000
     11       9.0876      0.00000
     12       9.0878      0.00000


--------------------------------------------------------------------------------------------------------


 soft charge-density along one line, spin component           1
         0         1         2         3         4         5         6         7         8         9
 total charge-density along one line
 
 pseudopotential strength for first ion, spin component:           1
 10.049  13.360   0.000   0.000   0.000  -0.000  -0.000  -0.000
 13.360  17.760   0.000   0.000   0.000  -0.000  -0.000  -0.000
  0.000   0.000  -4.198  -0.000  -0.000   8.213   0.000   0.000
  0.000   0.000  -0.000  -4.191  -0.000   0.000   8.203   0.000
  0.000   0.000  -0.000  -0.000  -4.198   0.000   0.000   8.213
 -0.000  -0.000   8.213   0.000   0.000 -18.193  -0.000  -0.000
 -0.000  -0.000   0.000   8.203   0.000  -0.000 -18.184  -0.000
 -0.000  -0.000   0.000   0.000   8.213  -0.000  -0.000 -18.193
 total augmentation occupancy for first ion, spin component:           1
  8.035  -3.554  -0.000   0.000  -0.000  -0.000   0.000  -0.000
 -3.554   1.630   0.000  -0.000   0.000   0.000  -0.000   0.000
 -0.000   0.000   1.813  -0.000  -0.000   0.166  -0.000   0.000
  0.000  -0.000  -0.000   1.190  -0.000  -0.000   0.070  -0.000
 -0.000   0.000  -0.000  -0.000   1.813   0.000  -0.000   0.166
 -0.000   0.000   0.166  -0.000   0.000   0.017  -0.000   0.000
  0.000  -0.000  -0.000   0.070  -0.000  -0.000   0.005  -0.000
 -0.000   0.000   0.000  -0.000   0.166   0.000  -0.000   0.017


------------------------ aborting loop because EDIFF is reached ----------------------------------------


    CHARGE:  cpu time      0.0858: real time      0.0860
    FORLOC:  cpu time      0.0009: real time      0.0009
    FORNL :  cpu time      0.1506: real time      0.1509
    STRESS:  cpu time      0.4668: real time      0.4682
    FORCOR:  cpu time      0.0065: real time      0.0065
    FORHAR:  cpu time      0.0015: real time      0.0016
    MIXING:  cpu time      0.0008: real time      0.0008
    OFIELD:  cpu time      0.0001: real time      0.0001

 ---------------------------------------------------------------------------------------------

         DFTD3 V3.0 Rev 1        
 IVDW         = 12
 DF pbe       
 parameters
 VDW_S6       =    1.0000
 VDW_S8       =    0.7875
 VDW_A1       =    0.4289
 VDW_A2       =    4.4407
 k1-k3        =   16.0000    1.3333   -4.0000
 VDW_RADIUS   =   50.2022 A
 VDW_CNRADIUS =   21.1671 A
 Edisp (eV)   -0.37059

 E6    (eV) :    -0.2585
 E8    (eV) :    -0.1121
 % E8        : 30.24
    FORVDW:  cpu time      0.1445: real time      0.1448

  FORCE on cell =-STRESS in cart. coord.  units (eV):
  Direction    XX          YY          ZZ          XY          YZ          ZX
  --------------------------------------------------------------------------------------
  Alpha Z    17.81855    17.81855    17.81855
  Ewald     744.56871   744.56244 -1282.19184    -0.00055    -0.00003    -0.00004
  Hartree   734.39970   734.39949  -711.74839    -0.00055    -0.00002    -0.00003
  E(xc)     -59.40941   -59.40947   -61.63616     0.00002    -0.00000    -0.00000
  Local   -1661.45253 -1661.44745  1777.41597     0.00114     0.00005     0.00007
  n-local   -14.25394   -14.25479   -13.00094     0.00055    -0.00000    -0.00000
  augment    -1.55719    -1.55713    -1.43548     0.00001    -0.00000    -0.00000
  Kinetic   240.06561   240.07203   274.75712    -0.00352     0.00000     0.00000
  Fock        0.00000     0.00000     0.00000     0.00000     0.00000     0.00000
  vdW        -0.08897    -0.08893    -0.06826    -0.00003     0.00000     0.00000
  -------------------------------------------------------------------------------------
  Total       0.09053     0.09475    -0.08945    -0.00292    -0.00000    -0.00000
  in kB       1.96640     2.05797    -1.94284    -0.06345    -0.00000    -0.00000
  external pressure =        0.69 kB  Pullay stress =        0.00 kB


 VOLUME and BASIS-vectors are now :
 -----------------------------------------------------------------------------
  energy-cutoff  :      520.00
  volume of cell :       73.76
      direct lattice vectors                 reciprocal lattice vectors
     2.466580556 -0.000243583 -0.000000049     0.405442669  0.234020469  0.000000003
    -1.233001436  2.136186615 -0.000000006     0.000046231  0.468150580  0.000000004
    -0.000000044 -0.000000106 14.000000000     0.000000001  0.000000001  0.071428571

  length of vectors
     2.466580568  2.466492610 14.000000000     0.468133888  0.468150582  0.071428571


 FORCES acting on ions
    electron-ion (+dipol)            ewald-force                    non-local-force                 convergence-correction
 -----------------------------------------------------------------------------------------------
   -.653E-02 -.303E-02 0.182E-02   0.625E-02 0.308E-02 -.206E-02   -.136E-03 -.228E-03 0.598E-11   -.640E-05 0.373E-05 -.194E-04
   0.641E-02 0.401E-02 -.413E-02   -.625E-02 -.308E-02 0.232E-02   0.133E-03 0.226E-03 -.590E-11   0.875E-05 -.322E-05 -.194E-04
   -.655E-02 -.299E-02 0.399E-03   0.622E-02 0.311E-02 -.217E-02   -.133E-03 -.226E-03 0.590E-11   -.875E-05 0.322E-05 0.232E-04
   0.643E-02 0.397E-02 -.515E-02   -.622E-02 -.311E-02 0.191E-02   0.136E-03 0.228E-03 -.598E-11   0.640E-05 -.373E-05 0.232E-04
 -----------------------------------------------------------------------------------------------
   -.237E-03 0.196E-02 -.707E-02   -.135E-14 0.483E-14 0.651E-18   0.000E+00 0.000E+00 0.847E-21   0.117E-09 -.324E-08 0.770E-05
 
 
 POSITION                                       TOTAL-FORCE (eV/Angst)
 -----------------------------------------------------------------------------------
     -0.94030      2.13243     14.00000        -0.000394     -0.000630      0.000000
      1.52608      0.70813      0.00000         0.000390      0.000628     -0.000000
      0.32289      1.42776      7.00000        -0.000390     -0.000628      0.000000
      0.32269      0.00370      7.00000         0.000394      0.000630     -0.000000
 -----------------------------------------------------------------------------------
    total drift:                               -0.000237      0.001964     -0.007057


--------------------------------------------------------------------------------------------------------



  FREE ENERGIE OF THE ION-ELECTRON SYSTEM (eV)
  ---------------------------------------------------
  free  energy   TOTEN  =       -37.26418251 eV

  energy  without entropy=      -37.26348603  energy(sigma->0) =      -37.26383427
 


--------------------------------------------------------------------------------------------------------


    POTLOK:  cpu time      0.0400: real time      0.0401


--------------------------------------------------------------------------------------------------------


     LOOP+:  cpu time     34.4553: real time     34.5689
    4ORBIT:  cpu time      0.0000: real time      0.0000

 total amount of memory used by VASP MPI-rank0    40750. kBytes
=======================================================================

   base      :      30000. kBytes
   nonl-proj :       3116. kBytes
   fftplans  :       1812. kBytes
   grid      :        907. kBytes
   one-center:          3. kBytes
   wavefun   :       4912. kBytes
 
  
  
 General timing and accounting informations for this job:
 ========================================================
  
                  Total CPU time used (sec):       36.813
                            User time (sec):       36.011
                          System time (sec):        0.803
                         Elapsed time (sec):       38.510
  
                   Maximum memory used (kb):       67752.
                   Average memory used (kb):          N/A
  
                          Minor page faults:        40875
                          Major page faults:            0
                 Voluntary context switches:         3670
