Title Card Required                                                     
FOpt      UM062X                                                      6-311+G(d,p)        
Number of atoms                            I                6
Info1-9                                    I   N=           9
          15          15           0           0           0         110
           2          18        -502
Full Title                                 C   N=           2
Title Card Required     
Route                                      C   N=           5
#p opt UM062X/6-311+G** nosymm int=superfine SCF=NoVarAcc   
Charge                                     I                1
Multiplicity                               I                2
Number of electrons                        I               15
Number of alpha electrons                  I                8
Number of beta electrons                   I                7
Number of basis functions                  I               68
Number of independent functions            I               68
Number of point charges in /Mol/           I                0
Number of translation vectors              I                0
Atomic numbers                             I   N=           6
           6           6           1           1           1           1
Nuclear charges                            R   N=           6
  6.00000000E+00  6.00000000E+00  1.00000000E+00  1.00000000E+00  1.00000000E+00
  1.00000000E+00
Current cartesian coordinates              R   N=          18
 -2.23181758E+00  0.00000000E+00  0.00000000E+00  2.23181758E+00  0.00000000E+00
  0.00000000E+00 -3.03114050E+00 -1.88869262E+00 -1.56994864E-10 -3.03113920E+00
  1.88869279E+00  4.09262100E-11  3.03114057E+00  1.88869265E+00  8.57655933E-10
  3.03113927E+00 -1.88869282E+00  1.05561934E-09
Number of symbols in /Mol/                 I                0
Force Field                                I                0
Atom Types                                 C   N=           6
                                                            
            
Int Atom Types                             I   N=           6
           0           0           0           0           0           0
MM charges                                 R   N=           6
  0.00000000E+00  0.00000000E+00  0.00000000E+00  0.00000000E+00  0.00000000E+00
  0.00000000E+00
Integer atomic weights                     I   N=           6
          12          12           1           1           1           1
Real atomic weights                        R   N=           6
  1.20000000E+01  1.20000000E+01  1.00782504E+00  1.00782504E+00  1.00782504E+00
  1.00782504E+00
Atom fragment info                         I   N=           6
           0           0           0           0           0           0
Atom residue num                           I   N=           6
           0           0           0           0           0           0
Nuclear spins                              I   N=           6
           0           0           1           1           1           1
Nuclear ZEff                               R   N=           6
 -3.60000000E+00 -3.60000000E+00 -1.00000000E+00 -1.00000000E+00 -1.00000000E+00
 -1.00000000E+00
Nuclear ZNuc                               R   N=           6
  6.00000000E+00  6.00000000E+00  1.00000000E+00  1.00000000E+00  1.00000000E+00
  1.00000000E+00
Nuclear QMom                               R   N=           6
  0.00000000E+00  0.00000000E+00  0.00000000E+00  0.00000000E+00  0.00000000E+00
  0.00000000E+00
Nuclear GFac                               R   N=           6
  0.00000000E+00  0.00000000E+00  2.79284600E+00  2.79284600E+00  2.79284600E+00
  2.79284600E+00
MicOpt                                     I   N=           6
          -2          -2          -1          -1          -1          -1
Number of residues                         I                0
Number of secondary structures             I                0
Redundant internal dimensions              I   N=           4
          20          10           6           4
Redundant internal coordinate indices      I   N=          80
           1          -1           0           0           1          -2
           0           0           1          -3           0           0
           2          -1           0           0           2          -2
           0           0           2          -3           0           0
           1           3           0           0           1           4
           0           0           2           5           0           0
           2           6           0           0           2           1
           3           0           2           1           4           0
           3           1           4           0           1           2
           5           0           1           2           6           0
           5           2           6           0           3           1
           2           5           3           1           2           6
           4           1           2           5           4           1
           2           6
Redundant internal coordinates             R   N=          20
 -2.23181758E+00  0.00000000E+00  0.00000000E+00  2.23181758E+00  0.00000000E+00
  0.00000000E+00  2.05087224E+00  2.05087189E+00  2.05087230E+00  2.05087195E+00
  1.97115404E+00  1.97115342E+00  2.34087785E+00  1.97115406E+00  1.97115345E+00
  2.34087780E+00  3.14159265E+00 -0.00000000E+00  0.00000000E+00  3.14159265E+00
ZRed-IntVec                                I   N=          20
          -1          -1          -1          -1          -1          -1
           0           0           0           0           0           0
           0           0           0           0           0           0
           0           0
ZRed-FPVec                                 R   N=          20
  0.00000000E+00  0.00000000E+00  0.00000000E+00  0.00000000E+00  0.00000000E+00
  0.00000000E+00  0.00000000E+00  0.00000000E+00  0.00000000E+00  0.00000000E+00
  0.00000000E+00  0.00000000E+00  0.00000000E+00  0.00000000E+00  0.00000000E+00
  0.00000000E+00  0.00000000E+00  0.00000000E+00  0.00000000E+00  0.00000000E+00
ZRed-Constraint1                           R   N=          20
 -2.23181758E+00  0.00000000E+00  0.00000000E+00  2.23181758E+00  0.00000000E+00
  0.00000000E+00  2.05067934E+00  2.05048469E+00  2.05067934E+00  2.05048469E+00
  1.98162443E+00  1.98155420E+00  2.32000667E+00  1.98162443E+00  1.98155420E+00
  2.32000667E+00  3.14159265E+00  0.00000000E+00  0.00000000E+00  3.14159265E+00
ZRed-Constraint2                           R   N=          20
 -2.23181758E+00  0.00000000E+00  0.00000000E+00  2.23181758E+00  0.00000000E+00
  0.00000000E+00  0.00000000E+00  0.00000000E+00  0.00000000E+00  0.00000000E+00
  0.00000000E+00  0.00000000E+00  0.00000000E+00  0.00000000E+00  0.00000000E+00
  0.00000000E+00  0.00000000E+00  0.00000000E+00  0.00000000E+00  0.00000000E+00
Number of contracted shells                I               28
Number of primitive shells                 I               50
Pure/Cartesian d shells                    I                0
Pure/Cartesian f shells                    I                0
Highest angular momentum                   I                2
Largest degree of contraction              I                6
Shell types                                I   N=          28
           0          -1          -1          -1          -1          -2
           0          -1          -1          -1          -1          -2
           0           0           0           1           0           0
           0           1           0           0           0           1
           0           0           0           1
Number of primitives per shell             I   N=          28
           6           3           1           1           1           1
           6           3           1           1           1           1
           3           1           1           1           3           1
           1           1           3           1           1           1
           3           1           1           1
Shell to atom map                          I   N=          28
           1           1           1           1           1           1
           2           2           2           2           2           2
           3           3           3           3           4           4
           4           4           5           5           5           5
           6           6           6           6
Primitive exponents                        R   N=          50
  4.56324000E+03  6.82024000E+02  1.54973000E+02  4.44553000E+01  1.30290000E+01
  1.82773000E+00  2.09642000E+01  4.80331000E+00  1.45933000E+00  4.83456000E-01
  1.45585000E-01  4.38000000E-02  6.26000000E-01  4.56324000E+03  6.82024000E+02
  1.54973000E+02  4.44553000E+01  1.30290000E+01  1.82773000E+00  2.09642000E+01
  4.80331000E+00  1.45933000E+00  4.83456000E-01  1.45585000E-01  4.38000000E-02
  6.26000000E-01  3.38650000E+01  5.09479000E+00  1.15879000E+00  3.25840000E-01
  1.02741000E-01  7.50000000E-01  3.38650000E+01  5.09479000E+00  1.15879000E+00
  3.25840000E-01  1.02741000E-01  7.50000000E-01  3.38650000E+01  5.09479000E+00
  1.15879000E+00  3.25840000E-01  1.02741000E-01  7.50000000E-01  3.38650000E+01
  5.09479000E+00  1.15879000E+00  3.25840000E-01  1.02741000E-01  7.50000000E-01
Contraction coefficients                   R   N=          50
  1.96665025E-03  1.52306019E-02  7.61269097E-02  2.60801033E-01  6.16462078E-01
  2.21006028E-01  1.14660081E-01  9.19999648E-01 -3.03068213E-03  1.00000000E+00
  1.00000000E+00  1.00000000E+00  1.00000000E+00  1.96665025E-03  1.52306019E-02
  7.61269097E-02  2.60801033E-01  6.16462078E-01  2.21006028E-01  1.14660081E-01
  9.19999648E-01 -3.03068213E-03  1.00000000E+00  1.00000000E+00  1.00000000E+00
  1.00000000E+00  2.54938145E-02  1.90373109E-01  8.52161486E-01  1.00000000E+00
  1.00000000E+00  1.00000000E+00  2.54938145E-02  1.90373109E-01  8.52161486E-01
  1.00000000E+00  1.00000000E+00  1.00000000E+00  2.54938145E-02  1.90373109E-01
  8.52161486E-01  1.00000000E+00  1.00000000E+00  1.00000000E+00  2.54938145E-02
  1.90373109E-01  8.52161486E-01  1.00000000E+00  1.00000000E+00  1.00000000E+00
P(S=P) Contraction coefficients            R   N=          50
  0.00000000E+00  0.00000000E+00  0.00000000E+00  0.00000000E+00  0.00000000E+00
  0.00000000E+00  4.02486927E-02  2.37593957E-01  8.15853851E-01  1.00000000E+00
  1.00000000E+00  1.00000000E+00  0.00000000E+00  0.00000000E+00  0.00000000E+00
  0.00000000E+00  0.00000000E+00  0.00000000E+00  0.00000000E+00  4.02486927E-02
  2.37593957E-01  8.15853851E-01  1.00000000E+00  1.00000000E+00  1.00000000E+00
  0.00000000E+00  0.00000000E+00  0.00000000E+00  0.00000000E+00  0.00000000E+00
  0.00000000E+00  0.00000000E+00  0.00000000E+00  0.00000000E+00  0.00000000E+00
  0.00000000E+00  0.00000000E+00  0.00000000E+00  0.00000000E+00  0.00000000E+00
  0.00000000E+00  0.00000000E+00  0.00000000E+00  0.00000000E+00  0.00000000E+00
  0.00000000E+00  0.00000000E+00  0.00000000E+00  0.00000000E+00  0.00000000E+00
Coordinates of each shell                  R   N=          84
 -2.23181758E+00  0.00000000E+00  0.00000000E+00 -2.23181758E+00  0.00000000E+00
  0.00000000E+00 -2.23181758E+00  0.00000000E+00  0.00000000E+00 -2.23181758E+00
  0.00000000E+00  0.00000000E+00 -2.23181758E+00  0.00000000E+00  0.00000000E+00
 -2.23181758E+00  0.00000000E+00  0.00000000E+00  2.23181758E+00  0.00000000E+00
  0.00000000E+00  2.23181758E+00  0.00000000E+00  0.00000000E+00  2.23181758E+00
  0.00000000E+00  0.00000000E+00  2.23181758E+00  0.00000000E+00  0.00000000E+00
  2.23181758E+00  0.00000000E+00  0.00000000E+00  2.23181758E+00  0.00000000E+00
  0.00000000E+00 -3.03114050E+00 -1.88869262E+00 -1.56994864E-10 -3.03114050E+00
 -1.88869262E+00 -1.56994864E-10 -3.03114050E+00 -1.88869262E+00 -1.56994864E-10
 -3.03114050E+00 -1.88869262E+00 -1.56994864E-10 -3.03113920E+00  1.88869279E+00
  4.09262100E-11 -3.03113920E+00  1.88869279E+00  4.09262100E-11 -3.03113920E+00
  1.88869279E+00  4.09262100E-11 -3.03113920E+00  1.88869279E+00  4.09262100E-11
  3.03114057E+00  1.88869265E+00  8.57655933E-10  3.03114057E+00  1.88869265E+00
  8.57655933E-10  3.03114057E+00  1.88869265E+00  8.57655933E-10  3.03114057E+00
  1.88869265E+00  8.57655933E-10  3.03113927E+00 -1.88869282E+00  1.05561934E-09
  3.03113927E+00 -1.88869282E+00  1.05561934E-09  3.03113927E+00 -1.88869282E+00
  1.05561934E-09  3.03113927E+00 -1.88869282E+00  1.05561934E-09
Num ILSW                                   I              100
ILSW                                       I   N=         100
           1           0           0           1           2           0
           0           0           0           0        4336          -1
           7           0           0           0           2           0
           0           0           0           0           1           0
           1           1           0           0           0           0
           0           0      100000           0          -1           0
           0           0           0           0           0           0
           0           0           0           1           0           0
           0 -2000000000           1           0           0           0
           0           0           4          52           0           0
           0           0          55           0           0           0
           0           0           0           6           0           1
           0           0           0           0           0           0
           0           0           0           0           0           0
           0           0           0           0           0           0
           0           0           0           0           0           0
           0           0           0           0
Num RLSW                                   I               52
RLSW                                       R   N=          52
  1.00000000E+00  1.00000000E+00  1.00000000E+00  1.00000000E+00  5.40000000E-01
  0.00000000E+00  0.00000000E+00  1.00000000E+00  0.00000000E+00  0.00000000E+00
  0.00000000E+00  0.00000000E+00  1.00000000E+00  0.00000000E+00  0.00000000E+00
  0.00000000E+00  0.00000000E+00  1.00000000E+00  0.00000000E+00  0.00000000E+00
  0.00000000E+00  0.00000000E+00  1.00000000E+00  0.00000000E+00  0.00000000E+00
  0.00000000E+00  0.00000000E+00  1.00000000E+00  0.00000000E+00  0.00000000E+00
  0.00000000E+00  0.00000000E+00  1.00000000E+00  0.00000000E+00  0.00000000E+00
  0.00000000E+00  0.00000000E+00  0.00000000E+00  1.00000000E+00  1.00000000E+00
  0.00000000E+00  1.00000000E+00  0.00000000E+00  0.00000000E+00  0.00000000E+00
  0.00000000E+00  0.00000000E+00  0.00000000E+00  0.00000000E+00  0.00000000E+00
  0.00000000E+00  0.00000000E+00
MxBond                                     I                3
NBond                                      I   N=           6
           3           3           1           1           1           1
IBond                                      I   N=          18
           2           3           4           1           5           6
           1           0           0           1           0           0
           2           0           0           2           0           0
RBond                                      R   N=          18
  1.00000000E-01  1.00000000E+00  1.00000000E+00  1.00000000E-01  1.00000000E+00
  1.00000000E+00  1.00000000E+00  0.00000000E+00  0.00000000E+00  1.00000000E+00
  0.00000000E+00  0.00000000E+00  1.00000000E+00  0.00000000E+00  0.00000000E+00
  1.00000000E+00  0.00000000E+00  0.00000000E+00
Virial Ratio                               R      2.009820168206134E+00
SCF Energy                                 R     -7.798882620009340E+01
Total Energy                               R     -7.798882620009340E+01
S**2                                       R      7.521911452757628E-01
S**2 after annihilation                    R      7.500036890409986E-01
RMS Force                                  R      7.164293814660936E-06
RMS Density                                R      2.574150687153876E-09
Job Status                                 I                1
Nuclear derivative order                   I                1
External E-field                           R   N=          35
  0.00000000E+00  0.00000000E+00  0.00000000E+00  0.00000000E+00  0.00000000E+00
  0.00000000E+00  0.00000000E+00  0.00000000E+00  0.00000000E+00  0.00000000E+00
  0.00000000E+00  0.00000000E+00  0.00000000E+00  0.00000000E+00  0.00000000E+00
  0.00000000E+00  0.00000000E+00  0.00000000E+00  0.00000000E+00  0.00000000E+00
  0.00000000E+00  0.00000000E+00  0.00000000E+00  0.00000000E+00  0.00000000E+00
  0.00000000E+00  0.00000000E+00  0.00000000E+00  0.00000000E+00  0.00000000E+00
  0.00000000E+00  0.00000000E+00  0.00000000E+00  0.00000000E+00  0.00000000E+00
IOpCl                                      I                1
IROHF                                      I                0
Alpha Orbital Energies                     R   N=          68
 -1.09238538E+01 -1.09237626E+01 -1.04377877E+00 -1.00679127E+00 -7.99919009E-01
 -7.83997821E-01 -6.19974393E-01 -5.34909069E-01 -3.81965445E-01 -3.08315701E-01
 -1.37525758E-01 -1.08630422E-01 -1.04326909E-01 -8.01887769E-02 -7.55284303E-02
 -6.89604680E-02 -4.71309901E-02 -3.75173206E-02 -3.66389362E-02  4.72612287E-03
  1.79930348E-02  9.21475709E-02  1.81298644E-01  2.22967219E-01  2.40025821E-01
  3.20322563E-01  3.83084436E-01  4.10131819E-01  4.14494067E-01  4.20674128E-01
  4.57255194E-01  4.73951478E-01  5.24566659E-01  5.60902703E-01  8.04102916E-01
  8.10369316E-01  9.04436836E-01  9.36034321E-01  1.09271293E+00  1.11843881E+00
  1.12821767E+00  1.25418894E+00  1.26000567E+00  1.40123352E+00  1.46754566E+00
  1.47056923E+00  1.54268727E+00  1.58419890E+00  1.65451982E+00  1.72204433E+00
  1.76661269E+00  1.78290848E+00  2.12744381E+00  2.24870886E+00  2.26218837E+00
  2.32758251E+00  2.37138338E+00  2.39986771E+00  2.40701136E+00  2.42177069E+00
  2.45707090E+00  2.46413403E+00  2.60592399E+00  2.80143779E+00  3.39650013E+00
  3.42665790E+00  2.34941956E+01  2.35148382E+01
Beta Orbital Energies                      R   N=          68
 -1.09213589E+01 -1.09213040E+01 -1.01489503E+00 -9.83251705E-01 -7.95526064E-01
 -7.80376533E-01 -6.02836161E-01 -3.35786758E-01 -2.88558149E-01 -2.86269227E-01
 -1.49038095E-01 -1.11090516E-01 -1.06138016E-01 -7.42310113E-02 -7.37430863E-02
 -7.10702008E-02 -3.90619817E-02 -3.77863769E-02 -3.23319591E-02  7.32797210E-03
  9.57506368E-03  1.01371487E-01  1.81780750E-01  2.26507669E-01  2.44882062E-01
  3.34912246E-01  3.73988359E-01  4.07673165E-01  4.18267283E-01  4.25810028E-01
  4.73257182E-01  4.86037800E-01  5.33031859E-01  5.64227959E-01  8.34731113E-01
  8.39066181E-01  9.40586642E-01  9.65147908E-01  1.11533370E+00  1.13553634E+00
  1.13900171E+00  1.28241141E+00  1.28702223E+00  1.43737227E+00  1.48229891E+00
  1.48484352E+00  1.55474956E+00  1.59533292E+00  1.66660959E+00  1.73215233E+00
  1.78233024E+00  1.79809337E+00  2.16328114E+00  2.28289382E+00  2.28376829E+00
  2.34321018E+00  2.38604294E+00  2.41335991E+00  2.44291821E+00  2.46649220E+00
  2.50104066E+00  2.50524083E+00  2.63051606E+00  2.83109348E+00  3.43883329E+00
  3.46962016E+00  2.35065891E+01  2.35275329E+01
Alpha MO coefficients                      R   N=        4624
  3.98996301E-01  3.28091103E-01  5.35011695E-04 -2.96534218E-10 -3.74143461E-13
  7.78475138E-03 -1.36878607E-03  2.39067468E-09 -9.57336942E-14 -1.83331394E-03
  1.79444539E-04  5.77606307E-10  7.45982093E-14 -5.44553491E-04  2.42813178E-04
 -2.05768565E-10  7.79668616E-14 -8.77802919E-04 -1.22802961E-13  1.10053830E-13
 -1.04577362E-03  7.67020233E-11  3.99038063E-01  3.28125442E-01 -5.35070886E-04
  2.96568690E-10 -3.85862253E-13  7.78558764E-03  1.36894464E-03 -2.39102695E-09
  1.81605590E-12 -1.83360758E-03 -1.79421372E-04 -5.77522047E-10 -1.31262939E-13
 -5.44520314E-04 -2.42887788E-04  2.05835482E-10 -3.87270763E-13 -8.77884167E-04
  3.56152290E-13 -1.36534269E-13 -1.04589688E-03  7.66858026E-11  1.20521461E-04
 -2.28057523E-03  1.46124354E-03 -6.49283298E-04 -1.31614091E-03 -1.64851269E-13
  1.20521104E-04 -2.28057866E-03  1.46124449E-03 -6.49283144E-04  1.31614268E-03
  4.53525983E-14  1.20530703E-04 -2.28080034E-03  1.46141008E-03  6.49345101E-04
  1.31627822E-03  7.10917073E-13  1.20530346E-04 -2.28080376E-03  1.46141102E-03
  6.49344946E-04 -1.31627999E-03  8.48948972E-13  3.99049311E-01  3.28124329E-01
  5.66599999E-04 -2.85258664E-10 -3.59033701E-13  7.99538598E-03 -1.51751534E-03
  2.30439381E-09 -1.91634243E-13 -2.80250244E-03 -2.19567377E-04 -5.53069263E-10
  2.45841513E-13  3.08841070E-04  7.10244927E-04 -3.95575618E-10 -2.10769217E-13
 -7.78274735E-04 -1.09211097E-13  1.03221611E-13 -1.18007891E-03  9.74960386E-11
 -3.99007550E-01 -3.28089989E-01  5.66543899E-04 -2.85233833E-10  3.96332604E-13
 -7.99457067E-03 -1.51737187E-03  2.30425913E-09 -1.85083588E-12  2.80231066E-03
 -2.19586185E-04 -5.53172145E-10  2.93298659E-13 -3.08898193E-04  7.10219537E-04
 -3.95609387E-10  4.40035272E-13  7.78182699E-04 -3.58738102E-13  1.29673949E-13
  1.17996923E-03 -9.74609004E-11  8.75670163E-05 -2.15547593E-03  1.59397046E-03
 -5.91434640E-04 -1.31405956E-03 -1.74346907E-13  8.75665197E-05 -2.15547824E-03
  1.59397261E-03 -5.91434282E-04  1.31406120E-03  3.49740964E-14 -8.75544906E-05
  2.15523687E-03 -1.59381735E-03 -5.91366615E-04 -1.31392162E-03 -7.16203351E-13
 -8.75539940E-05  2.15523918E-03 -1.59381950E-03 -5.91366258E-04  1.31392325E-03
 -8.52572048E-13 -8.04538864E-02 -1.31040734E-01 -1.44678065E-02  2.84205656E-08
  2.11113403E-12  3.65483842E-01 -1.89018005E-02  3.31521656E-08 -2.34938739E-12
  2.47212812E-01  1.49576001E-03  1.18571356E-08  2.44765429E-12  7.21888768E-04
 -4.17088310E-03 -1.44577518E-09 -2.80394126E-12 -4.59331047E-03 -4.22666084E-12
  6.67227423E-13 -4.55864199E-03  2.47801094E-09 -8.04538720E-02 -1.31040710E-01
  1.44678005E-02 -2.84220472E-08  2.05562078E-11  3.65483777E-01  1.89017921E-02
 -3.31538879E-08  3.18835241E-11  2.47212770E-01 -1.49576154E-03 -1.18578350E-08
  1.24782787E-11  7.21888137E-04  4.17088313E-03  1.44572206E-09  5.09100264E-12
 -4.59330817E-03 -2.95656321E-12 -7.18814541E-13 -4.55863949E-03  2.47792933E-09
  7.15871274E-02  7.95607734E-02 -6.10979635E-03  4.14081465E-03  1.18034717E-02
  5.29342848E-13  7.15871665E-02  7.95608009E-02 -6.10979666E-03  4.14080895E-03
 -1.18034778E-02 -6.11837451E-13  7.15871112E-02  7.95607583E-02 -6.10979511E-03
 -4.14081469E-03 -1.18034698E-02 -3.59877946E-12  7.15871502E-02  7.95607858E-02
 -6.10979542E-03 -4.14080899E-03  1.18034759E-02 -4.93804515E-12 -7.96163140E-02
 -1.29986240E-01 -3.85823662E-02  3.43472928E-08 -2.32495213E-12  3.65899800E-01
 -5.85995571E-02  4.15540637E-08 -8.01603782E-12  2.48955263E-01 -1.72221116E-02
  1.94217494E-08 -1.47621242E-12 -1.87592063E-02 -9.93424242E-03  1.12024259E-09
  2.05525918E-13 -4.32548062E-03 -3.89973999E-12  9.01647818E-13 -9.90560453E-03
  3.71650757E-09  7.96163280E-02  1.29986263E-01 -3.85823695E-02  3.43490527E-08
 -2.84001367E-11 -3.65899866E-01 -5.85995621E-02  4.15561565E-08 -4.38106782E-11
 -2.48955310E-01 -1.72221123E-02  1.94225283E-08 -1.66466121E-11  1.87592064E-02
 -9.93424367E-03  1.12032884E-09 -2.91289359E-12  4.32547999E-03  1.23403684E-12
  8.83878943E-13  9.90560437E-03 -3.71636461E-09  7.93661566E-02  9.05009283E-02
 -3.34499411E-03  3.12820089E-03  1.24944271E-02  2.18953709E-13  7.93661949E-02
  9.05009550E-02 -3.34500030E-03  3.12819452E-03 -1.24944324E-02 -1.08980356E-12
 -7.93661673E-02 -9.05009436E-02  3.34499475E-03  3.12820231E-03  1.24944296E-02
  3.59428985E-12 -7.93662056E-02 -9.05009703E-02  3.34500094E-03  3.12819594E-03
 -1.24944349E-02  4.82078059E-12  8.94148238E-09  1.51900209E-08  3.91746338E-08
  1.60422042E-01  7.35592228E-12 -4.60964108E-08  5.81239550E-08  2.29806411E-01
  1.05399838E-11 -5.53144126E-08  3.34326257E-08  1.31655982E-01  5.66302108E-12
  2.68102079E-08  1.43756564E-08  3.39701307E-03 -8.58656464E-14 -9.01420265E-10
 -7.42563367E-13 -1.73806147E-12 -9.97353523E-09 -1.23607423E-02 -8.94204188E-09
 -1.51909712E-08  3.91743323E-08  1.60421927E-01 -7.37821192E-12  4.60992757E-08
  5.81236822E-08  2.29806253E-01 -1.03756120E-11  5.53180584E-08  3.34324592E-08
  1.31655893E-01 -5.83236547E-12 -2.68101014E-08  1.43757443E-08  3.39700563E-03
 -1.36171612E-13  9.01471921E-10 -7.56568396E-13  1.63611189E-11  9.97370069E-09
  1.23607327E-02 -1.05221398E-01 -1.39004697E-01 -1.08217139E-02 -7.65338361E-03
 -1.10353371E-02 -1.03134891E-12  1.05221395E-01  1.39004672E-01  1.08217079E-02
  7.65337492E-03 -1.10353370E-02 -1.39538246E-13  1.05221321E-01  1.39004598E-01
  1.08217099E-02 -7.65337831E-03 -1.10353286E-02 -7.60482853E-12 -1.05221318E-01
 -1.39004573E-01 -1.08217039E-02  7.65336962E-03 -1.10353285E-02  8.90998668E-12
  8.80422836E-09  1.51228004E-08  5.18453716E-08  1.63445005E-01  8.73624895E-12
 -4.74420874E-08  7.78143859E-08  2.32040292E-01  1.22837142E-11 -5.96821751E-08
  4.76223081E-08  1.35855140E-01  8.04349049E-12 -4.69813719E-09  4.74968667E-09
  1.09485119E-02 -6.16567662E-13 -9.86381855E-10 -6.15445189E-13 -2.30444381E-12
 -7.97127640E-09 -1.63763504E-02  8.80485257E-09  1.51238615E-08 -5.18457721E-08
 -1.63445112E-01  8.64665256E-12 -4.74453051E-08 -7.78152605E-08 -2.32040450E-01
  1.25681129E-11 -5.96861224E-08 -4.76227669E-08 -1.35855232E-01  6.89897570E-12
 -4.69766271E-09 -4.75000965E-09 -1.09485140E-02  3.28618856E-13 -9.86410323E-10
  5.98940398E-13 -1.67654380E-11 -7.97135515E-09 -1.63763604E-02 -1.08523082E-01
 -1.46530121E-01 -9.65407269E-03 -7.84396246E-03 -1.14691085E-02 -1.06276449E-12
  1.08523070E-01  1.46530083E-01  9.65407726E-03  7.84395473E-03 -1.14691090E-02
 -1.22012313E-13 -1.08523152E-01 -1.46530219E-01 -9.65408370E-03  7.84396782E-03
  1.14691154E-02  8.04404076E-12  1.08523140E-01  1.46530181E-01  9.65408827E-03
 -7.84396008E-03  1.14691160E-02 -9.06331636E-12 -1.12815300E-02 -1.85836242E-02
  1.76252563E-01 -6.66616435E-08  4.19024587E-11  4.52144814E-02  2.78351439E-01
 -9.37598256E-08  5.13718289E-11  1.24141947E-01  2.26689101E-01 -4.30152767E-08
  5.62851857E-11  4.96276899E-03 -2.29500391E-03  8.40415609E-09  2.17416182E-12
  1.17010750E-03 -6.79798096E-12 -7.73811313E-13  1.31205386E-02  3.87570440E-10
 -1.12815319E-02 -1.85836272E-02 -1.76252565E-01  6.66618159E-08 -1.28804850E-10
  4.52144899E-02 -2.78351440E-01  9.37597494E-08 -1.85022888E-10  1.24141953E-01
 -2.26689108E-01  4.30149157E-08 -1.55718765E-10  4.96277147E-03  2.29500228E-03
 -8.40418550E-09 -4.13006439E-12  1.17010861E-03 -1.04802227E-11  7.13574956E-13
  1.31205377E-02  3.87607432E-10 -4.93050930E-02 -8.23589949E-02 -2.22444765E-02
  7.10776391E-03 -8.08208186E-03  2.60810698E-12 -4.93051111E-02 -8.23590441E-02
 -2.22445139E-02  7.10776706E-03  8.08208191E-03  3.70856545E-12 -4.93050946E-02
 -8.23589981E-02 -2.22444776E-02 -7.10776328E-03  8.08208214E-03 -4.91171247E-12
 -4.93051127E-02 -8.23590473E-02 -2.22445150E-02 -7.10776643E-03 -8.08208218E-03
 -4.11849730E-12 -1.84243136E-11 -3.14915031E-11  1.12017559E-10 -1.12632473E-11
  1.91357242E-01  9.54817448E-11  1.54651851E-10 -1.45171063E-11  3.04295173E-01
  1.46145495E-10  1.70201509E-10 -2.40429329E-11  3.02359230E-01 -8.17097848E-11
 -2.83124533E-11 -1.50048080E-11  1.48288879E-02  2.86466691E-12  5.27932308E-03
  2.15550759E-09 -4.06464150E-12  1.81997565E-13  3.62638407E-11  6.24739394E-11
  7.83010341E-12  1.08363903E-11  1.91357219E-01 -2.02857484E-10 -1.13495635E-11
  1.82613202E-11  3.04295138E-01 -2.33850852E-10  2.10996780E-11  1.92569093E-11
  3.02359197E-01  1.04360991E-10 -3.78451924E-11  8.19072866E-12  1.48288874E-02
 -5.81409008E-12 -5.27932338E-03 -2.15563380E-09  1.89013112E-12  1.06900867E-12
 -2.33931958E-11 -4.31008010E-11 -2.24311709E-11  4.96700279E-12 -7.26109164E-12
  1.32497319E-02 -2.41501113E-11 -5.25456711E-11  1.52330896E-11  5.00835466E-12
  6.68881907E-12  1.32497343E-02  4.33281508E-11  6.96365871E-11 -8.79642698E-12
 -3.88023929E-12 -7.04622084E-12  1.32497296E-02  4.20295219E-11  7.01972950E-11
 -1.59827922E-12 -4.47778180E-12  9.47032551E-12  1.32497320E-02  1.08625850E-11
  1.72722683E-11 -9.63010242E-11 -9.40002243E-12  2.05737539E-01 -4.42767245E-11
 -1.68637771E-10 -1.75540326E-11  3.25180257E-01 -9.83439224E-11 -1.44445014E-10
 -1.86101775E-11  3.33814300E-01 -3.86707842E-11 -2.70257200E-11  6.15669187E-13
  4.26908805E-02 -5.02411536E-12 -1.16621162E-02  2.31244684E-09 -4.01889139E-12
  8.34717183E-13 -2.95338023E-11 -5.14043907E-11  5.63309946E-11 -9.76057307E-12
 -2.05737557E-01  1.70145729E-10  1.11549647E-10 -1.49204038E-11 -3.25180288E-01
  2.26499240E-10  1.10100778E-10 -2.63174120E-11 -3.33814332E-01  5.15383912E-11
  1.58448667E-12 -1.35139591E-11 -4.26908850E-02  5.09708694E-12 -1.16621164E-02
  2.31256668E-09  3.50984014E-13 -2.93651802E-13  1.88652601E-11  2.41254842E-11
  3.03111417E-11 -6.98887583E-12 -9.86527068E-13  1.65780086E-02  2.11613313E-11
  3.41096703E-11  3.34432520E-11 -6.40954585E-12 -2.72868081E-12  1.65780089E-02
 -4.00089839E-11 -6.67647658E-11 -3.20263167E-11  6.08125936E-12  6.24592591E-12
 -1.65780094E-02 -4.27895459E-11 -7.14460595E-11 -6.87189385E-11  6.42411727E-12
 -8.89054094E-12 -1.65780097E-02 -4.05531289E-02 -6.83330134E-02  2.03746512E-01
 -5.59156999E-08 -1.42258349E-11  2.05404491E-01  3.04340096E-01 -8.13604286E-08
 -4.18377646E-11  3.77249066E-01  3.86904713E-01 -1.17477260E-07 -4.00750584E-11
  2.13202274E-01  1.40949457E-01 -2.88907574E-08 -1.49555039E-11  1.31699517E-02
 -1.07512668E-11 -2.46671298E-13 -1.50105515E-02 -4.46171425E-09  4.05531309E-02
  6.83330165E-02  2.03746506E-01 -5.59164895E-08 -9.00135077E-11 -2.05404501E-01
  3.04340084E-01 -8.13611137E-08 -1.68836781E-10 -3.77249080E-01  3.86904702E-01