Title Card Required                                                     
FOpt      UM062X                                                      6-311+G(d,p)        
Number of atoms                            I                6
Info1-9                                    I   N=           9
          15          15           0           0           0         110
           2          18        -502
Full Title                                 C   N=           2
Title Card Required     
Route                                      C   N=           4
#p opt UM062X/6-311+G** nosymm int=superfine    
Charge                                     I                0
Multiplicity                               I                1
Number of electrons                        I               16
Number of alpha electrons                  I                8
Number of beta electrons                   I                8
Number of basis functions                  I               68
Number of independent functions            I               68
Number of point charges in /Mol/           I                0
Number of translation vectors              I                0
Atomic numbers                             I   N=           6
           6           6           1           1           1           1
Nuclear charges                            R   N=           6
  6.00000000E+00  6.00000000E+00  1.00000000E+00  1.00000000E+00  1.00000000E+00
  1.00000000E+00
Current cartesian coordinates              R   N=          18
 -1.57833463E+00  0.00000000E+00  0.00000000E+00  1.57833463E+00  0.00000000E+00
  0.00000000E+00 -2.54554929E+00 -1.79645441E+00  7.38731225E-08 -2.54558179E+00
  1.79634861E+00  5.34817627E-08  2.54554960E+00  1.79645468E+00  2.60326723E-07
  2.54558211E+00 -1.79634889E+00  2.39929274E-07
Number of symbols in /Mol/                 I                0
Force Field                                I                0
Atom Types                                 C   N=           6
                                                            
            
Int Atom Types                             I   N=           6
           0           0           0           0           0           0
MM charges                                 R   N=           6
  0.00000000E+00  0.00000000E+00  0.00000000E+00  0.00000000E+00  0.00000000E+00
  0.00000000E+00
Integer atomic weights                     I   N=           6
          12          12           1           1           1           1
Real atomic weights                        R   N=           6
  1.20000000E+01  1.20000000E+01  1.00782504E+00  1.00782504E+00  1.00782504E+00
  1.00782504E+00
Atom fragment info                         I   N=           6
           0           0           0           0           0           0
Atom residue num                           I   N=           6
           0           0           0           0           0           0
Nuclear spins                              I   N=           6
           0           0           1           1           1           1
Nuclear ZEff                               R   N=           6
 -3.60000000E+00 -3.60000000E+00 -1.00000000E+00 -1.00000000E+00 -1.00000000E+00
 -1.00000000E+00
Nuclear ZNuc                               R   N=           6
  6.00000000E+00  6.00000000E+00  1.00000000E+00  1.00000000E+00  1.00000000E+00
  1.00000000E+00
Nuclear QMom                               R   N=           6
  0.00000000E+00  0.00000000E+00  0.00000000E+00  0.00000000E+00  0.00000000E+00
  0.00000000E+00
Nuclear GFac                               R   N=           6
  0.00000000E+00  0.00000000E+00  2.79284600E+00  2.79284600E+00  2.79284600E+00
  2.79284600E+00
MicOpt                                     I   N=           6
          -2          -2          -1          -1          -1          -1
Number of residues                         I                0
Number of secondary structures             I                0
Redundant internal dimensions              I   N=           4
          20          10           6           4
Redundant internal coordinate indices      I   N=          80
           1          -1           0           0           1          -2
           0           0           1          -3           0           0
           2          -1           0           0           2          -2
           0           0           2          -3           0           0
           1           3           0           0           1           4
           0           0           2           5           0           0
           2           6           0           0           2           1
           3           0           2           1           4           0
           3           1           4           0           1           2
           5           0           1           2           6           0
           5           2           6           0           3           1
           2           5           3           1           2           6
           4           1           2           5           4           1
           2           6
Redundant internal coordinates             R   N=          20
 -1.57833463E+00  0.00000000E+00  0.00000000E+00  1.57833463E+00  0.00000000E+00
  0.00000000E+00  2.04028248E+00  2.04020474E+00  2.04028288E+00  2.04020514E+00
  2.06469154E+00  2.06473015E+00  2.15376361E+00  2.06469161E+00  2.06473023E+00
  2.15376347E+00 -3.14159247E+00 -9.30577218E-08  1.14457991E-07  3.14159249E+00
ZRed-IntVec                                I   N=          20
          -1          -1          -1          -1          -1          -1
           0           0           0           0           0           0
           0           0           0           0           0           0
           0           0
ZRed-FPVec                                 R   N=          20
  0.00000000E+00  0.00000000E+00  0.00000000E+00  0.00000000E+00  0.00000000E+00
  0.00000000E+00  0.00000000E+00  0.00000000E+00  0.00000000E+00  0.00000000E+00
  0.00000000E+00  0.00000000E+00  0.00000000E+00  0.00000000E+00  0.00000000E+00
  0.00000000E+00  0.00000000E+00  0.00000000E+00  0.00000000E+00  0.00000000E+00
ZRed-Constraint1                           R   N=          20
 -1.57833463E+00  0.00000000E+00  0.00000000E+00  1.57833463E+00  0.00000000E+00
  0.00000000E+00  2.20700556E+00  2.20875090E+00  2.20700556E+00  2.20875090E+00
  2.23253668E+00  2.22751742E+00  1.82313120E+00  2.23253668E+00  2.22751742E+00
  1.82313120E+00  3.14159265E+00  0.00000000E+00  0.00000000E+00  3.14159265E+00
ZRed-Constraint2                           R   N=          20
 -1.57833463E+00  0.00000000E+00  0.00000000E+00  1.57833463E+00  0.00000000E+00
  0.00000000E+00  0.00000000E+00  0.00000000E+00  0.00000000E+00  0.00000000E+00
  0.00000000E+00  0.00000000E+00  0.00000000E+00  0.00000000E+00  0.00000000E+00
  0.00000000E+00  0.00000000E+00  0.00000000E+00  0.00000000E+00  0.00000000E+00
Number of contracted shells                I               28
Number of primitive shells                 I               50
Pure/Cartesian d shells                    I                0
Pure/Cartesian f shells                    I                0
Highest angular momentum                   I                2
Largest degree of contraction              I                6
Shell types                                I   N=          28
           0          -1          -1          -1          -1          -2
           0          -1          -1          -1          -1          -2
           0           0           0           1           0           0
           0           1           0           0           0           1
           0           0           0           1
Number of primitives per shell             I   N=          28
           6           3           1           1           1           1
           6           3           1           1           1           1
           3           1           1           1           3           1
           1           1           3           1           1           1
           3           1           1           1
Shell to atom map                          I   N=          28
           1           1           1           1           1           1
           2           2           2           2           2           2
           3           3           3           3           4           4
           4           4           5           5           5           5
           6           6           6           6
Primitive exponents                        R   N=          50
  4.56324000E+03  6.82024000E+02  1.54973000E+02  4.44553000E+01  1.30290000E+01
  1.82773000E+00  2.09642000E+01  4.80331000E+00  1.45933000E+00  4.83456000E-01
  1.45585000E-01  4.38000000E-02  6.26000000E-01  4.56324000E+03  6.82024000E+02
  1.54973000E+02  4.44553000E+01  1.30290000E+01  1.82773000E+00  2.09642000E+01
  4.80331000E+00  1.45933000E+00  4.83456000E-01  1.45585000E-01  4.38000000E-02
  6.26000000E-01  3.38650000E+01  5.09479000E+00  1.15879000E+00  3.25840000E-01
  1.02741000E-01  7.50000000E-01  3.38650000E+01  5.09479000E+00  1.15879000E+00
  3.25840000E-01  1.02741000E-01  7.50000000E-01  3.38650000E+01  5.09479000E+00
  1.15879000E+00  3.25840000E-01  1.02741000E-01  7.50000000E-01  3.38650000E+01
  5.09479000E+00  1.15879000E+00  3.25840000E-01  1.02741000E-01  7.50000000E-01
Contraction coefficients                   R   N=          50
  1.96665025E-03  1.52306019E-02  7.61269097E-02  2.60801033E-01  6.16462078E-01
  2.21006028E-01  1.14660081E-01  9.19999648E-01 -3.03068213E-03  1.00000000E+00
  1.00000000E+00  1.00000000E+00  1.00000000E+00  1.96665025E-03  1.52306019E-02
  7.61269097E-02  2.60801033E-01  6.16462078E-01  2.21006028E-01  1.14660081E-01
  9.19999648E-01 -3.03068213E-03  1.00000000E+00  1.00000000E+00  1.00000000E+00
  1.00000000E+00  2.54938145E-02  1.90373109E-01  8.52161486E-01  1.00000000E+00
  1.00000000E+00  1.00000000E+00  2.54938145E-02  1.90373109E-01  8.52161486E-01
  1.00000000E+00  1.00000000E+00  1.00000000E+00  2.54938145E-02  1.90373109E-01
  8.52161486E-01  1.00000000E+00  1.00000000E+00  1.00000000E+00  2.54938145E-02
  1.90373109E-01  8.52161486E-01  1.00000000E+00  1.00000000E+00  1.00000000E+00
P(S=P) Contraction coefficients            R   N=          50
  0.00000000E+00  0.00000000E+00  0.00000000E+00  0.00000000E+00  0.00000000E+00
  0.00000000E+00  4.02486927E-02  2.37593957E-01  8.15853851E-01  1.00000000E+00
  1.00000000E+00  1.00000000E+00  0.00000000E+00  0.00000000E+00  0.00000000E+00
  0.00000000E+00  0.00000000E+00  0.00000000E+00  0.00000000E+00  4.02486927E-02
  2.37593957E-01  8.15853851E-01  1.00000000E+00  1.00000000E+00  1.00000000E+00
  0.00000000E+00  0.00000000E+00  0.00000000E+00  0.00000000E+00  0.00000000E+00
  0.00000000E+00  0.00000000E+00  0.00000000E+00  0.00000000E+00  0.00000000E+00
  0.00000000E+00  0.00000000E+00  0.00000000E+00  0.00000000E+00  0.00000000E+00
  0.00000000E+00  0.00000000E+00  0.00000000E+00  0.00000000E+00  0.00000000E+00
  0.00000000E+00  0.00000000E+00  0.00000000E+00  0.00000000E+00  0.00000000E+00
Coordinates of each shell                  R   N=          84
 -1.57833463E+00  0.00000000E+00  0.00000000E+00 -1.57833463E+00  0.00000000E+00
  0.00000000E+00 -1.57833463E+00  0.00000000E+00  0.00000000E+00 -1.57833463E+00
  0.00000000E+00  0.00000000E+00 -1.57833463E+00  0.00000000E+00  0.00000000E+00
 -1.57833463E+00  0.00000000E+00  0.00000000E+00  1.57833463E+00  0.00000000E+00
  0.00000000E+00  1.57833463E+00  0.00000000E+00  0.00000000E+00  1.57833463E+00
  0.00000000E+00  0.00000000E+00  1.57833463E+00  0.00000000E+00  0.00000000E+00
  1.57833463E+00  0.00000000E+00  0.00000000E+00  1.57833463E+00  0.00000000E+00
  0.00000000E+00 -2.54554929E+00 -1.79645441E+00  7.38731225E-08 -2.54554929E+00
 -1.79645441E+00  7.38731225E-08 -2.54554929E+00 -1.79645441E+00  7.38731225E-08
 -2.54554929E+00 -1.79645441E+00  7.38731225E-08 -2.54558179E+00  1.79634861E+00
  5.34817627E-08 -2.54558179E+00  1.79634861E+00  5.34817627E-08 -2.54558179E+00
  1.79634861E+00  5.34817627E-08 -2.54558179E+00  1.79634861E+00  5.34817627E-08
  2.54554960E+00  1.79645468E+00  2.60326723E-07  2.54554960E+00  1.79645468E+00
  2.60326723E-07  2.54554960E+00  1.79645468E+00  2.60326723E-07  2.54554960E+00
  1.79645468E+00  2.60326723E-07  2.54558211E+00 -1.79634889E+00  2.39929274E-07
  2.54558211E+00 -1.79634889E+00  2.39929274E-07  2.54558211E+00 -1.79634889E+00
  2.39929274E-07  2.54558211E+00 -1.79634889E+00  2.39929274E-07
Num ILSW                                   I              100
ILSW                                       I   N=         100
           1           0           0           1           2           0
           0           0           0           0        4336          -1
           7           0           0           0           2           0
           0           0           0           0           1           0
           1           1           0           0           0           0
           0           0      100000           0          -1           0
           0           0           0           0           0           0
           0           0           0           1           0           0
           0 -2000000000           1           0           0           0
           0           0           4          52           0           0
           0           0          55           0           0           0
           0           0           0           6           0           1
           0           0           0           0           0           0
           0           0           0           0           0           0
           0           0           0           0           0           0
           0           0           0           0           0           0
           0           0           0           0
Num RLSW                                   I               52
RLSW                                       R   N=          52
  1.00000000E+00  1.00000000E+00  1.00000000E+00  1.00000000E+00  5.40000000E-01
  0.00000000E+00  0.00000000E+00  1.00000000E+00  0.00000000E+00  0.00000000E+00
  0.00000000E+00  0.00000000E+00  1.00000000E+00  0.00000000E+00  0.00000000E+00
  0.00000000E+00  0.00000000E+00  1.00000000E+00  0.00000000E+00  0.00000000E+00
  0.00000000E+00  0.00000000E+00  1.00000000E+00  0.00000000E+00  0.00000000E+00
  0.00000000E+00  0.00000000E+00  1.00000000E+00  0.00000000E+00  0.00000000E+00
  0.00000000E+00  0.00000000E+00  1.00000000E+00  0.00000000E+00  0.00000000E+00
  0.00000000E+00  0.00000000E+00  0.00000000E+00  1.00000000E+00  1.00000000E+00
  0.00000000E+00  1.00000000E+00  0.00000000E+00  0.00000000E+00  0.00000000E+00
  0.00000000E+00  0.00000000E+00  0.00000000E+00  0.00000000E+00  0.00000000E+00
  0.00000000E+00  0.00000000E+00
MxBond                                     I                3
NBond                                      I   N=           6
           3           3           1           1           1           1
IBond                                      I   N=          18
           2           3           4           1           5           6
           1           0           0           1           0           0
           2           0           0           2           0           0
RBond                                      R   N=          18
  1.00000000E+00  1.00000000E+00  1.00000000E+00  1.00000000E+00  1.00000000E+00
  1.00000000E+00  1.00000000E+00  0.00000000E+00  0.00000000E+00  1.00000000E+00
  0.00000000E+00  0.00000000E+00  1.00000000E+00  0.00000000E+00  0.00000000E+00
  1.00000000E+00  0.00000000E+00  0.00000000E+00
Virial Ratio                               R      2.011360932193099E+00
SCF Energy                                 R     -7.848679118978549E+01
Total Energy                               R     -7.848679118978549E+01
S**2                                       R     -2.486899575160351E-14
S**2 after annihilation                    R      1.012523398458136E-13
RMS Force                                  R      7.037911531555188E-06
RMS Density                                R      4.337755799784259E-09
Job Status                                 I                1
Nuclear derivative order                   I                1
External E-field                           R   N=          35
  0.00000000E+00  0.00000000E+00  0.00000000E+00  0.00000000E+00  0.00000000E+00
  0.00000000E+00  0.00000000E+00  0.00000000E+00  0.00000000E+00  0.00000000E+00
  0.00000000E+00  0.00000000E+00  0.00000000E+00  0.00000000E+00  0.00000000E+00
  0.00000000E+00  0.00000000E+00  0.00000000E+00  0.00000000E+00  0.00000000E+00
  0.00000000E+00  0.00000000E+00  0.00000000E+00  0.00000000E+00  0.00000000E+00
  0.00000000E+00  0.00000000E+00  0.00000000E+00  0.00000000E+00  0.00000000E+00
  0.00000000E+00  0.00000000E+00  0.00000000E+00  0.00000000E+00  0.00000000E+00
IOpCl                                      I                1
IROHF                                      I                0
Alpha Orbital Energies                     R   N=          68
 -1.05842186E+01 -1.05839288E+01 -8.02375304E-01 -6.92535301E-01 -5.30803902E-01
 -4.67156773E-01 -4.31299878E-01 -2.88653204E-01 -2.61339207E-02  3.37410789E-02
  3.57483421E-02  5.36218916E-02  7.69050160E-02  8.53593693E-02  9.74106539E-02
  1.18697404E-01  1.57581835E-01  1.67849999E-01  1.95439706E-01  2.08587456E-01
  2.41930032E-01  2.93476539E-01  4.12831740E-01  4.44073577E-01  4.82996864E-01
  5.94667158E-01  5.97984384E-01  6.22423526E-01  6.71332004E-01  6.90341469E-01
  7.16971600E-01  7.37284619E-01  7.79253620E-01  8.42133440E-01  1.07329898E+00
  1.09801938E+00  1.12614388E+00  1.42131582E+00  1.43280990E+00  1.44309129E+00
  1.49425004E+00  1.55567348E+00  1.57915011E+00  1.58772215E+00  1.74826155E+00
  1.92045594E+00  1.92748529E+00  1.92981161E+00  1.96881602E+00  2.05161211E+00
  2.09915868E+00  2.12791662E+00  2.39151460E+00  2.52071621E+00  2.53004147E+00
  2.58099005E+00  2.63350871E+00  2.64498757E+00  2.75598457E+00  2.76938096E+00
  2.85390446E+00  2.85725990E+00  2.94357948E+00  3.73567694E+00  3.80330283E+00
  3.97302989E+00  2.38025657E+01  2.38874919E+01
Beta Orbital Energies                      R   N=          68
 -1.05842186E+01 -1.05839288E+01 -8.02375304E-01 -6.92535301E-01 -5.30803902E-01
 -4.67156773E-01 -4.31299878E-01 -2.88653204E-01 -2.61339207E-02  3.37410789E-02
  3.57483421E-02  5.36218916E-02  7.69050160E-02  8.53593693E-02  9.74106539E-02
  1.18697404E-01  1.57581835E-01  1.67849999E-01  1.95439706E-01  2.08587456E-01
  2.41930032E-01  2.93476539E-01  4.12831740E-01  4.44073577E-01  4.82996864E-01
  5.94667158E-01  5.97984384E-01  6.22423526E-01  6.71332004E-01  6.90341469E-01
  7.16971600E-01  7.37284619E-01  7.79253620E-01  8.42133440E-01  1.07329898E+00
  1.09801938E+00  1.12614388E+00  1.42131582E+00  1.43280990E+00  1.44309129E+00
  1.49425004E+00  1.55567348E+00  1.57915011E+00  1.58772215E+00  1.74826155E+00
  1.92045594E+00  1.92748529E+00  1.92981161E+00  1.96881602E+00  2.05161211E+00
  2.09915868E+00  2.12791662E+00  2.39151460E+00  2.52071621E+00  2.53004147E+00
  2.58099005E+00  2.63350871E+00  2.64498757E+00  2.75598457E+00  2.76938096E+00
  2.85390446E+00  2.85725990E+00  2.94357948E+00  3.73567694E+00  3.80330283E+00
  3.97302989E+00  2.38025657E+01  2.38874919E+01
Alpha MO coefficients                      R   N=        4624
  3.98932942E-01  3.27997805E-01  3.33551237E-04 -3.15813295E-08 -8.84582473E-11
  8.43822730E-03 -1.49620764E-03  4.35720172E-07  1.45997264E-10 -2.06228312E-03
 -1.17437865E-04  6.75551296E-08 -3.19430291E-11 -5.94557190E-04  5.54958027E-04
 -1.99009214E-07  2.47110839E-11 -8.01778837E-04 -5.92290481E-11 -1.48620993E-11
 -9.59391014E-04 -2.22695342E-07  3.98983874E-01  3.28039692E-01 -3.33559653E-04
  3.15846632E-08 -6.85992190E-11  8.43925236E-03  1.49638457E-03 -4.35761766E-07
  4.47454995E-10 -2.06277475E-03  1.17544057E-04 -6.75521671E-08 -6.92996870E-12
 -5.94273250E-04 -5.55123792E-04  1.99014645E-07 -1.17659494E-10 -8.01885040E-04
  1.76688468E-10  1.48296797E-11 -9.59479945E-04 -2.22716214E-07  1.35596465E-04
 -2.43133828E-03  1.55384731E-03 -7.40142254E-04 -1.30648938E-03  5.13932574E-11
  1.35499627E-04 -2.43217470E-03  1.55438036E-03 -7.40372566E-04  1.30678396E-03
  3.73482006E-11  1.35616008E-04 -2.43159614E-03  1.55404336E-03  7.40217450E-04
  1.30664248E-03  1.91303330E-10  1.35519159E-04 -2.43243263E-03  1.55457645E-03
  7.40447784E-04 -1.30693708E-03  1.77292938E-10  3.99003195E-01  3.28143827E-01
  6.88757940E-05 -3.04635682E-08 -9.20291278E-11  8.05583692E-03 -1.40406656E-03
  3.83533695E-07  1.31600668E-10 -3.83173448E-03 -8.19608300E-04 -2.81186940E-08
 -2.89811438E-11  2.13397867E-03  1.27479600E-03 -5.15185976E-08 -7.07578790E-11
 -8.38907851E-04 -5.07491788E-11 -1.13850078E-11 -7.07807778E-04 -1.84345127E-07
 -3.98952267E-01 -3.28101955E-01  6.88330256E-05 -3.04589844E-08  6.05951130E-11
 -8.05475656E-03 -1.40387419E-03  3.83471139E-07 -4.03163872E-10  3.83147135E-03
 -8.19593476E-04 -2.81282546E-08  5.68115685E-11 -2.13405535E-03  1.27472526E-03
 -5.14908816E-08  1.29925108E-10  8.38804770E-04 -1.60250276E-10 -1.13541723E-11
  7.07684527E-04  1.84314205E-07  1.49626511E-04 -2.04378328E-03  1.55244178E-03
 -5.94604588E-04 -1.20867164E-03  4.81511003E-11  1.49526592E-04 -2.04441325E-03
  1.55285142E-03 -5.94799170E-04  1.20893146E-03  3.44927756E-11 -1.49609545E-04
  2.04347078E-03 -1.55224232E-03 -5.94509612E-04 -1.20850393E-03 -1.81745950E-10
 -1.49509640E-04  2.04410064E-03 -1.55265189E-03 -5.94704162E-04  1.20876371E-03
 -1.68119267E-10 -8.00521749E-02 -1.28924635E-01  1.02811118E-02  3.01562613E-06
  1.89647177E-09  3.42354863E-01  2.22556982E-02  2.69845158E-06  2.06464222E-09
  2.21318052E-01  6.20981403E-03  9.01604675E-07  1.34560712E-09  1.90134496E-03
 -5.57121573E-03  6.43631918E-07 -1.91375826E-10 -9.70134096E-03 -4.25049866E-10
 -7.61665751E-11  3.10750677E-03 -5.34782318E-07 -8.00521381E-02 -1.28924576E-01
 -1.02811450E-02 -3.01555790E-06  5.93818882E-09  3.42354718E-01 -2.22557383E-02
 -2.69838519E-06  7.73222606E-09  2.21317974E-01 -6.20983276E-03 -9.01576736E-07
  3.17286071E-09  1.90131920E-03  5.57122257E-03 -6.43629260E-07  6.54844424E-10
 -9.70133755E-03  8.81068317E-10  7.61483207E-11  3.10751343E-03 -5.34782522E-07
  6.54629834E-02  7.40214732E-02  2.33113950E-03  5.21672251E-03  9.85700397E-03
 -2.96606959E-10  6.54692746E-02  7.40276277E-02  2.33012525E-03  5.21764312E-03
 -9.85749912E-03 -1.88296664E-10  6.54629258E-02  7.40214157E-02  2.33114003E-03
 -5.21672074E-03 -9.85699611E-03 -1.12467229E-09  6.54692168E-02  7.40275700E-02
  2.33012579E-03 -5.21764133E-03  9.85749125E-03 -1.01643246E-09 -7.11950063E-02
 -1.15099762E-01 -6.10306504E-02  7.12427716E-06  1.48260135E-09  3.10481620E-01
 -8.91346158E-02  8.11812264E-06  1.27273323E-09  2.24705766E-01 -4.22671320E-02
  3.42305404E-06  1.15064659E-09 -3.83673596E-02 -1.52398221E-02  7.84160234E-08
  4.75938368E-10 -5.88927803E-03 -1.05612438E-09 -1.15047676E-10 -9.65124275E-03
 -7.32761040E-07  7.11950446E-02  1.15099824E-01 -6.10306232E-02  7.12418100E-06
 -9.79204223E-09 -3.10481800E-01 -8.91345802E-02  8.11802128E-06 -1.31439944E-08
 -2.24705917E-01 -4.22671194E-02  3.42300983E-06 -6.01830392E-09  3.83673570E-02
 -1.52398275E-02  7.84146957E-08 -7.42229558E-10  5.88928225E-03 -2.01589253E-09
 -1.14885539E-10  9.65123673E-03  7.32749474E-07  8.79806692E-02  1.07238191E-01
  1.43138744E-02  3.55453065E-03  1.25164682E-02 -5.09369341E-10  8.79939193E-02
  1.07252001E-01  1.43150015E-02  3.55588115E-03 -1.25178021E-02 -3.63356747E-10
 -8.79806813E-02 -1.07238218E-01 -1.43138776E-02  3.55453545E-03  1.25164708E-02
  1.44438357E-09 -8.79939312E-02 -1.07252029E-01 -1.43150047E-02  3.55588594E-03
 -1.25178047E-02  1.29861073E-09  2.64192890E-06  4.42327004E-06  5.60524512E-07
  1.46927585E-01 -6.07145729E-10 -1.27278847E-05  2.55103424E-06  2.08311062E-01
 -8.12038981E-10 -1.56991307E-05  1.61924960E-06  1.24710549E-01 -4.84117099E-10
  1.17163563E-06  1.01225855E-06  4.95285193E-03 -4.20713146E-11  2.28299067E-07
  9.58455985E-11  9.29948427E-10  9.28863799E-07 -5.14136052E-03 -2.64190192E-06
 -4.42322400E-06  5.60632667E-07  1.46927408E-01  6.07329559E-10  1.27277458E-05
  2.55117842E-06  2.08310840E-01  8.12504273E-10  1.56989500E-05  1.61932195E-06
  1.24710420E-01  4.84435497E-10 -1.17164901E-06  1.01225150E-06  4.95284286E-03
  4.21238858E-11 -2.28297040E-07  9.58711434E-11  4.10626356E-09 -9.28878215E-07
  5.14133791E-03 -1.02854209E-01 -1.40099700E-01 -3.83724297E-02 -7.82725362E-03
 -9.18789243E-03  6.07118015E-10  1.02847644E-01  1.40087833E-01  3.83689996E-02
  7.82772675E-03 -9.18660591E-03 -4.72789853E-10  1.02854071E-01  1.40099527E-01
  3.83723839E-02 -7.82724353E-03 -9.18787986E-03 -2.42535153E-09 -1.02847506E-01
 -1.40087659E-01 -3.83689538E-02  7.82771667E-03 -9.18659334E-03  2.29114283E-09
  2.30495959E-06  3.92597735E-06 -3.35579055E-05  1.48668135E-01 -1.18920795E-09
 -1.19622015E-05 -4.92071901E-05  2.07628514E-01 -1.75706916E-09 -1.50259298E-05
 -2.99672680E-05  1.39234540E-01 -1.13063809E-09 -6.32460958E-07 -5.16960675E-07
  1.42711873E-02 -5.08475090E-11  2.58877395E-07  2.69892179E-11  6.64671261E-10
 -2.15633111E-06 -2.43239368E-02  2.30493684E-06  3.92593841E-06  3.35579279E-05
 -1.48668275E-01 -1.18726959E-09 -1.19620855E-05  4.92072401E-05 -2.07628738E-01
 -1.75471620E-09 -1.50257428E-05  2.99673131E-05 -1.39234694E-01 -1.12895871E-09
 -6.32483746E-07  5.16984656E-07 -1.42711991E-02 -5.06069093E-11  2.58876283E-07
 -2.64483637E-11 -4.68393806E-09 -2.15633083E-06 -2.43239455E-02 -1.14290404E-01
 -1.64453443E-01 -6.13816046E-02 -7.89818061E-03 -7.88341040E-03  5.09736619E-10
  1.14312166E-01  1.64481649E-01  6.13921138E-02  7.89711429E-03 -7.88579849E-03
 -4.68770666E-10 -1.14290503E-01 -1.64453602E-01 -6.13816644E-02  7.89818703E-03
  7.88341645E-03  2.18067674E-09  1.14312265E-01  1.64481808E-01  6.13921737E-02
 -7.89712071E-03  7.88580455E-03 -2.13981403E-09 -1.08470354E-02 -1.81335268E-02
  1.80954744E-01  2.59344235E-05 -7.70013423E-09  5.50071474E-02  2.73485061E-01
  3.80838387E-05 -1.26664851E-08  5.20833081E-02  1.80841816E-01  2.69989867E-05
 -7.39563610E-09 -2.42532760E-03  7.54039669E-03  3.14267205E-06  2.55544998E-11
 -6.98284406E-04 -8.00341342E-10  7.69418891E-11  1.49655321E-02 -4.07317416E-06
 -1.08470357E-02 -1.81335268E-02 -1.80954750E-01 -2.59343999E-05 -1.80350464E-08
  5.50071455E-02 -2.73485071E-01 -3.80837867E-05 -2.63198288E-08  5.20832873E-02
 -1.80841833E-01 -2.69989421E-05 -1.87997207E-08 -2.42533146E-03 -7.54040176E-03
 -3.14266653E-06 -1.79222069E-09 -6.98284052E-04 -1.81053297E-09 -7.76696023E-11
  1.49655317E-02 -4.07317631E-06 -6.58694277E-02 -9.84972852E-02 -4.31600167E-02
  5.13494268E-03 -9.46462235E-03 -9.27424494E-11 -6.58326355E-02 -9.84405574E-02
 -4.31343665E-02  5.13732322E-03  9.46287896E-03 -2.06462614E-10 -6.58694364E-02
 -9.84973101E-02 -4.31600219E-02 -5.13493820E-03  9.46462331E-03  3.99901991E-10
 -6.58326442E-02 -9.84405824E-02 -4.31343717E-02 -5.13731873E-03 -9.46287992E-03
  2.85682371E-10 -4.76639546E-10 -8.18008790E-10  1.45433028E-08  1.30419899E-09
  1.71260165E-01  2.78456000E-09  2.19245991E-08  1.95195680E-09  2.72367993E-01
 -2.08359136E-09  1.75096380E-08  1.59787787E-09  2.78713090E-01 -2.09653263E-08
 -1.48960583E-09  4.00165787E-10  4.51164719E-02 -1.72039137E-10  1.44377466E-02
  1.39167914E-07  2.58587271E-10 -1.67057655E-10  5.44474868E-09  9.08367458E-09
 -1.85036975E-08 -1.30439184E-09  1.71260163E-01 -2.66209238E-08 -2.94789022E-08
 -1.95219457E-09  2.72367984E-01 -3.66486411E-08 -2.69553714E-08 -1.59812228E-09
  2.78713082E-01  1.83324512E-08 -1.31569325E-08 -4.00107524E-10  4.51164726E-02
  9.53543262E-10 -1.44377468E-02 -1.39163140E-07  3.10460645E-10 -1.67043442E-10
 -1.78514486E-09 -3.63596192E-09 -3.77438866E-09  1.05022261E-09 -2.08555985E-10
  1.35608953E-02 -9.69328061E-10 -1.96672568E-09 -2.36098138E-09  1.07086927E-09
  3.13690402E-10  1.35615704E-02  3.41914647E-09  3.05240413E-09 -2.86224360E-09
 -1.97178315E-09 -8.72561106E-10  1.35608918E-02  4.23512202E-09  4.72147127E-09
 -1.44921895E-09 -1.99237509E-09  7.67528474E-10  1.35615669E-02  4.09013633E-09
  6.85863975E-09 -3.70456566E-09  8.14242090E-10  1.77140947E-01 -2.06824589E-08
 -6.51201401E-09  1.27579849E-09  2.73467808E-01 -2.95661561E-08  1.66283105E-09
  2.14886811E-09  3.93261513E-01  1.25683665E-07  2.39435320E-08  1.47653885E-09
  4.32766804E-01 -4.95079204E-10 -2.22668235E-02  1.20485875E-07  6.04544838E-12
  1.44255996E-10 -7.62307079E-09 -1.27652391E-08  1.07351338E-08  8.14725693E-10
 -1.77140952E-01  3.63149625E-08  1.76090683E-08  1.27630888E-09 -2.73467814E-01
  7.93997968E-08  3.18147618E-08  2.14815684E-09 -3.93261517E-01 -9.51670538E-08
  5.33162013E-08  1.47350636E-09 -4.32766817E-01 -2.74938350E-10 -2.22668235E-02
  1.20482614E-07  1.20656056E-09 -1.44253626E-10  4.75633764E-09  9.90492276E-09
  2.25276137E-09 -5.59174310E-10  4.34068637E-10  1.96312044E-02  4.04699421E-09
  8.52723269E-09  1.83652963E-11 -4.93489317E-10 -2.11963927E-10  1.96321373E-02
 -1.28071584E-08 -2.53322920E-08 -1.79415142E-08  1.04760951E-09  1.43671545E-09
 -1.96312027E-02 -1.20978471E-08 -2.39549958E-08 -1.57100857E-08  1.11370050E-09
 -1.21466725E-09 -1.96321356E-02  1.99659727E-02  3.38554951E-02  3.68700438E-02
  1.87271306E-06 -3.88381052E-09 -9.20206787E-02  5.50294177E-02 -3.33338747E-06
 -6.29124653E-09 -3.49455477E-01  1.27858329E-01  2.42704014E-05 -1.18603895E-08
  1.18682624E+00 -5.68666443E-01  7.15801298E-05 -6.11219237E-09  1.37694999E-02
  8.01768998E-10  1.75874559E-10  8.15734676E-03  1.68079873E-06  1.99659991E-02
  3.38555381E-02 -3.68700434E-02 -1.87270525E-06 -3.34221769E-09 -9.20207912E-02
 -5.50293902E-02  3.33332011E-06 -1.00553338E-08 -3.49455751E-01 -1.27858478E-01