 Entering Gaussian System, Link 0=g16
 Initial command:
 /home/szhao/Apps/g16/l1.exe "/home/szhao/tmp/Gau-26580.inp" -scrdir="/home/szhao/tmp/"
 Default is to use a total of  16 processors:
                               16 via shared-memory
                                1 via Linda
 Entering Link 1 = /home/szhao/Apps/g16/l1.exe PID=     26597.
  
 Copyright (c) 1988,1990,1992,1993,1995,1998,2003,2009,2016,
            Gaussian, Inc.  All Rights Reserved.
  
 This is part of the Gaussian(R) 16 program.  It is based on
 the Gaussian(R) 09 system (copyright 2009, Gaussian, Inc.),
 the Gaussian(R) 03 system (copyright 2003, Gaussian, Inc.),
 the Gaussian(R) 98 system (copyright 1998, Gaussian, Inc.),
 the Gaussian(R) 94 system (copyright 1995, Gaussian, Inc.),
 the Gaussian 92(TM) system (copyright 1992, Gaussian, Inc.),
 the Gaussian 90(TM) system (copyright 1990, Gaussian, Inc.),
 the Gaussian 88(TM) system (copyright 1988, Gaussian, Inc.),
 the Gaussian 86(TM) system (copyright 1986, Carnegie Mellon
 University), and the Gaussian 82(TM) system (copyright 1983,
 Carnegie Mellon University). Gaussian is a federally registered
 trademark of Gaussian, Inc.
  
 This software contains proprietary and confidential information,
 including trade secrets, belonging to Gaussian, Inc.
  
 This software is provided under written license and may be
 used, copied, transmitted, or stored only in accord with that
 written license.
  
 The following legend is applicable only to US Government
 contracts under FAR:
  
                    RESTRICTED RIGHTS LEGEND
  
 Use, reproduction and disclosure by the US Government is
 subject to restrictions as set forth in subparagraphs (a)
 and (c) of the Commercial Computer Software - Restricted
 Rights clause in FAR 52.227-19.
  
 Gaussian, Inc.
 340 Quinnipiac St., Bldg. 40, Wallingford CT 06492
  
  
 ---------------------------------------------------------------
 Warning -- This program may not be used in any manner that
 competes with the business of Gaussian, Inc. or will provide
 assistance to any competitor of Gaussian, Inc.  The licensee
 of this program is prohibited from giving any competitor of
 Gaussian, Inc. access to this program.  By using this program,
 the user acknowledges that Gaussian, Inc. is engaged in the
 business of creating and licensing software in the field of
 computational chemistry and represents and warrants to the
 licensee that it is not a competitor of Gaussian, Inc. and that
 it will not use this program in any manner prohibited above.
 ---------------------------------------------------------------
  

 Cite this work as:
 Gaussian 16, Revision A.03,
 M. J. Frisch, G. W. Trucks, H. B. Schlegel, G. E. Scuseria, 
 M. A. Robb, J. R. Cheeseman, G. Scalmani, V. Barone, 
 G. A. Petersson, H. Nakatsuji, X. Li, M. Caricato, A. V. Marenich, 
 J. Bloino, B. G. Janesko, R. Gomperts, B. Mennucci, H. P. Hratchian, 
 J. V. Ortiz, A. F. Izmaylov, J. L. Sonnenberg, D. Williams-Young, 
 F. Ding, F. Lipparini, F. Egidi, J. Goings, B. Peng, A. Petrone, 
 T. Henderson, D. Ranasinghe, V. G. Zakrzewski, J. Gao, N. Rega, 
 G. Zheng, W. Liang, M. Hada, M. Ehara, K. Toyota, R. Fukuda, 
 J. Hasegawa, M. Ishida, T. Nakajima, Y. Honda, O. Kitao, H. Nakai, 
 T. Vreven, K. Throssell, J. A. Montgomery, Jr., J. E. Peralta, 
 F. Ogliaro, M. J. Bearpark, J. J. Heyd, E. N. Brothers, K. N. Kudin, 
 V. N. Staroverov, T. A. Keith, R. Kobayashi, J. Normand, 
 K. Raghavachari, A. P. Rendell, J. C. Burant, S. S. Iyengar, 
 J. Tomasi, M. Cossi, J. M. Millam, M. Klene, C. Adamo, R. Cammi, 
 J. W. Ochterski, R. L. Martin, K. Morokuma, O. Farkas, 
 J. B. Foresman, and D. J. Fox, Gaussian, Inc., Wallingford CT, 2016.
 
 ******************************************
 Gaussian 16:  ES64L-G16RevA.03 25-Dec-2016
                21-Apr-2025 
 ******************************************
 %chk=opt.chk
 %mem=4GB
 %nprocshared=8
 Will use up to    8 processors via shared memory.
 --------------------------------------------
 #p opt UM062X/6-311+G** nosymm int=superfine
 --------------------------------------------
 1/18=20,19=15,26=5,38=1/1,3;
 2/9=110,12=2,15=1,17=6,18=5,40=1/2;
 3/5=4,6=6,7=111,11=2,25=1,30=1,71=1,74=-55,75=-7,116=2/1,2,3;
 4//1;
 5/5=2,38=5/2;
 6/7=2,8=2,9=2,10=2,28=1/1;
 7/30=1/1,2,3,16;
 1/18=20,19=15,26=5/3(2);
 2/9=110,15=1/2;
 99//99;
 2/9=110,15=1/2;
 3/5=4,6=6,7=111,11=2,25=1,30=1,71=1,74=-55,75=-7,116=2/1,2,3;
 4/5=5,16=3,69=1/1;
 5/5=2,38=5/2;
 7/30=1/1,2,3,16;
 1/18=20,19=15,26=5/3(-5);
 2/9=110,15=1/2;
 6/7=2,8=2,9=2,10=2,19=2,28=1/1;
 99/9=1/99;
 Leave Link    1 at Mon Apr 21 21:05:47 2025, MaxMem=   536870912 cpu:               3.2 elap:               0.5
 (Enter /home/szhao/Apps/g16/l101.exe)
 -------------------
 Title Card Required
 -------------------
 Symbolic Z-matrix:
 Charge =  0 Multiplicity = 1
 P                    -1   -1.23449   0.        0. 
 P                    -1    1.23449   0.        0. 
 H                    0    -1.33735  -1.41726   0. 
 H                    0     1.33735   1.41726   0. 
 
 ITRead=  2  2  0  0
 MicOpt= -2 -2 -1 -1
 NAtoms=      4 NQM=        2 NQMF=       2 NMMI=      0 NMMIF=      0
                NMic=       0 NMicF=      0.
                    Isotopes and Nuclear Properties:
 (Nuclear quadrupole moments (NQMom) in fm**2, nuclear magnetic moments (NMagM)
  in nuclear magnetons)

  Atom         1           2           3           4
 IAtWgt=          31          31           1           1
 AtmWgt=  30.9737634  30.9737634   1.0078250   1.0078250
 NucSpn=           1           1           1           1
 AtZEff=  -0.0000000  -0.0000000  -0.0000000  -0.0000000
 NQMom=    0.0000000   0.0000000   0.0000000   0.0000000
 NMagM=    1.1316000   1.1316000   2.7928460   2.7928460
 AtZNuc=  15.0000000  15.0000000   1.0000000   1.0000000
 Leave Link  101 at Mon Apr 21 21:05:49 2025, MaxMem=   536870912 cpu:               4.2 elap:               0.6
 (Enter /home/szhao/Apps/g16/l103.exe)

 GradGradGradGradGradGradGradGradGradGradGradGradGradGradGradGradGradGrad
 Berny optimization.
 Initialization pass.
                           ----------------------------
                           !    Initial Parameters    !
                           ! (Angstroms and Degrees)  !
 --------------------------                            --------------------------
 ! Name  Definition              Value          Derivative Info.                !
 --------------------------------------------------------------------------------
 ! X1    R(1,-1)                -1.2345         Frozen                          !
 ! Y1    R(1,-2)                 0.0            Frozen                          !
 ! Z1    R(1,-3)                 0.0            Frozen                          !
 ! X2    R(2,-1)                 1.2345         Frozen                          !
 ! Y2    R(2,-2)                 0.0            Frozen                          !
 ! Z2    R(2,-3)                 0.0            Frozen                          !
 ! R1    R(1,3)                  1.421          estimate D2E/DX2                !
 ! R2    R(2,4)                  1.421          estimate D2E/DX2                !
 ! A1    A(2,1,3)               94.1511         estimate D2E/DX2                !
 ! A2    A(1,2,4)               94.1511         estimate D2E/DX2                !
 ! D1    D(3,1,2,4)            180.0            estimate D2E/DX2                !
 --------------------------------------------------------------------------------
 Trust Radius=3.00D-01 FncErr=1.00D-07 GrdErr=1.00D-07 EigMax=2.50D+02 EigMin=1.00D-04
 Number of steps in this run=     21 maximum allowed number of steps=    100.
 GradGradGradGradGradGradGradGradGradGradGradGradGradGradGradGradGradGrad

 Leave Link  103 at Mon Apr 21 21:05:50 2025, MaxMem=   536870912 cpu:               0.3 elap:               0.2
 (Enter /home/szhao/Apps/g16/l202.exe)
                          Input orientation:                          
 ---------------------------------------------------------------------
 Center     Atomic      Atomic             Coordinates (Angstroms)
 Number     Number       Type             X           Y           Z
 ---------------------------------------------------------------------
      1         15           0       -1.234490    0.000000    0.000000
      2         15           0        1.234490    0.000000    0.000000
      3          1           0       -1.337351   -1.417255    0.000000
      4          1           0        1.337351    1.417255    0.000000
 ---------------------------------------------------------------------
                    Distance matrix (angstroms):
                    1          2          3          4
     1  P    0.000000
     2  P    2.468979   0.000000
     3  H    1.420983   2.936490   0.000000
     4  H    2.936490   1.420983   3.897239   0.000000
 Symmetry turned off by external request.
 Stoichiometry    H2P2
 Framework group  C2H[SGH(H2P2)]
 Deg. of freedom     3
 Full point group                 C2H     NOp   4
 Rotational constants (GHZ):         129.7979660           5.1482121           4.9518072
 Leave Link  202 at Mon Apr 21 21:05:50 2025, MaxMem=   536870912 cpu:               0.1 elap:               0.1
 (Enter /home/szhao/Apps/g16/l301.exe)
 Standard basis: 6-311+G(d,p) (5D, 7F)
 Ernie: Thresh=  0.10000D-02 Tol=  0.10000D-05 Strict=F.
    72 basis functions,   116 primitive gaussians,    74 cartesian basis functions
    16 alpha electrons       16 beta electrons
       nuclear repulsion energy        64.9384007831 Hartrees.
 IExCor= 4336 DFT=T Ex+Corr=M062X ExCW=0 ScaHFX=  0.540000
 ScaDFX=  1.000000  1.000000  1.000000  1.000000 ScalE2=  1.000000  1.000000
 IRadAn=      7 IRanWt=     -1 IRanGd=            0 ICorTp=0 IEmpDi=  4
 NAtoms=    4 NActive=    4 NUniq=    4 SFac= 1.00D+00 NAtFMM=   60 NAOKFM=F Big=F
 Integral buffers will be    131072 words long.
 Raffenetti 2 integral format.
 Two-electron integral symmetry is turned off.
 Leave Link  301 at Mon Apr 21 21:05:50 2025, MaxMem=   536870912 cpu:               1.1 elap:               0.3
 (Enter /home/szhao/Apps/g16/l302.exe)
 NPDir=0 NMtPBC=     1 NCelOv=     1 NCel=       1 NClECP=     1 NCelD=      1
         NCelK=      1 NCelE2=     1 NClLst=     1 CellRange=     0.0.
 One-electron integrals computed using PRISM.
 NBasis=    72 RedAO= T EigKep=  2.48D-03  NBF=    72
 NBsUse=    72 1.00D-06 EigRej= -1.00D+00 NBFU=    72
 Precomputing XC quadrature grid using
 IXCGrd= 4 IRadAn=           7 IRanWt=          -1 IRanGd=           0 AccXCQ= 0.00D+00.
 Generated NRdTot=       0 NPtTot=           0 NUsed=           0 NTot=          32
 NSgBfM=    72    72    72    72    72 MxSgAt=     4 MxSgA2=     4.
 Leave Link  302 at Mon Apr 21 21:05:51 2025, MaxMem=   536870912 cpu:               2.9 elap:               0.5
 (Enter /home/szhao/Apps/g16/l303.exe)
 DipDrv:  MaxL=1.
 Leave Link  303 at Mon Apr 21 21:05:52 2025, MaxMem=   536870912 cpu:               0.8 elap:               0.2
 (Enter /home/szhao/Apps/g16/l401.exe)
 ExpMin= 3.48D-02 ExpMax= 7.75D+04 ExpMxC= 2.65D+03 IAcc=3 IRadAn=         7 AccDes= 0.00D+00
 Harris functional with IExCor= 1009 and IRadAn=       7 diagonalized for initial guess.
 HarFok:  IExCor= 1009 AccDes= 0.00D+00 IRadAn=         7 IDoV= 1 UseB2=F ITyADJ=14
 ICtDFT=  3500011 ScaDFX=  1.000000  1.000000  1.000000  1.000000
 FoFCou: FMM=F IPFlag=           0 FMFlag=      100000 FMFlg1=           0
         NFxFlg=           0 DoJE=T BraDBF=F KetDBF=T FulRan=T
         wScrn=  0.000000 ICntrl=       500 IOpCl=  0 I1Cent=   200000004 NGrid=           0
         NMat0=    1 NMatS0=      1 NMatT0=    0 NMatD0=    1 NMtDS0=    0 NMtDT0=    0
 Symmetry not used in FoFCou.
 Harris En= -683.499568223035    
 JPrj=0 DoOrth=F DoCkMO=F.
 Initial guess <Sx>= 0.0000 <Sy>= 0.0000 <Sz>= 0.0000 <S**2>=-0.0000 S=-0.0000
 Leave Link  401 at Mon Apr 21 21:05:53 2025, MaxMem=   536870912 cpu:               4.3 elap:               0.7
 (Enter /home/szhao/Apps/g16/l502.exe)
 Keep R1 and R2 ints in memory in canonical form, NReq=14118010.
 FoFCou: FMM=F IPFlag=           0 FMFlag=           0 FMFlg1=           0
         NFxFlg=           0 DoJE=F BraDBF=F KetDBF=F FulRan=T
         wScrn=  0.000000 ICntrl=       600 IOpCl=  0 I1Cent=           0 NGrid=           0
         NMat0=    1 NMatS0=   2628 NMatT0=    0 NMatD0=    1 NMtDS0=    0 NMtDT0=    0
 Symmetry not used in FoFCou.
 Two-electron integral symmetry not used.
 UHF open shell SCF:
 Using DIIS extrapolation, IDIIS=  1040.
 NGot=   536870912 LenX=   529949706 LenY=   529943789
 Requested convergence on RMS density matrix=1.00D-08 within 128 cycles.
 Requested convergence on MAX density matrix=1.00D-06.
 Requested convergence on             energy=1.00D-06.
 No special actions if energy rises.

 Cycle   1  Pass 1  IDiag  1:
 E= -683.779814419858    
 DIIS: error= 2.72D-02 at cycle   1 NSaved=   1.
 NSaved= 1 IEnMin= 1 EnMin= -683.779814419858     IErMin= 1 ErrMin= 2.72D-02
 ErrMax= 2.72D-02  0.00D+00 EMaxC= 1.00D-01 BMatC= 2.13D-01 BMatP= 2.13D-01
 IDIUse=3 WtCom= 7.28D-01 WtEn= 2.72D-01
 Coeff-Com:  0.100D+01
 Coeff-En:   0.100D+01
 Coeff:      0.100D+01
 Gap=     0.170 Goal=   None    Shift=    0.000
 Gap=     0.170 Goal=   None    Shift=    0.000
 GapD=    0.170 DampG=1.000 DampE=0.500 DampFc=0.5000 IDamp=-1.
 Damping current iteration by 5.00D-01
 RMSDP=1.67D-03 MaxDP=2.27D-02              OVMax= 3.56D-02

 Cycle   2  Pass 1  IDiag  1:
 E= -683.786957120275     Delta-E=       -0.007142700417 Rises=F Damp=T
 DIIS: error= 9.91D-03 at cycle   2 NSaved=   2.
 NSaved= 2 IEnMin= 2 EnMin= -683.786957120275     IErMin= 2 ErrMin= 9.91D-03
 ErrMax= 9.91D-03  0.00D+00 EMaxC= 1.00D-01 BMatC= 3.45D-02 BMatP= 2.13D-01
 IDIUse=3 WtCom= 9.01D-01 WtEn= 9.91D-02
 Coeff-Com: -0.605D+00 0.160D+01
 Coeff-En:   0.000D+00 0.100D+01
 Coeff:     -0.545D+00 0.154D+01
 Gap=     0.170 Goal=   None    Shift=    0.000
 Gap=     0.170 Goal=   None    Shift=    0.000
 RMSDP=7.48D-04 MaxDP=7.32D-03 DE=-7.14D-03 OVMax= 8.46D-03

 Cycle   3  Pass 1  IDiag  1:
 E= -683.793518494047     Delta-E=       -0.006561373772 Rises=F Damp=F
 DIIS: error= 4.98D-04 at cycle   3 NSaved=   3.
 NSaved= 3 IEnMin= 3 EnMin= -683.793518494047     IErMin= 3 ErrMin= 4.98D-04
 ErrMax= 4.98D-04  0.00D+00 EMaxC= 1.00D-01 BMatC= 1.16D-04 BMatP= 3.45D-02
 IDIUse=3 WtCom= 9.95D-01 WtEn= 4.98D-03
 Coeff-Com: -0.603D-01 0.122D+00 0.938D+00
 Coeff-En:   0.000D+00 0.000D+00 0.100D+01
 Coeff:     -0.600D-01 0.122D+00 0.938D+00
 Gap=     0.170 Goal=   None    Shift=    0.000
 Gap=     0.170 Goal=   None    Shift=    0.000
 RMSDP=1.33D-04 MaxDP=3.56D-03 DE=-6.56D-03 OVMax= 2.84D-03

 Cycle   4  Pass 1  IDiag  1:
 E= -683.793542834404     Delta-E=       -0.000024340357 Rises=F Damp=F
 DIIS: error= 1.92D-04 at cycle   4 NSaved=   4.
 NSaved= 4 IEnMin= 4 EnMin= -683.793542834404     IErMin= 4 ErrMin= 1.92D-04
 ErrMax= 1.92D-04  0.00D+00 EMaxC= 1.00D-01 BMatC= 9.83D-06 BMatP= 1.16D-04
 IDIUse=3 WtCom= 9.98D-01 WtEn= 1.92D-03
 Coeff-Com: -0.213D-02 0.870D-03 0.232D+00 0.769D+00
 Coeff-En:   0.000D+00 0.000D+00 0.000D+00 0.100D+01
 Coeff:     -0.213D-02 0.869D-03 0.232D+00 0.769D+00
 Gap=     0.170 Goal=   None    Shift=    0.000
 Gap=     0.170 Goal=   None    Shift=    0.000
 RMSDP=3.50D-05 MaxDP=8.32D-04 DE=-2.43D-05 OVMax= 8.37D-04

 Cycle   5  Pass 1  IDiag  1:
 E= -683.793546235709     Delta-E=       -0.000003401305 Rises=F Damp=F
 DIIS: error= 5.71D-05 at cycle   5 NSaved=   5.
 NSaved= 5 IEnMin= 5 EnMin= -683.793546235709     IErMin= 5 ErrMin= 5.71D-05
 ErrMax= 5.71D-05  0.00D+00 EMaxC= 1.00D-01 BMatC= 4.35D-07 BMatP= 9.83D-06
 IDIUse=1 WtCom= 1.00D+00 WtEn= 0.00D+00
 Coeff-Com:  0.305D-02-0.647D-02-0.469D-01 0.765D-01 0.974D+00
 Coeff:      0.305D-02-0.647D-02-0.469D-01 0.765D-01 0.974D+00
 Gap=     0.170 Goal=   None    Shift=    0.000
 Gap=     0.170 Goal=   None    Shift=    0.000
 RMSDP=7.73D-06 MaxDP=1.00D-04 DE=-3.40D-06 OVMax= 2.23D-04

 Cycle   6  Pass 1  IDiag  1:
 E= -683.793546420451     Delta-E=       -0.000000184742 Rises=F Damp=F
 DIIS: error= 6.46D-06 at cycle   6 NSaved=   6.
 NSaved= 6 IEnMin= 6 EnMin= -683.793546420451     IErMin= 6 ErrMin= 6.46D-06
 ErrMax= 6.46D-06  0.00D+00 EMaxC= 1.00D-01 BMatC= 1.13D-08 BMatP= 4.35D-07
 IDIUse=1 WtCom= 1.00D+00 WtEn= 0.00D+00
 Coeff-Com:  0.111D-03-0.807D-04-0.149D-01-0.190D-01 0.936D-01 0.940D+00
 Coeff:      0.111D-03-0.807D-04-0.149D-01-0.190D-01 0.936D-01 0.940D+00
 Gap=     0.170 Goal=   None    Shift=    0.000
 Gap=     0.170 Goal=   None    Shift=    0.000
 RMSDP=1.85D-06 MaxDP=3.30D-05 DE=-1.85D-07 OVMax= 6.39D-05

 Cycle   7  Pass 1  IDiag  1:
 E= -683.793546426388     Delta-E=       -0.000000005936 Rises=F Damp=F
 DIIS: error= 1.17D-06 at cycle   7 NSaved=   7.
 NSaved= 7 IEnMin= 7 EnMin= -683.793546426388     IErMin= 7 ErrMin= 1.17D-06
 ErrMax= 1.17D-06  0.00D+00 EMaxC= 1.00D-01 BMatC= 4.67D-10 BMatP= 1.13D-08
 IDIUse=1 WtCom= 1.00D+00 WtEn= 0.00D+00
 Coeff-Com:  0.866D-05 0.448D-05-0.387D-03-0.386D-02-0.199D-01 0.925D-01
 Coeff-Com:  0.932D+00
 Coeff:      0.866D-05 0.448D-05-0.387D-03-0.386D-02-0.199D-01 0.925D-01
 Coeff:      0.932D+00
 Gap=     0.170 Goal=   None    Shift=    0.000
 Gap=     0.170 Goal=   None    Shift=    0.000
 RMSDP=2.96D-07 MaxDP=5.01D-06 DE=-5.94D-09 OVMax= 1.01D-05

 Cycle   8  Pass 1  IDiag  1:
 E= -683.793546426606     Delta-E=       -0.000000000218 Rises=F Damp=F
 DIIS: error= 2.23D-07 at cycle   8 NSaved=   8.
 NSaved= 8 IEnMin= 8 EnMin= -683.793546426606     IErMin= 8 ErrMin= 2.23D-07
 ErrMax= 2.23D-07  0.00D+00 EMaxC= 1.00D-01 BMatC= 9.23D-12 BMatP= 4.67D-10
 IDIUse=1 WtCom= 1.00D+00 WtEn= 0.00D+00
 Coeff-Com: -0.661D-05 0.784D-05 0.498D-03 0.936D-03-0.114D-02-0.411D-01
 Coeff-Com: -0.896D-01 0.113D+01
 Coeff:     -0.661D-05 0.784D-05 0.498D-03 0.936D-03-0.114D-02-0.411D-01
 Coeff:     -0.896D-01 0.113D+01
 Gap=     0.170 Goal=   None    Shift=    0.000
 Gap=     0.170 Goal=   None    Shift=    0.000
 RMSDP=7.37D-08 MaxDP=7.73D-07 DE=-2.18D-10 OVMax= 3.01D-06

 Cycle   9  Pass 1  IDiag  1:
 E= -683.793546426614     Delta-E=       -0.000000000008 Rises=F Damp=F
 DIIS: error= 2.79D-08 at cycle   9 NSaved=   9.
 NSaved= 9 IEnMin= 9 EnMin= -683.793546426614     IErMin= 9 ErrMin= 2.79D-08
 ErrMax= 2.79D-08  0.00D+00 EMaxC= 1.00D-01 BMatC= 2.81D-13 BMatP= 9.23D-12
 IDIUse=1 WtCom= 1.00D+00 WtEn= 0.00D+00
 Coeff-Com: -0.148D-05 0.200D-05 0.457D-04 0.200D-03 0.570D-03-0.669D-02
 Coeff-Com: -0.308D-01 0.126D+00 0.910D+00
 Coeff:     -0.148D-05 0.200D-05 0.457D-04 0.200D-03 0.570D-03-0.669D-02
 Coeff:     -0.308D-01 0.126D+00 0.910D+00
 Gap=     0.170 Goal=   None    Shift=    0.000
 Gap=     0.170 Goal=   None    Shift=    0.000
 RMSDP=7.99D-09 MaxDP=1.36D-07 DE=-8.19D-12 OVMax= 2.18D-07

 SCF Done:  E(UM062X) =  -683.793546427     A.U. after    9 cycles
            NFock=  9  Conv=0.80D-08     -V/T= 2.0018
 <Sx>= 0.0000 <Sy>= 0.0000 <Sz>= 0.0000 <S**2>=-0.0000 S=-0.0000
 <L.S>=  0.00000000000    
 KE= 6.825417207282D+02 PE=-1.756544763127D+03 EE= 3.252710951889D+02
 Annihilation of the first spin contaminant:
 S**2 before annihilation    -0.0000,   after    -0.0000
 Leave Link  502 at Mon Apr 21 21:06:02 2025, MaxMem=   536870912 cpu:              66.6 elap:               9.1
 (Enter /home/szhao/Apps/g16/l601.exe)
 Copying SCF densities to generalized density rwf, IOpCl= 1 IROHF=0.

 **********************************************************************

            Population analysis using the SCF density.

 **********************************************************************

 Alpha  occ. eigenvalues --  -78.06635 -78.06635  -6.88715  -6.88711  -5.00203
 Alpha  occ. eigenvalues --   -5.00202  -5.00123  -5.00117  -4.99962  -4.99959
 Alpha  occ. eigenvalues --   -0.72543  -0.64618  -0.41001  -0.40737  -0.31482
 Alpha  occ. eigenvalues --   -0.28661
 Alpha virt. eigenvalues --   -0.11616  -0.02440   0.01873   0.03496   0.04372
 Alpha virt. eigenvalues --    0.04444   0.04969   0.06359   0.06908   0.08653
 Alpha virt. eigenvalues --    0.09597   0.12661   0.28104   0.28937   0.30977
 Alpha virt. eigenvalues --    0.31419   0.32011   0.33768   0.41408   0.43540
 Alpha virt. eigenvalues --    0.54366   0.59890   0.63240   0.65355   0.66183
 Alpha virt. eigenvalues --    0.67469   0.67861   0.74099   0.78772   0.90634
 Alpha virt. eigenvalues --    0.93104   0.96804   1.42199   1.45649   1.45833
 Alpha virt. eigenvalues --    1.48076   1.52467   1.54842   1.58187   1.61832
 Alpha virt. eigenvalues --    1.64550   1.79227   2.03204   2.03870   2.58853
 Alpha virt. eigenvalues --    2.61354   6.87858   6.94182  13.95332  13.99630
 Alpha virt. eigenvalues --   14.00268  14.01783  14.04687  14.04891 163.13723
 Alpha virt. eigenvalues --  163.21599
  Beta  occ. eigenvalues --  -78.06635 -78.06635  -6.88715  -6.88711  -5.00203
  Beta  occ. eigenvalues --   -5.00202  -5.00123  -5.00117  -4.99962  -4.99959
  Beta  occ. eigenvalues --   -0.72543  -0.64618  -0.41001  -0.40737  -0.31482
  Beta  occ. eigenvalues --   -0.28661
  Beta virt. eigenvalues --   -0.11616  -0.02440   0.01873   0.03496   0.04372
  Beta virt. eigenvalues --    0.04444   0.04969   0.06359   0.06908   0.08653
  Beta virt. eigenvalues --    0.09597   0.12661   0.28104   0.28937   0.30977
  Beta virt. eigenvalues --    0.31419   0.32011   0.33768   0.41408   0.43540
  Beta virt. eigenvalues --    0.54366   0.59890   0.63240   0.65355   0.66183
  Beta virt. eigenvalues --    0.67469   0.67861   0.74099   0.78772   0.90634
  Beta virt. eigenvalues --    0.93104   0.96804   1.42199   1.45649   1.45833
  Beta virt. eigenvalues --    1.48076   1.52467   1.54842   1.58187   1.61832
  Beta virt. eigenvalues --    1.64550   1.79227   2.03204   2.03870   2.58853
  Beta virt. eigenvalues --    2.61354   6.87858   6.94182  13.95332  13.99630
  Beta virt. eigenvalues --   14.00268  14.01783  14.04687  14.04891 163.13723
  Beta virt. eigenvalues --  163.21599
          Condensed to atoms (all electrons):
               1          2          3          4
     1  P   14.378227   0.396858   0.225585  -0.010010
     2  P    0.396858  14.378227  -0.010010   0.225585
     3  H    0.225585  -0.010010   0.791365   0.002400
     4  H   -0.010010   0.225585   0.002400   0.791365
          Atomic-Atomic Spin Densities.
               1          2          3          4
     1  P   -0.000000   0.000000   0.000000   0.000000
     2  P    0.000000  -0.000000  -0.000000  -0.000000
     3  H    0.000000  -0.000000  -0.000000   0.000000
     4  H    0.000000  -0.000000   0.000000  -0.000000
 Mulliken charges and spin densities:
               1          2
     1  P    0.009340   0.000000
     2  P    0.009340  -0.000000
     3  H   -0.009340  -0.000000
     4  H   -0.009340  -0.000000
 Sum of Mulliken charges =  -0.00000  -0.00000
 Mulliken charges and spin densities with hydrogens summed into heavy atoms:
               1          2
     1  P    0.000000   0.000000
     2  P   -0.000000  -0.000000
 Electronic spatial extent (au):  <R**2>=            254.3433
 Charge=             -0.0000 electrons
 Dipole moment (field-independent basis, Debye):
    X=             -0.0000    Y=              0.0000    Z=             -0.0000  Tot=              0.0000
 Quadrupole moment (field-independent basis, Debye-Ang):
   XX=            -28.6074   YY=            -27.7966   ZZ=            -29.6224
   XY=              2.9598   XZ=             -0.0000   YZ=             -0.0000
 Traceless Quadrupole moment (field-independent basis, Debye-Ang):
   XX=              0.0681   YY=              0.8788   ZZ=             -0.9469
   XY=              2.9598   XZ=             -0.0000   YZ=             -0.0000
 Octapole moment (field-independent basis, Debye-Ang**2):
  XXX=             -0.0000  YYY=              0.0000  ZZZ=             -0.0000  XYY=             -0.0000
  XXY=              0.0000  XXZ=             -0.0000  XZZ=             -0.0000  YZZ=              0.0000
  YYZ=             -0.0000  XYZ=             -0.0000
 Hexadecapole moment (field-independent basis, Debye-Ang**3):
 XXXX=           -310.0991 YYYY=            -62.8296 ZZZZ=            -51.9329 XXXY=              2.8839
 XXXZ=             -0.0000 YYYX=             -5.3729 YYYZ=              0.0000 ZZZX=             -0.0000
 ZZZY=             -0.0000 XXYY=            -61.7877 XXZZ=            -59.9456 YYZZ=            -19.6611
 XXYZ=             -0.0000 YYXZ=             -0.0000 ZZXY=             -1.6603
 N-N= 6.493840078307D+01 E-N=-1.756544764014D+03  KE= 6.825417207282D+02
                          Isotropic Fermi Contact Couplings
        Atom                 a.u.       MegaHertz       Gauss      10(-4) cm-1
     1  P(31)              0.00000       0.00000       0.00000       0.00000
     2  P(31)              0.00000       0.00000       0.00000       0.00000
     3  H(1)              -0.00000      -0.00000      -0.00000      -0.00000
     4  H(1)               0.00000       0.00000       0.00000       0.00000
 --------------------------------------------------------
       Center         ----  Spin Dipole Couplings  ----
                      3XX-RR        3YY-RR        3ZZ-RR
 --------------------------------------------------------
     1   Atom        0.000000      0.000000      0.000000
     2   Atom        0.000000      0.000000      0.000000
     3   Atom        0.000000      0.000000      0.000000
     4   Atom        0.000000      0.000000      0.000000
 --------------------------------------------------------
                        XY            XZ            YZ
 --------------------------------------------------------
     1   Atom        0.000000      0.000000      0.000000
     2   Atom        0.000000      0.000000      0.000000
     3   Atom        0.000000      0.000000      0.000000
     4   Atom        0.000000      0.000000      0.000000
 --------------------------------------------------------


 ---------------------------------------------------------------------------------
              Anisotropic Spin Dipole Couplings in Principal Axis System
 ---------------------------------------------------------------------------------

       Atom             a.u.   MegaHertz   Gauss  10(-4) cm-1        Axes

              Baa     0.0000     0.000     0.000     0.000  1.0000  0.0000  0.0000
     1 P(31)  Bbb     0.0000     0.000     0.000     0.000 -0.0000  1.0000  0.0000
              Bcc     0.0000     0.000     0.000     0.000  0.0000  0.0000  1.0000
 
              Baa     0.0000     0.000     0.000     0.000  1.0000  0.0000  0.0000
     2 P(31)  Bbb     0.0000     0.000     0.000     0.000 -0.0000  1.0000  0.0000
              Bcc     0.0000     0.000     0.000     0.000  0.0000  0.0000  1.0000
 
              Baa     0.0000     0.000     0.000     0.000  1.0000  0.0000  0.0000
     3 H(1)   Bbb     0.0000     0.000     0.000     0.000 -0.0000  1.0000  0.0000
              Bcc     0.0000     0.000     0.000     0.000  0.0000  0.0000  1.0000
 
              Baa     0.0000     0.000     0.000     0.000  1.0000  0.0000  0.0000
     4 H(1)   Bbb     0.0000     0.000     0.000     0.000 -0.0000  1.0000  0.0000
              Bcc     0.0000     0.000     0.000     0.000  0.0000  0.0000  1.0000
 

 ---------------------------------------------------------------------------------

 No NMR shielding tensors so no spin-rotation constants.
 Leave Link  601 at Mon Apr 21 21:06:03 2025, MaxMem=   536870912 cpu:               2.7 elap:               0.6
 (Enter /home/szhao/Apps/g16/l701.exe)
 ... and contract with generalized density number  0.
 Compute integral first derivatives.
 Leave Link  701 at Mon Apr 21 21:06:04 2025, MaxMem=   536870912 cpu:               2.7 elap:               0.5
 (Enter /home/szhao/Apps/g16/l702.exe)
 L702 exits ... SP integral derivatives will be done elsewhere.
 Leave Link  702 at Mon Apr 21 21:06:05 2025, MaxMem=   536870912 cpu:               0.4 elap:               0.2
 (Enter /home/szhao/Apps/g16/l703.exe)
 Integral derivatives from FoFJK, PRISM(SPDF).
 Compute integral first derivatives, UseDBF=F ICtDFT=           0.
 Calling FoFJK, ICntrl=      2127 FMM=F ISym2X=0 I1Cent= 0 IOpClX= 1 NMat=1 NMatS=1 NMatT=0.
 FoFJK:  IHMeth= 1 ICntrl=    2127 DoSepK=F KAlg= 0 I1Cent=           0 FoldK=F
 IRaf=         0 NMat=       1 IRICut=       1 DoRegI=T DoRafI=F ISym2E= 0 IDoP0=0 IntGTp=1.
 FoFCou: FMM=F IPFlag=           0 FMFlag=      100000 FMFlg1=         800
         NFxFlg=           0 DoJE=F BraDBF=F KetDBF=F FulRan=T
         wScrn=  0.000000 ICntrl=      2127 IOpCl=  1 I1Cent=           0 NGrid=           0
         NMat0=    1 NMatS0=      1 NMatT0=    0 NMatD0=    1 NMtDS0=    0 NMtDT0=    0
 Symmetry not used in FoFCou.
 Leave Link  703 at Mon Apr 21 21:06:07 2025, MaxMem=   536870912 cpu:              12.5 elap:               1.8
 (Enter /home/szhao/Apps/g16/l716.exe)
 Dipole        =-6.90389967D-11 1.22524213D-12-1.31429228D-14
 -------------------------------------------------------------------
 Center     Atomic                   Forces (Hartrees/Bohr)
 Number     Number              X              Y              Z
 -------------------------------------------------------------------
      1       15          -0.000000000   -0.000000000   -0.000000000
      2       15          -0.000000000   -0.000000000   -0.000000000
      3        1           0.004066915   -0.000328713   -0.000000000
      4        1          -0.004066915    0.000328713    0.000000000
 -------------------------------------------------------------------
 Cartesian Forces:  Max     0.004066915 RMS     0.001665725
 Leave Link  716 at Mon Apr 21 21:06:07 2025, MaxMem=   536870912 cpu:               1.3 elap:               0.3
 (Enter /home/szhao/Apps/g16/l103.exe)

 GradGradGradGradGradGradGradGradGradGradGradGradGradGradGradGradGradGrad
 Berny optimization.
 FormGI is forming the generalized inverse of G from B-inverse, IUseBI=4.
 Internal  Forces:  Max     0.010956003 RMS     0.005424302
 Search for a local minimum.
 Step number   1 out of a maximum of   21
 All quantities printed in internal units (Hartrees-Bohrs-Radians)
 RMS Force = .69292D-02 SwitMx=.10000D-02 MixMth= 1
 Mixed Optimization -- RFO/linear search
 Second derivative matrix not updated -- first step.
 The second derivative matrix:
                          X1        Y1        Z1        X2        Y2
           X1           0.50000
           Y1           0.00000   0.50000
           Z1           0.00000   0.00000   0.50000
           X2           0.00000   0.00000   0.00000   0.50000
           Y2           0.00000   0.00000   0.00000   0.00000   0.50000
           Z2           0.00000   0.00000   0.00000   0.00000   0.00000
           R1           0.00000   0.00000   0.00000   0.00000   0.00000
           R2           0.00000   0.00000   0.00000   0.00000   0.00000
           A1           0.00000   0.00000   0.00000   0.00000   0.00000
           A2           0.00000   0.00000   0.00000   0.00000   0.00000
           D1           0.00000   0.00000   0.00000   0.00000   0.00000
                          Z2        R1        R2        A1        A2
           Z2           0.50000
           R1           0.00000   0.20874
           R2           0.00000   0.00000   0.20874
           A1           0.00000   0.00000   0.00000   0.16000
           A2           0.00000   0.00000   0.00000   0.00000   0.16000
           D1           0.00000   0.00000   0.00000   0.00000   0.00000
                          D1
           D1           0.00230
 ITU=  0
     Eigenvalues ---    0.00230   0.16000   0.16000   0.20874   0.20874
     Eigenvalues --- 1000.000001000.000001000.000001000.000001000.00000
     Eigenvalues --- 1000.00000
 RFO step:  Lambda=-1.48662422D-03 EMin= 2.30000000D-03
 Linear search not attempted -- first point.
 Iteration  1 RMS(Cart)=  0.07714892 RMS(Int)=  0.00260695
 Iteration  2 RMS(Cart)=  0.00267712 RMS(Int)=  0.00000058
 Iteration  3 RMS(Cart)=  0.00000150 RMS(Int)=  0.00000000
 Iteration  4 RMS(Cart)=  0.00000000 RMS(Int)=  0.00000000
 ITry= 1 IFail=0 DXMaxC= 1.82D-01 DCOld= 1.00D+10 DXMaxT= 3.00D-01 DXLimC= 3.00D+00 Rises=F
 Variable       Old X    -DE/DX   Delta X   Delta X   Delta X     New X
                                 (Linear)    (Quad)   (Total)
    X1       -2.33285   0.00407   0.00000   0.00000   0.00000  -2.33285
    Y1        0.00000  -0.00503   0.00000   0.00000   0.00000   0.00000
    Z1        0.00000  -0.00000   0.00000   0.00000   0.00000   0.00000
    X2        2.33285  -0.00407   0.00000   0.00000   0.00000   2.33285
    Y2        0.00000   0.00503   0.00000   0.00000   0.00000   0.00000
    Z2        0.00000  -0.00000   0.00000   0.00000   0.00000   0.00000
    R1        2.68527   0.00003   0.00000   0.00016   0.00016   2.68543
    R2        2.68527   0.00003   0.00000   0.00016   0.00016   2.68543
    A1        1.64325  -0.01096   0.00000  -0.06784  -0.06784   1.57540
    A2        1.64325  -0.01096   0.00000  -0.06784  -0.06784   1.57540
    D1        3.14159  -0.00000   0.00000  -0.00000   0.00000   3.14159
         Item               Value     Threshold  Converged?
 Maximum Force            0.010956     0.000450     NO 
 RMS     Force            0.006929     0.000300     NO 
 Maximum Displacement     0.182010     0.001800     NO 
 RMS     Displacement     0.077670     0.001200     NO 
 Predicted change in Energy=-7.501543D-04
 Lowest energy point so far.  Saving SCF results.
 GradGradGradGradGradGradGradGradGradGradGradGradGradGradGradGradGradGrad

 Leave Link  103 at Mon Apr 21 21:06:08 2025, MaxMem=   536870912 cpu:               0.9 elap:               0.2
 (Enter /home/szhao/Apps/g16/l202.exe)
                          Input orientation:                          
 ---------------------------------------------------------------------
 Center     Atomic      Atomic             Coordinates (Angstroms)
 Number     Number       Type             X           Y           Z
 ---------------------------------------------------------------------
      1         15           0       -1.234490    0.000000    0.000000
      2         15           0        1.234490    0.000000    0.000000
      3          1           0       -1.241035   -1.421052   -0.000000
      4          1           0        1.241035    1.421052   -0.000000
 ---------------------------------------------------------------------
                    Distance matrix (angstroms):
                    1          2          3          4
     1  P    0.000000
     2  P    2.468979   0.000000
     3  H    1.421067   2.854402   0.000000
     4  H    2.854402   1.421067   3.773357   0.000000
 Symmetry turned off by external request.
 Stoichiometry    H2P2
 Framework group  C2H[SGH(H2P2)]
 Deg. of freedom     3
 Full point group                 C2H     NOp   4
 Rotational constants (GHZ):         128.4205886           5.1756601           4.9751496
 Leave Link  202 at Mon Apr 21 21:06:08 2025, MaxMem=   536870912 cpu:               0.1 elap:               0.1
 (Enter /home/szhao/Apps/g16/l301.exe)
 Standard basis: 6-311+G(d,p) (5D, 7F)
 Ernie: Thresh=  0.10000D-02 Tol=  0.10000D-05 Strict=F.
    72 basis functions,   116 primitive gaussians,    74 cartesian basis functions
    16 alpha electrons       16 beta electrons
       nuclear repulsion energy        65.0976709527 Hartrees.
 IExCor= 4336 DFT=T Ex+Corr=M062X ExCW=0 ScaHFX=  0.540000
 ScaDFX=  1.000000  1.000000  1.000000  1.000000 ScalE2=  1.000000  1.000000
 IRadAn=      7 IRanWt=     -1 IRanGd=            0 ICorTp=0 IEmpDi=  4
 NAtoms=    4 NActive=    4 NUniq=    4 SFac= 1.00D+00 NAtFMM=   60 NAOKFM=F Big=F
 Integral buffers will be    131072 words long.
 Raffenetti 2 integral format.
 Two-electron integral symmetry is turned off.
 Leave Link  301 at Mon Apr 21 21:06:09 2025, MaxMem=   536870912 cpu:               1.5 elap:               0.4
 (Enter /home/szhao/Apps/g16/l302.exe)
 NPDir=0 NMtPBC=     1 NCelOv=     1 NCel=       1 NClECP=     1 NCelD=      1
         NCelK=      1 NCelE2=     1 NClLst=     1 CellRange=     0.0.
 One-electron integrals computed using PRISM.
 NBasis=    72 RedAO= T EigKep=  2.48D-03  NBF=    72
 NBsUse=    72 1.00D-06 EigRej= -1.00D+00 NBFU=    72
 Precomputing XC quadrature grid using
 IXCGrd= 4 IRadAn=           7 IRanWt=          -1 IRanGd=           0 AccXCQ= 0.00D+00.
 Generated NRdTot=       0 NPtTot=           0 NUsed=           0 NTot=          32
 NSgBfM=    72    72    72    72    72 MxSgAt=     4 MxSgA2=     4.
 Leave Link  302 at Mon Apr 21 21:06:10 2025, MaxMem=   536870912 cpu:               3.0 elap:               0.6
 (Enter /home/szhao/Apps/g16/l303.exe)
 DipDrv:  MaxL=1.
 Leave Link  303 at Mon Apr 21 21:06:10 2025, MaxMem=   536870912 cpu:               1.2 elap:               0.3
 (Enter /home/szhao/Apps/g16/l401.exe)
 Initial guess from the checkpoint file:  "opt.chk"
 B after Tr=     0.000000    0.000000   -0.000000
         Rot=    0.999996   -0.000000   -0.000000   -0.002668 Ang=  -0.31 deg.
 Guess basis will be translated and rotated to current coordinates.
 JPrj=2 DoOrth=T DoCkMO=T.
 Initial guess <Sx>= 0.0000 <Sy>= 0.0000 <Sz>= 0.0000 <S**2>=-0.0000 S=-0.0000
 Generating alternative initial guess.
 ExpMin= 3.48D-02 ExpMax= 7.75D+04 ExpMxC= 2.65D+03 IAcc=3 IRadAn=         5 AccDes= 0.00D+00
 Harris functional with IExCor= 1009 and IRadAn=       5 diagonalized for initial guess.
 HarFok:  IExCor= 1009 AccDes= 0.00D+00 IRadAn=         5 IDoV= 1 UseB2=F ITyADJ=14
 ICtDFT=  3500011 ScaDFX=  1.000000  1.000000  1.000000  1.000000
 FoFCou: FMM=F IPFlag=           0 FMFlag=      100000 FMFlg1=           0
         NFxFlg=           0 DoJE=T BraDBF=F KetDBF=T FulRan=T
         wScrn=  0.000000 ICntrl=       500 IOpCl=  0 I1Cent=   200000004 NGrid=           0
         NMat0=    1 NMatS0=      1 NMatT0=    0 NMatD0=    1 NMtDS0=    0 NMtDT0=    0
 Symmetry not used in FoFCou.
 Harris En= -683.501824616333    
 Leave Link  401 at Mon Apr 21 21:06:11 2025, MaxMem=   536870912 cpu:               4.8 elap:               0.8
 (Enter /home/szhao/Apps/g16/l502.exe)
 Keep R1 and R2 ints in memory in canonical form, NReq=14118010.
 FoFCou: FMM=F IPFlag=           0 FMFlag=           0 FMFlg1=           0
         NFxFlg=           0 DoJE=F BraDBF=F KetDBF=F FulRan=T
         wScrn=  0.000000 ICntrl=       600 IOpCl=  0 I1Cent=           0 NGrid=           0
         NMat0=    1 NMatS0=   2628 NMatT0=    0 NMatD0=    1 NMtDS0=    0 NMtDT0=    0
 Symmetry not used in FoFCou.
 Two-electron integral symmetry not used.
 UHF open shell SCF:
 Using DIIS extrapolation, IDIIS=  1040.
 NGot=   536870912 LenX=   529949706 LenY=   529943789
 Requested convergence on RMS density matrix=1.00D-08 within 128 cycles.
 Requested convergence on MAX density matrix=1.00D-06.
 Requested convergence on             energy=1.00D-06.
 No special actions if energy rises.

 Cycle   1  Pass 1  IDiag  1:
 E= -683.793618764693    
 DIIS: error= 2.81D-03 at cycle   1 NSaved=   1.
 NSaved= 1 IEnMin= 1 EnMin= -683.793618764693     IErMin= 1 ErrMin= 2.81D-03
 ErrMax= 2.81D-03  0.00D+00 EMaxC= 1.00D-01 BMatC= 1.12D-03 BMatP= 1.12D-03
 IDIUse=3 WtCom= 9.72D-01 WtEn= 2.81D-02
 Coeff-Com:  0.100D+01
 Coeff-En:   0.100D+01
 Coeff:      0.100D+01
 Gap=     0.436 Goal=   None    Shift=    0.000
 Gap=     0.436 Goal=   None    Shift=    0.000
 GapD=    0.436 DampG=2.000 DampE=1.000 DampFc=2.0000 IDamp=-1.
 RMSDP=4.48D-04 MaxDP=3.97D-03              OVMax= 1.09D-02

 Cycle   2  Pass 1  IDiag  1:
 E= -683.794171074376     Delta-E=       -0.000552309683 Rises=F Damp=F
 DIIS: error= 4.67D-04 at cycle   2 NSaved=   2.
 NSaved= 2 IEnMin= 2 EnMin= -683.794171074376     IErMin= 2 ErrMin= 4.67D-04
 ErrMax= 4.67D-04  0.00D+00 EMaxC= 1.00D-01 BMatC= 3.60D-05 BMatP= 1.12D-03
 IDIUse=3 WtCom= 9.95D-01 WtEn= 4.67D-03
 Coeff-Com: -0.125D+00 0.112D+01
 Coeff-En:   0.000D+00 0.100D+01
 Coeff:     -0.124D+00 0.112D+01
 Gap=     0.171 Goal=   None    Shift=    0.000
 Gap=     0.171 Goal=   None    Shift=    0.000
 RMSDP=9.77D-05 MaxDP=1.14D-03 DE=-5.52D-04 OVMax= 2.59D-03

 Cycle   3  Pass 1  IDiag  1:
 E= -683.794196248903     Delta-E=       -0.000025174526 Rises=F Damp=F
 DIIS: error= 8.57D-05 at cycle   3 NSaved=   3.
 NSaved= 3 IEnMin= 3 EnMin= -683.794196248903     IErMin= 3 ErrMin= 8.57D-05
 ErrMax= 8.57D-05  0.00D+00 EMaxC= 1.00D-01 BMatC= 2.43D-06 BMatP= 3.60D-05
 IDIUse=1 WtCom= 1.00D+00 WtEn= 0.00D+00
 Coeff-Com: -0.334D-01 0.186D+00 0.847D+00
 Coeff:     -0.334D-01 0.186D+00 0.847D+00
 Gap=     0.171 Goal=   None    Shift=    0.000
 Gap=     0.171 Goal=   None    Shift=    0.000
 RMSDP=2.79D-05 MaxDP=3.52D-04 DE=-2.52D-05 OVMax= 7.80D-04

 Cycle   4  Pass 1  IDiag  1:
 E= -683.794197585335     Delta-E=       -0.000001336432 Rises=F Damp=F
 DIIS: error= 4.43D-05 at cycle   4 NSaved=   4.
 NSaved= 4 IEnMin= 4 EnMin= -683.794197585335     IErMin= 4 ErrMin= 4.43D-05
 ErrMax= 4.43D-05  0.00D+00 EMaxC= 1.00D-01 BMatC= 4.15D-07 BMatP= 2.43D-06
 IDIUse=1 WtCom= 1.00D+00 WtEn= 0.00D+00
 Coeff-Com:  0.487D-02-0.783D-01 0.201D+00 0.873D+00
 Coeff:      0.487D-02-0.783D-01 0.201D+00 0.873D+00
 Gap=     0.171 Goal=   None    Shift=    0.000
 Gap=     0.171 Goal=   None    Shift=    0.000
 RMSDP=8.20D-06 MaxDP=1.03D-04 DE=-1.34D-06 OVMax= 1.95D-04

 Cycle   5  Pass 1  IDiag  1:
 E= -683.794197745182     Delta-E=       -0.000000159846 Rises=F Damp=F
 DIIS: error= 4.35D-06 at cycle   5 NSaved=   5.
 NSaved= 5 IEnMin= 5 EnMin= -683.794197745182     IErMin= 5 ErrMin= 4.35D-06
 ErrMax= 4.35D-06  0.00D+00 EMaxC= 1.00D-01 BMatC= 7.23D-09 BMatP= 4.15D-07
 IDIUse=1 WtCom= 1.00D+00 WtEn= 0.00D+00
 Coeff-Com:  0.218D-02-0.240D-01 0.225D-01 0.138D+00 0.861D+00
 Coeff:      0.218D-02-0.240D-01 0.225D-01 0.138D+00 0.861D+00
 Gap=     0.171 Goal=   None    Shift=    0.000
 Gap=     0.171 Goal=   None    Shift=    0.000
 RMSDP=1.50D-06 MaxDP=1.96D-05 DE=-1.60D-07 OVMax= 3.26D-05

 Cycle   6  Pass 1  IDiag  1:
 E= -683.794197748195     Delta-E=       -0.000000003013 Rises=F Damp=F
 DIIS: error= 6.57D-07 at cycle   6 NSaved=   6.
 NSaved= 6 IEnMin= 6 EnMin= -683.794197748195     IErMin= 6 ErrMin= 6.57D-07
 ErrMax= 6.57D-07  0.00D+00 EMaxC= 1.00D-01 BMatC= 1.85D-10 BMatP= 7.23D-09
 IDIUse=1 WtCom= 1.00D+00 WtEn= 0.00D+00
 Coeff-Com: -0.229D-03 0.371D-02-0.705D-02-0.450D-01-0.142D-01 0.106D+01
 Coeff:     -0.229D-03 0.371D-02-0.705D-02-0.450D-01-0.142D-01 0.106D+01
 Gap=     0.171 Goal=   None    Shift=    0.000
 Gap=     0.171 Goal=   None    Shift=    0.000
 RMSDP=4.36D-07 MaxDP=5.22D-06 DE=-3.01D-09 OVMax= 9.73D-06

 Cycle   7  Pass 1  IDiag  1:
 E= -683.794197748325     Delta-E=       -0.000000000130 Rises=F Damp=F
 DIIS: error= 1.33D-07 at cycle   7 NSaved=   7.
 NSaved= 7 IEnMin= 7 EnMin= -683.794197748325     IErMin= 7 ErrMin= 1.33D-07
 ErrMax= 1.33D-07  0.00D+00 EMaxC= 1.00D-01 BMatC= 3.62D-12 BMatP= 1.85D-10
 IDIUse=1 WtCom= 1.00D+00 WtEn= 0.00D+00
 Coeff-Com: -0.535D-04 0.727D-03-0.103D-02-0.758D-02-0.144D-01 0.115D+00
 Coeff-Com:  0.908D+00
 Coeff:     -0.535D-04 0.727D-03-0.103D-02-0.758D-02-0.144D-01 0.115D+00
 Coeff:      0.908D+00
 Gap=     0.171 Goal=   None    Shift=    0.000
 Gap=     0.171 Goal=   None    Shift=    0.000
 RMSDP=3.49D-08 MaxDP=3.81D-07 DE=-1.30D-10 OVMax= 8.91D-07

 Cycle   8  Pass 1  IDiag  1:
 E= -683.794197748327     Delta-E=       -0.000000000002 Rises=F Damp=F
 DIIS: error= 1.65D-08 at cycle   8 NSaved=   8.
 NSaved= 8 IEnMin= 8 EnMin= -683.794197748327     IErMin= 8 ErrMin= 1.65D-08
 ErrMax= 1.65D-08  0.00D+00 EMaxC= 1.00D-01 BMatC= 1.24D-13 BMatP= 3.62D-12
 IDIUse=1 WtCom= 1.00D+00 WtEn= 0.00D+00
 Coeff-Com:  0.588D-05-0.116D-03 0.274D-03 0.153D-02-0.653D-03-0.382D-01
 Coeff-Com:  0.521D-01 0.985D+00
 Coeff:      0.588D-05-0.116D-03 0.274D-03 0.153D-02-0.653D-03-0.382D-01
 Coeff:      0.521D-01 0.985D+00
 Gap=     0.171 Goal=   None    Shift=    0.000
 Gap=     0.171 Goal=   None    Shift=    0.000
 RMSDP=9.40D-09 MaxDP=1.09D-07 DE=-1.82D-12 OVMax= 2.35D-07

 SCF Done:  E(UM062X) =  -683.794197748     A.U. after    8 cycles
            NFock=  8  Conv=0.94D-08     -V/T= 2.0018
 <Sx>= 0.0000 <Sy>= 0.0000 <Sz>= 0.0000 <S**2>=-0.0000 S=-0.0000
 <L.S>=  0.00000000000    
 KE= 6.825474161391D+02 PE=-1.756881571751D+03 EE= 3.254422869109D+02
 Annihilation of the first spin contaminant:
 S**2 before annihilation    -0.0000,   after     0.0000
 Leave Link  502 at Mon Apr 21 21:06:21 2025, MaxMem=   536870912 cpu:              62.1 elap:               9.0
 (Enter /home/szhao/Apps/g16/l701.exe)
 ... and contract with generalized density number  0.
 Compute integral first derivatives.
 Leave Link  701 at Mon Apr 21 21:06:22 2025, MaxMem=   536870912 cpu:               2.1 elap:               0.5
 (Enter /home/szhao/Apps/g16/l702.exe)
 L702 exits ... SP integral derivatives will be done elsewhere.
 Leave Link  702 at Mon Apr 21 21:06:22 2025, MaxMem=   536870912 cpu:               1.0 elap:               0.3
 (Enter /home/szhao/Apps/g16/l703.exe)
 Integral derivatives from FoFJK, PRISM(SPDF).
 Compute integral first derivatives, UseDBF=F ICtDFT=           0.
 Calling FoFJK, ICntrl=      2127 FMM=F ISym2X=0 I1Cent= 0 IOpClX= 1 NMat=1 NMatS=1 NMatT=0.
 FoFJK:  IHMeth= 1 ICntrl=    2127 DoSepK=F KAlg= 0 I1Cent=           0 FoldK=F
 IRaf=         0 NMat=       1 IRICut=       1 DoRegI=T DoRafI=F ISym2E= 0 IDoP0=0 IntGTp=1.
 FoFCou: FMM=F IPFlag=           0 FMFlag=      100000 FMFlg1=         800
         NFxFlg=           0 DoJE=F BraDBF=F KetDBF=F FulRan=T
         wScrn=  0.000000 ICntrl=      2127 IOpCl=  1 I1Cent=           0 NGrid=           0
         NMat0=    1 NMatS0=      1 NMatT0=    0 NMatD0=    1 NMtDS0=    0 NMtDT0=    0
 Symmetry not used in FoFCou.
 Leave Link  703 at Mon Apr 21 21:06:25 2025, MaxMem=   536870912 cpu:              13.6 elap:               2.0
 (Enter /home/szhao/Apps/g16/l716.exe)
 Dipole        =-5.02713187D-08 1.17242038D-09 1.25904520D-11
 -------------------------------------------------------------------
 Center     Atomic                   Forces (Hartrees/Bohr)
 Number     Number              X              Y              Z
 -------------------------------------------------------------------
      1       15          -0.000000000   -0.000000000   -0.000000000
      2       15          -0.000000000   -0.000000000   -0.000000000
      3        1          -0.000537123    0.000128842   -0.000000000
      4        1           0.000537123   -0.000128841   -0.000000000
 -------------------------------------------------------------------
 Cartesian Forces:  Max     0.000537123 RMS     0.000225500
 Leave Link  716 at Mon Apr 21 21:06:25 2025, MaxMem=   536870912 cpu:               1.4 elap:               0.3
 (Enter /home/szhao/Apps/g16/l103.exe)

 GradGradGradGradGradGradGradGradGradGradGradGradGradGradGradGradGradGrad
 Berny optimization.
 Using GEDIIS/GDIIS optimizer.
 FormGI is forming the generalized inverse of G from B-inverse, IUseBI=4.
 Internal  Forces:  Max     0.001443983 RMS     0.000732219
 Search for a local minimum.
 Step number   2 out of a maximum of   21
 All quantities printed in internal units (Hartrees-Bohrs-Radians)
 RMS Force = .91675D-03 SwitMx=.10000D-02 MixMth= 2
 Mixed Optimization -- En-DIIS/RFO-DIIS
 Update second derivatives using D2CorX and points    1    2
 DE= -6.51D-04 DEPred=-7.50D-04 R= 8.68D-01
 TightC=F SS=  1.41D+00  RLast= 9.59D-02 DXNew= 5.0454D-01 2.8784D-01
 Trust test= 8.68D-01 RLast= 9.59D-02 DXMaxT set to 3.00D-01
 The second derivative matrix:
                          X1        Y1        Z1        X2        Y2
           X1           0.51260
           Y1          -0.01580   0.51981
           Z1           0.00000  -0.00000   0.50000
           X2          -0.01260   0.01580  -0.00000   0.51260
           Y2           0.01580  -0.01981   0.00000  -0.01580   0.51981
           Z2           0.00000  -0.00000   0.00000  -0.00000   0.00000
           R1           0.00044  -0.00055   0.00000  -0.00044   0.00055
           R2           0.00044  -0.00055   0.00000  -0.00044   0.00055
           A1          -0.03393   0.04254  -0.00000   0.03393  -0.04254
           A2          -0.03393   0.04254  -0.00000   0.03393  -0.04254
           D1           0.00000  -0.00000   0.00000  -0.00000   0.00000
                          Z2        R1        R2        A1        A2
           Z2           0.50000
           R1           0.00000   0.20875
           R2           0.00000   0.00001   0.20875
           A1          -0.00000  -0.00093  -0.00093   0.17138
           A2          -0.00000  -0.00093  -0.00093   0.01138   0.17138
           D1           0.00000   0.00000   0.00000  -0.00000  -0.00000
                          D1
           D1           0.00230
 ITU=  1  0
 Use linear search instead of GDIIS.
     Eigenvalues ---    0.00230   0.16000   0.18263   0.20874   0.20890
     Eigenvalues --- 1000.000001000.000001000.000001000.000001000.00000
     Eigenvalues --- 1000.00000
 RFO step:  Lambda=-1.13255152D-07 EMin= 2.30000000D-03
 Quartic linear search produced a step of -0.11430.
 Iteration  1 RMS(Cart)=  0.00887491 RMS(Int)=  0.00003438
 Iteration  2 RMS(Cart)=  0.00003441 RMS(Int)=  0.00000000
 Iteration  3 RMS(Cart)=  0.00000000 RMS(Int)=  0.00000000
 ITry= 1 IFail=0 DXMaxC= 2.08D-02 DCOld= 1.00D+10 DXMaxT= 3.00D-01 DXLimC= 3.00D+00 Rises=F
 Variable       Old X    -DE/DX   Delta X   Delta X   Delta X     New X
                                 (Linear)    (Quad)   (Total)
    X1       -2.33285  -0.00054   0.00000   0.00000   0.00000  -2.33285
    Y1        0.00000   0.00075   0.00000   0.00000   0.00000   0.00000
    Z1        0.00000  -0.00000   0.00000   0.00000   0.00000   0.00000
    X2        2.33285   0.00054   0.00000   0.00000   0.00000   2.33285
    Y2        0.00000  -0.00075   0.00000   0.00000   0.00000   0.00000
    Z2        0.00000  -0.00000   0.00000   0.00000   0.00000   0.00000
    R1        2.68543  -0.00013  -0.00002  -0.00052  -0.00054   2.68489
    R2        2.68543  -0.00013  -0.00002  -0.00052  -0.00054   2.68489
    A1        1.57540   0.00144   0.00775  -0.00001   0.00775   1.58315
    A2        1.57540   0.00144   0.00775  -0.00001   0.00775   1.58315
    D1        3.14159  -0.00000   0.00000  -0.00000   0.00000   3.14159
         Item               Value     Threshold  Converged?
 Maximum Force            0.001444     0.000450     NO 
 RMS     Force            0.000917     0.000300     NO 
 Maximum Displacement     0.020799     0.001800     NO 
 RMS     Displacement     0.008874     0.001200     NO 
 Predicted change in Energy=-1.146424D-05
 Lowest energy point so far.  Saving SCF results.
 GradGradGradGradGradGradGradGradGradGradGradGradGradGradGradGradGradGrad

 Leave Link  103 at Mon Apr 21 21:06:26 2025, MaxMem=   536870912 cpu:               1.0 elap:               0.3
 (Enter /home/szhao/Apps/g16/l202.exe)
                          Input orientation:                          
 ---------------------------------------------------------------------
 Center     Atomic      Atomic             Coordinates (Angstroms)
 Number     Number       Type             X           Y           Z
 ---------------------------------------------------------------------
      1         15           0       -1.234490    0.000000    0.000000
      2         15           0        1.234490    0.000000    0.000000
      3          1           0       -1.252041   -1.420675   -0.000000
      4          1           0        1.252041    1.420675   -0.000000
 ---------------------------------------------------------------------
                    Distance matrix (angstroms):
                    1          2          3          4
     1  P    0.000000
     2  P    2.468979   0.000000
     3  H    1.420784   2.863766   0.000000
     4  H    2.863766   1.420784   3.787308   0.000000
 Symmetry turned off by external request.
 Stoichiometry    H2P2
 Framework group  C2H[SGH(H2P2)]
 Deg. of freedom     3
 Full point group                 C2H     NOp   4
 Rotational constants (GHZ):         128.5644616           5.1726113           4.9725478
 Leave Link  202 at Mon Apr 21 21:06:26 2025, MaxMem=   536870912 cpu:               0.1 elap:               0.2
 (Enter /home/szhao/Apps/g16/l301.exe)
 Standard basis: 6-311+G(d,p) (5D, 7F)
 Ernie: Thresh=  0.10000D-02 Tol=  0.10000D-05 Strict=F.
    72 basis functions,   116 primitive gaussians,    74 cartesian basis functions
    16 alpha electrons       16 beta electrons
       nuclear repulsion energy        65.0811981492 Hartrees.
 IExCor= 4336 DFT=T Ex+Corr=M062X ExCW=0 ScaHFX=  0.540000
 ScaDFX=  1.000000  1.000000  1.000000  1.000000 ScalE2=  1.000000  1.000000
 IRadAn=      7 IRanWt=     -1 IRanGd=            0 ICorTp=0 IEmpDi=  4
 NAtoms=    4 NActive=    4 NUniq=    4 SFac= 1.00D+00 NAtFMM=   60 NAOKFM=F Big=F
 Integral buffers will be    131072 words long.
 Raffenetti 2 integral format.
 Two-electron integral symmetry is turned off.
 Leave Link  301 at Mon Apr 21 21:06:27 2025, MaxMem=   536870912 cpu:               1.0 elap:               0.2
 (Enter /home/szhao/Apps/g16/l302.exe)
 NPDir=0 NMtPBC=     1 NCelOv=     1 NCel=       1 NClECP=     1 NCelD=      1
         NCelK=      1 NCelE2=     1 NClLst=     1 CellRange=     0.0.
 One-electron integrals computed using PRISM.
 NBasis=    72 RedAO= T EigKep=  2.48D-03  NBF=    72
 NBsUse=    72 1.00D-06 EigRej= -1.00D+00 NBFU=    72
 Precomputing XC quadrature grid using
 IXCGrd= 4 IRadAn=           7 IRanWt=          -1 IRanGd=           0 AccXCQ= 0.00D+00.
 Generated NRdTot=       0 NPtTot=           0 NUsed=           0 NTot=          32
 NSgBfM=    72    72    72    72    72 MxSgAt=     4 MxSgA2=     4.
 Leave Link  302 at Mon Apr 21 21:06:27 2025, MaxMem=   536870912 cpu:               2.7 elap:               0.5
 (Enter /home/szhao/Apps/g16/l303.exe)
 DipDrv:  MaxL=1.
 Leave Link  303 at Mon Apr 21 21:06:28 2025, MaxMem=   536870912 cpu:               1.6 elap:               0.3
 (Enter /home/szhao/Apps/g16/l401.exe)
 Initial guess from the checkpoint file:  "opt.chk"
 B after Tr=     0.000000    0.000000   -0.000000
         Rot=    1.000000   -0.000000    0.000000    0.000305 Ang=   0.03 deg.
 Guess basis will be translated and rotated to current coordinates.
 JPrj=2 DoOrth=T DoCkMO=T.
 Initial guess <Sx>= 0.0000 <Sy>= 0.0000 <Sz>= 0.0000 <S**2>= 0.0000 S= 0.0000
 Generating alternative initial guess.
 ExpMin= 3.48D-02 ExpMax= 7.75D+04 ExpMxC= 2.65D+03 IAcc=3 IRadAn=         5 AccDes= 0.00D+00
 Harris functional with IExCor= 1009 and IRadAn=       5 diagonalized for initial guess.
 HarFok:  IExCor= 1009 AccDes= 0.00D+00 IRadAn=         5 IDoV= 1 UseB2=F ITyADJ=14
 ICtDFT=  3500011 ScaDFX=  1.000000  1.000000  1.000000  1.000000
 FoFCou: FMM=F IPFlag=           0 FMFlag=      100000 FMFlg1=           0
         NFxFlg=           0 DoJE=T BraDBF=F KetDBF=T FulRan=T
         wScrn=  0.000000 ICntrl=       500 IOpCl=  0 I1Cent=   200000004 NGrid=           0
         NMat0=    1 NMatS0=      1 NMatT0=    0 NMatD0=    1 NMtDS0=    0 NMtDT0=    0
 Symmetry not used in FoFCou.
 Harris En= -683.501754142637    
 Leave Link  401 at Mon Apr 21 21:06:28 2025, MaxMem=   536870912 cpu:               4.1 elap:               0.7
 (Enter /home/szhao/Apps/g16/l502.exe)
 Keep R1 and R2 ints in memory in canonical form, NReq=14118010.
 FoFCou: FMM=F IPFlag=           0 FMFlag=           0 FMFlg1=           0
         NFxFlg=           0 DoJE=F BraDBF=F KetDBF=F FulRan=T
         wScrn=  0.000000 ICntrl=       600 IOpCl=  0 I1Cent=           0 NGrid=           0
         NMat0=    1 NMatS0=   2628 NMatT0=    0 NMatD0=    1 NMtDS0=    0 NMtDT0=    0
 Symmetry not used in FoFCou.
 Two-electron integral symmetry not used.
 UHF open shell SCF:
 Using DIIS extrapolation, IDIIS=  1040.
 NGot=   536870912 LenX=   529949706 LenY=   529943789
 Requested convergence on RMS density matrix=1.00D-08 within 128 cycles.
 Requested convergence on MAX density matrix=1.00D-06.
 Requested convergence on             energy=1.00D-06.
 No special actions if energy rises.

 Cycle   1  Pass 1  IDiag  1:
 E= -683.794201346345    
 DIIS: error= 3.19D-04 at cycle   1 NSaved=   1.
 NSaved= 1 IEnMin= 1 EnMin= -683.794201346345     IErMin= 1 ErrMin= 3.19D-04
 ErrMax= 3.19D-04  0.00D+00 EMaxC= 1.00D-01 BMatC= 1.50D-05 BMatP= 1.50D-05
 IDIUse=3 WtCom= 9.97D-01 WtEn= 3.19D-03
 Coeff-Com:  0.100D+01
 Coeff-En:   0.100D+01
 Coeff:      0.100D+01
 Gap=     0.439 Goal=   None    Shift=    0.000
 Gap=     0.439 Goal=   None    Shift=    0.000
 RMSDP=5.09D-05 MaxDP=4.65D-04              OVMax= 1.25D-03

 Cycle   2  Pass 1  IDiag  1:
 E= -683.794208772242     Delta-E=       -0.000007425897 Rises=F Damp=F
 DIIS: error= 5.40D-05 at cycle   2 NSaved=   2.
 NSaved= 2 IEnMin= 2 EnMin= -683.794208772242     IErMin= 2 ErrMin= 5.40D-05
 ErrMax= 5.40D-05  0.00D+00 EMaxC= 1.00D-01 BMatC= 4.60D-07 BMatP= 1.50D-05
 IDIUse=1 WtCom= 1.00D+00 WtEn= 0.00D+00
 Coeff-Com: -0.128D+00 0.113D+01
 Coeff:     -0.128D+00 0.113D+01
 Gap=     0.171 Goal=   None    Shift=    0.000
 Gap=     0.171 Goal=   None    Shift=    0.000
 RMSDP=1.15D-05 MaxDP=1.35D-04 DE=-7.43D-06 OVMax= 3.14D-04

 Cycle   3  Pass 1  IDiag  1:
 E= -683.794209103834     Delta-E=       -0.000000331592 Rises=F Damp=F
 DIIS: error= 9.95D-06 at cycle   3 NSaved=   3.
 NSaved= 3 IEnMin= 3 EnMin= -683.794209103834     IErMin= 3 ErrMin= 9.95D-06
 ErrMax= 9.95D-06  0.00D+00 EMaxC= 1.00D-01 BMatC= 2.96D-08 BMatP= 4.60D-07
 IDIUse=1 WtCom= 1.00D+00 WtEn= 0.00D+00
 Coeff-Com: -0.316D-01 0.177D+00 0.855D+00
 Coeff:     -0.316D-01 0.177D+00 0.855D+00
 Gap=     0.171 Goal=   None    Shift=    0.000
 Gap=     0.171 Goal=   None    Shift=    0.000
 RMSDP=3.13D-06 MaxDP=4.00D-05 DE=-3.32D-07 OVMax= 8.65D-05

 Cycle   4  Pass 1  IDiag  1:
 E= -683.794209119950     Delta-E=       -0.000000016116 Rises=F Damp=F
 DIIS: error= 5.14D-06 at cycle   4 NSaved=   4.
 NSaved= 4 IEnMin= 4 EnMin= -683.794209119950     IErMin= 4 ErrMin= 5.14D-06
 ErrMax= 5.14D-06  0.00D+00 EMaxC= 1.00D-01 BMatC= 5.57D-09 BMatP= 2.96D-08
 IDIUse=1 WtCom= 1.00D+00 WtEn= 0.00D+00
 Coeff-Com:  0.562D-02-0.835D-01 0.219D+00 0.859D+00
 Coeff:      0.562D-02-0.835D-01 0.219D+00 0.859D+00
 Gap=     0.171 Goal=   None    Shift=    0.000
 Gap=     0.171 Goal=   None    Shift=    0.000
 RMSDP=9.39D-07 MaxDP=1.17D-05 DE=-1.61D-08 OVMax= 2.23D-05

 Cycle   5  Pass 1  IDiag  1:
 E= -683.794209122042     Delta-E=       -0.000000002091 Rises=F Damp=F
 DIIS: error= 5.40D-07 at cycle   5 NSaved=   5.
 NSaved= 5 IEnMin= 5 EnMin= -683.794209122042     IErMin= 5 ErrMin= 5.40D-07
 ErrMax= 5.40D-07  0.00D+00 EMaxC= 1.00D-01 BMatC= 7.27D-11 BMatP= 5.57D-09
 IDIUse=1 WtCom= 1.00D+00 WtEn= 0.00D+00
 Coeff-Com:  0.178D-02-0.190D-01 0.205D-01 0.842D-01 0.913D+00
 Coeff:      0.178D-02-0.190D-01 0.205D-01 0.842D-01 0.913D+00
 Gap=     0.171 Goal=   None    Shift=    0.000
 Gap=     0.171 Goal=   None    Shift=    0.000
 RMSDP=1.71D-07 MaxDP=2.27D-06 DE=-2.09D-09 OVMax= 3.75D-06

 Cycle   6  Pass 1  IDiag  1:
 E= -683.794209122076     Delta-E=       -0.000000000035 Rises=F Damp=F
 DIIS: error= 7.56D-08 at cycle   6 NSaved=   6.
 NSaved= 6 IEnMin= 6 EnMin= -683.794209122076     IErMin= 6 ErrMin= 7.56D-08
 ErrMax= 7.56D-08  0.00D+00 EMaxC= 1.00D-01 BMatC= 2.71D-12 BMatP= 7.27D-11
 IDIUse=1 WtCom= 1.00D+00 WtEn= 0.00D+00
 Coeff-Com: -0.223D-03 0.374D-02-0.935D-02-0.468D-01 0.541D-01 0.999D+00
 Coeff:     -0.223D-03 0.374D-02-0.935D-02-0.468D-01 0.541D-01 0.999D+00
 Gap=     0.171 Goal=   None    Shift=    0.000
 Gap=     0.171 Goal=   None    Shift=    0.000
 RMSDP=4.79D-08 MaxDP=5.50D-07 DE=-3.48D-11 OVMax= 1.12D-06

 Cycle   7  Pass 1  IDiag  1:
 E= -683.794209122077     Delta-E=       -0.000000000000 Rises=F Damp=F
 DIIS: error= 8.69D-08 at cycle   7 NSaved=   7.
 NSaved= 7 IEnMin= 7 EnMin= -683.794209122077     IErMin= 6 ErrMin= 7.56D-08
 ErrMax= 8.69D-08  0.00D+00 EMaxC= 1.00D-01 BMatC= 1.30D-12 BMatP= 2.71D-12
 IDIUse=1 WtCom= 1.00D+00 WtEn= 0.00D+00
 Coeff-Com: -0.155D-03 0.246D-02-0.577D-02-0.288D-01 0.184D-01 0.593D+00
 Coeff-Com:  0.421D+00
 Coeff:     -0.155D-03 0.246D-02-0.577D-02-0.288D-01 0.184D-01 0.593D+00
 Coeff:      0.421D+00
 Gap=     0.171 Goal=   None    Shift=    0.000
 Gap=     0.171 Goal=   None    Shift=    0.000
 RMSDP=1.25D-08 MaxDP=2.65D-07 DE=-2.27D-13 OVMax= 7.06D-07

 Cycle   8  Pass 1  IDiag  1:
 E= -683.794209122077     Delta-E=       -0.000000000000 Rises=F Damp=F
 DIIS: error= 3.91D-08 at cycle   8 NSaved=   8.
 NSaved= 8 IEnMin= 8 EnMin= -683.794209122077     IErMin= 8 ErrMin= 3.91D-08
 ErrMax= 3.91D-08  0.00D+00 EMaxC= 1.00D-01 BMatC= 2.66D-13 BMatP= 1.30D-12
 IDIUse=1 WtCom= 1.00D+00 WtEn= 0.00D+00
 Coeff-Com: -0.148D-04 0.155D-03-0.123D-03-0.783D-03-0.111D-01 0.791D-03
 Coeff-Com:  0.313D+00 0.698D+00
 Coeff:     -0.148D-04 0.155D-03-0.123D-03-0.783D-03-0.111D-01 0.791D-03
 Coeff:      0.313D+00 0.698D+00
 Gap=     0.171 Goal=   None    Shift=    0.000
 Gap=     0.171 Goal=   None    Shift=    0.000
 RMSDP=4.57D-09 MaxDP=8.45D-08 DE=-4.55D-13 OVMax= 2.22D-07

 SCF Done:  E(UM062X) =  -683.794209122     A.U. after    8 cycles
            NFock=  8  Conv=0.46D-08     -V/T= 2.0018
 <Sx>= 0.0000 <Sy>= 0.0000 <Sz>= 0.0000 <S**2>=-0.0000 S=-0.0000
 <L.S>=  0.00000000000    
 KE= 6.825472211036D+02 PE=-1.756847199655D+03 EE= 3.254245712802D+02
 Annihilation of the first spin contaminant:
 S**2 before annihilation    -0.0000,   after     0.0000
 Leave Link  502 at Mon Apr 21 21:06:36 2025, MaxMem=   536870912 cpu:              54.6 elap:               7.8
 (Enter /home/szhao/Apps/g16/l701.exe)
 ... and contract with generalized density number  0.
 Compute integral first derivatives.
 Leave Link  701 at Mon Apr 21 21:06:37 2025, MaxMem=   536870912 cpu:               2.0 elap:               0.5
 (Enter /home/szhao/Apps/g16/l702.exe)
 L702 exits ... SP integral derivatives will be done elsewhere.
 Leave Link  702 at Mon Apr 21 21:06:38 2025, MaxMem=   536870912 cpu:               1.2 elap:               0.3
 (Enter /home/szhao/Apps/g16/l703.exe)
 Integral derivatives from FoFJK, PRISM(SPDF).
 Compute integral first derivatives, UseDBF=F ICtDFT=           0.
 Calling FoFJK, ICntrl=      2127 FMM=F ISym2X=0 I1Cent= 0 IOpClX= 1 NMat=1 NMatS=1 NMatT=0.
 FoFJK:  IHMeth= 1 ICntrl=    2127 DoSepK=F KAlg= 0 I1Cent=           0 FoldK=F
 IRaf=         0 NMat=       1 IRICut=       1 DoRegI=T DoRafI=F ISym2E= 0 IDoP0=0 IntGTp=1.
 FoFCou: FMM=F IPFlag=           0 FMFlag=      100000 FMFlg1=         800
         NFxFlg=           0 DoJE=F BraDBF=F KetDBF=F FulRan=T
         wScrn=  0.000000 ICntrl=      2127 IOpCl=  1 I1Cent=           0 NGrid=           0
         NMat0=    1 NMatS0=      1 NMatT0=    0 NMatD0=    1 NMtDS0=    0 NMtDT0=    0
 Symmetry not used in FoFCou.
 Leave Link  703 at Mon Apr 21 21:06:40 2025, MaxMem=   536870912 cpu:              11.3 elap:               1.6
 (Enter /home/szhao/Apps/g16/l716.exe)
 Dipole        =-4.27736069D-08 4.02117450D-10-3.75999331D-10
 -------------------------------------------------------------------
 Center     Atomic                   Forces (Hartrees/Bohr)
 Number     Number              X              Y              Z
 -------------------------------------------------------------------
      1       15          -0.000000000   -0.000000000   -0.000000000
      2       15          -0.000000000   -0.000000000   -0.000000000
      3        1          -0.000005506   -0.000000219    0.000000000
      4        1           0.000005506    0.000000219    0.000000000
 -------------------------------------------------------------------
 Cartesian Forces:  Max     0.000005506 RMS     0.000002250
 Leave Link  716 at Mon Apr 21 21:06:40 2025, MaxMem=   536870912 cpu:               0.6 elap:               0.2
 (Enter /home/szhao/Apps/g16/l103.exe)

 GradGradGradGradGradGradGradGradGradGradGradGradGradGradGradGradGradGrad
 Berny optimization.
 Using GEDIIS/GDIIS optimizer.
 FormGI is forming the generalized inverse of G from B-inverse, IUseBI=4.
 Internal  Forces:  Max     0.000014776 RMS     0.000007213
 Search for a local minimum.
 Step number   3 out of a maximum of   21
 All quantities printed in internal units (Hartrees-Bohrs-Radians)
 RMS Force = .93468D-05 SwitMx=.10000D-02 MixMth= 2
 Mixed Optimization -- En-DIIS/RFO-DIIS
 Swapping is turned off.
 Update second derivatives using D2CorX and points    1    2    3
 DE= -1.14D-05 DEPred=-1.15D-05 R= 9.92D-01
 TightC=F SS=  1.41D+00  RLast= 1.10D-02 DXNew= 5.0454D-01 3.2950D-02
 Trust test= 9.92D-01 RLast= 1.10D-02 DXMaxT set to 3.00D-01
 The second derivative matrix:
                          X1        Y1        Z1        X2        Y2
           X1           0.51275
           Y1          -0.01777   0.52479
           Z1           0.00000  -0.00000   0.50000
           X2          -0.01275   0.01777  -0.00000   0.51275
           Y2           0.01777  -0.02479   0.00000  -0.01777   0.52479
           Z2           0.00000  -0.00000   0.00000  -0.00000   0.00000
           R1           0.00045  -0.00105   0.00000  -0.00045   0.00105
           R2           0.00045  -0.00105   0.00000  -0.00045   0.00105
           A1          -0.03428   0.04779  -0.00000   0.03428  -0.04779
           A2          -0.03428   0.04779  -0.00000   0.03428  -0.04779
           D1           0.00000  -0.00000   0.00000  -0.00000   0.00000
                          Z2        R1        R2        A1        A2
           Z2           0.50000
           R1           0.00000   0.20875
           R2           0.00000   0.00001   0.20875
           A1          -0.00000  -0.00096  -0.00096   0.17216
           A2          -0.00000  -0.00096  -0.00096   0.01216   0.17216
           D1           0.00000   0.00000   0.00000  -0.00000  -0.00000
                          D1
           D1           0.00230
 ITU=  1  1  0
     Eigenvalues ---    0.00230   0.16000   0.18418   0.20874   0.20891
     Eigenvalues --- 1000.000001000.000001000.000001000.000001000.00000
     Eigenvalues --- 1000.00000
 En-DIIS/RFO-DIIS/Sim-DIIS IScMMF=       -3 using points:     3    2
 RFO step:  Lambda=-1.88328820D-09.
 NNeg= 0 NGDIIS= 2 SimSw=  2.50D-03 Rises=F DC= -1.14D-05 SmlDif=  1.00D-05
 NRisDI= 0 DoIntr=F SqrtH=F CThrHd= 10.0 CDAdj=  3.0
 RMS Error=  0.3420120652D-04 NUsed= 2 OKEnD=T EnDIS=F
 InvSVX:  RCond= 3.02D-05 Info=           0 Equed=N FErr=  9.07D-16 BErr=  3.01D-17
 DidBck=F Rises=F RFO-DIIS coefs:    1.01028   -0.01028
 Iteration  1 RMS(Cart)=  0.00009180 RMS(Int)=  0.00000000
 Iteration  2 RMS(Cart)=  0.00000001 RMS(Int)=  0.00000000
 ITry= 1 IFail=0 DXMaxC= 2.15D-04 DCOld= 1.00D+10 DXMaxT= 3.00D-01 DXLimC= 3.00D+00 Rises=F
 Variable       Old X    -DE/DX   Delta X   Delta X   Delta X     New X
                                 (Linear)    (Quad)   (Total)
    X1       -2.33285  -0.00001   0.00000   0.00000   0.00000  -2.33285
    Y1        0.00000   0.00001   0.00000   0.00000   0.00000   0.00000
    Z1        0.00000   0.00000   0.00000   0.00000   0.00000   0.00000
    X2        2.33285   0.00001   0.00000   0.00000   0.00000   2.33285
    Y2        0.00000  -0.00001   0.00000   0.00000   0.00000   0.00000
    Z2        0.00000   0.00000   0.00000   0.00000   0.00000   0.00000
    R1        2.68489   0.00000  -0.00001   0.00001   0.00000   2.68489
    R2        2.68489   0.00000  -0.00001   0.00001   0.00000   2.68489
    A1        1.58315   0.00001   0.00008   0.00000   0.00008   1.58323
    A2        1.58315   0.00001   0.00008   0.00000   0.00008   1.58323
    D1        3.14159   0.00000   0.00000   0.00000   0.00000  -3.14159
         Item               Value     Threshold  Converged?
 Maximum Force            0.000015     0.000450     YES
 RMS     Force            0.000009     0.000300     YES
 Maximum Displacement     0.000215     0.001800     YES
 RMS     Displacement     0.000092     0.001200     YES
 Predicted change in Energy=-1.185341D-09
 Optimization completed.
    -- Stationary point found.
                           ----------------------------
                           !   Optimized Parameters   !
                           ! (Angstroms and Degrees)  !
 --------------------------                            --------------------------
 ! Name  Definition              Value          Derivative Info.                !
 --------------------------------------------------------------------------------
 ! X1    R(1,-1)                -1.2345         -DE/DX =    0.0                 !
 ! Y1    R(1,-2)                 0.0            -DE/DX =    0.0                 !
 ! Z1    R(1,-3)                 0.0            -DE/DX =    0.0                 !
 ! X2    R(2,-1)                 1.2345         -DE/DX =    0.0                 !
 ! Y2    R(2,-2)                 0.0            -DE/DX =    0.0                 !
 ! Z2    R(2,-3)                 0.0            -DE/DX =    0.0                 !
 ! R1    R(1,3)                  1.4208         -DE/DX =    0.0                 !
 ! R2    R(2,4)                  1.4208         -DE/DX =    0.0                 !
 ! A1    A(2,1,3)               90.7078         -DE/DX =    0.0                 !
 ! A2    A(1,2,4)               90.7078         -DE/DX =    0.0                 !
 ! D1    D(3,1,2,4)           -180.0            -DE/DX =    0.0                 !
 --------------------------------------------------------------------------------
 Lowest energy point so far.  Saving SCF results.
 Largest change from initial coordinates is atom    3       0.085 Angstoms.
 GradGradGradGradGradGradGradGradGradGradGradGradGradGradGradGradGradGrad

 Leave Link  103 at Mon Apr 21 21:06:40 2025, MaxMem=   536870912 cpu:               0.8 elap:               0.2
 (Enter /home/szhao/Apps/g16/l202.exe)
                          Input orientation:                          
 ---------------------------------------------------------------------
 Center     Atomic      Atomic             Coordinates (Angstroms)
 Number     Number       Type             X           Y           Z
 ---------------------------------------------------------------------
      1         15           0       -1.234490    0.000000    0.000000
      2         15           0        1.234490    0.000000    0.000000
      3          1           0       -1.252041   -1.420675   -0.000000
      4          1           0        1.252041    1.420675   -0.000000
 ---------------------------------------------------------------------
                    Distance matrix (angstroms):
                    1          2          3          4
     1  P    0.000000
     2  P    2.468979   0.000000
     3  H    1.420784   2.863766   0.000000
     4  H    2.863766   1.420784   3.787308   0.000000
 Symmetry turned off by external request.
 Stoichiometry    H2P2
 Framework group  C2H[SGH(H2P2)]
 Deg. of freedom     3
 Full point group                 C2H     NOp   4
 Rotational constants (GHZ):         128.5644616           5.1726113           4.9725478
 Leave Link  202 at Mon Apr 21 21:06:41 2025, MaxMem=   536870912 cpu:               0.4 elap:               0.2
 (Enter /home/szhao/Apps/g16/l601.exe)
 Copying SCF densities to generalized density rwf, IOpCl= 1 IROHF=0.

 **********************************************************************

            Population analysis using the SCF density.

 **********************************************************************

 Alpha  occ. eigenvalues --  -78.06602 -78.06602  -6.88682  -6.88679  -5.00170
 Alpha  occ. eigenvalues --   -5.00169  -5.00087  -5.00081  -4.99933  -4.99930
 Alpha  occ. eigenvalues --   -0.72598  -0.64412  -0.41342  -0.39970  -0.31839
 Alpha  occ. eigenvalues --   -0.28650
 Alpha virt. eigenvalues --   -0.11586  -0.02532   0.01811   0.03525   0.04278
 Alpha virt. eigenvalues --    0.04435   0.04806   0.06342   0.06914   0.08423
 Alpha virt. eigenvalues --    0.10285   0.12937   0.28123   0.29035   0.30974
 Alpha virt. eigenvalues --    0.31417   0.31883   0.33786   0.41569   0.43644
 Alpha virt. eigenvalues --    0.54282   0.60215   0.62480   0.65589   0.66153
 Alpha virt. eigenvalues --    0.67610   0.67712   0.74073   0.78780   0.91212
 Alpha virt. eigenvalues --    0.93069   0.96753   1.42736   1.45644   1.46092
 Alpha virt. eigenvalues --    1.48666   1.52208   1.54700   1.58274   1.62006
 Alpha virt. eigenvalues --    1.64229   1.79226   2.03566   2.03585   2.58723
 Alpha virt. eigenvalues --    2.61896   6.87389   6.94617  13.95345  13.99676
 Alpha virt. eigenvalues --   14.00196  14.01856  14.04852  14.05004 163.13274
 Alpha virt. eigenvalues --  163.22037
  Beta  occ. eigenvalues --  -78.06602 -78.06602  -6.88682  -6.88679  -5.00170
  Beta  occ. eigenvalues --   -5.00169  -5.00087  -5.00081  -4.99933  -4.99930
  Beta  occ. eigenvalues --   -0.72598  -0.64412  -0.41342  -0.39970  -0.31839
  Beta  occ. eigenvalues --   -0.28650
  Beta virt. eigenvalues --   -0.11586  -0.02532   0.01811   0.03525   0.04278
  Beta virt. eigenvalues --    0.04435   0.04806   0.06342   0.06914   0.08423
  Beta virt. eigenvalues --    0.10285   0.12937   0.28123   0.29035   0.30974
  Beta virt. eigenvalues --    0.31417   0.31883   0.33786   0.41569   0.43644
  Beta virt. eigenvalues --    0.54282   0.60215   0.62480   0.65589   0.66153
  Beta virt. eigenvalues --    0.67610   0.67712   0.74073   0.78780   0.91212
  Beta virt. eigenvalues --    0.93069   0.96753   1.42736   1.45644   1.46092
  Beta virt. eigenvalues --    1.48666   1.52208   1.54700   1.58274   1.62006
  Beta virt. eigenvalues --    1.64229   1.79226   2.03566   2.03585   2.58723
  Beta virt. eigenvalues --    2.61896   6.87389   6.94617  13.95345  13.99676
  Beta virt. eigenvalues --   14.00196  14.01856  14.04852  14.05004 163.13274
  Beta virt. eigenvalues --  163.22037
          Condensed to atoms (all electrons):
               1          2          3          4
     1  P   14.388577   0.388115   0.223017  -0.011590
     2  P    0.388115  14.388577  -0.011590   0.223017
     3  H    0.223017  -0.011590   0.797707   0.002749
     4  H   -0.011590   0.223017   0.002749   0.797707
          Atomic-Atomic Spin Densities.
               1          2          3          4
     1  P    0.000000  -0.000000   0.000000   0.000000
     2  P   -0.000000   0.000000  -0.000000  -0.000000
     3  H    0.000000  -0.000000   0.000000  -0.000000
     4  H    0.000000  -0.000000  -0.000000   0.000000
 Mulliken charges and spin densities:
               1          2
     1  P    0.011882  -0.000000
     2  P    0.011882   0.000000
     3  H   -0.011882  -0.000000
     4  H   -0.011882   0.000000
 Sum of Mulliken charges =  -0.00000   0.00000
 Mulliken charges and spin densities with hydrogens summed into heavy atoms:
               1          2
     1  P    0.000000  -0.000000
     2  P   -0.000000   0.000000
 Electronic spatial extent (au):  <R**2>=            252.8569
 Charge=             -0.0000 electrons
 Dipole moment (field-independent basis, Debye):
    X=             -0.0000    Y=              0.0000    Z=             -0.0000  Tot=              0.0000
 Quadrupole moment (field-independent basis, Debye-Ang):
   XX=            -28.6834   YY=            -27.7416   ZZ=            -29.6309
   XY=              2.5942   XZ=             -0.0000   YZ=             -0.0000
 Traceless Quadrupole moment (field-independent basis, Debye-Ang):
   XX=              0.0018   YY=              0.9437   ZZ=             -0.9456
   XY=              2.5942   XZ=             -0.0000   YZ=             -0.0000
 Octapole moment (field-independent basis, Debye-Ang**2):
  XXX=             -0.0000  YYY=              0.0000  ZZZ=              0.0000  XYY=             -0.0000
  XXY=             -0.0000  XXZ=              0.0000  XZZ=             -0.0000  YZZ=             -0.0000
  YYZ=              0.0000  XYZ=             -0.0000
 Hexadecapole moment (field-independent basis, Debye-Ang**3):
 XXXX=           -308.2383 YYYY=            -62.7931 ZZZZ=            -51.9733 XXXY=              1.7768
 XXXZ=              0.0000 YYYX=             -5.6453 YYYZ=             -0.0000 ZZZX=             -0.0000
 ZZZY=             -0.0000 XXYY=            -61.6284 XXZZ=            -59.5787 YYZZ=            -19.6452
 XXYZ=             -0.0000 YYXZ=             -0.0000 ZZXY=             -1.6096
 N-N= 6.508119814921D+01 E-N=-1.756847199814D+03  KE= 6.825472211036D+02
                          Isotropic Fermi Contact Couplings
        Atom                 a.u.       MegaHertz       Gauss      10(-4) cm-1
     1  P(31)              0.00000       0.00000       0.00000       0.00000
     2  P(31)             -0.00000      -0.00000      -0.00000      -0.00000
     3  H(1)               0.00000       0.00000       0.00000       0.00000
     4  H(1)               0.00000       0.00000       0.00000       0.00000
 --------------------------------------------------------
       Center         ----  Spin Dipole Couplings  ----
                      3XX-RR        3YY-RR        3ZZ-RR
 --------------------------------------------------------
     1   Atom        0.000000      0.000000      0.000000
     2   Atom        0.000000      0.000000      0.000000
     3   Atom        0.000000      0.000000      0.000000
     4   Atom        0.000000      0.000000      0.000000
 --------------------------------------------------------
                        XY            XZ            YZ
 --------------------------------------------------------
     1   Atom        0.000000      0.000000      0.000000
     2   Atom        0.000000      0.000000      0.000000
     3   Atom        0.000000      0.000000      0.000000
     4   Atom        0.000000      0.000000      0.000000
 --------------------------------------------------------


 ---------------------------------------------------------------------------------
              Anisotropic Spin Dipole Couplings in Principal Axis System
 ---------------------------------------------------------------------------------

       Atom             a.u.   MegaHertz   Gauss  10(-4) cm-1        Axes

              Baa     0.0000     0.000     0.000     0.000  1.0000  0.0000  0.0000
     1 P(31)  Bbb     0.0000     0.000     0.000     0.000 -0.0000  1.0000  0.0000
              Bcc     0.0000     0.000     0.000     0.000  0.0000  0.0000  1.0000
 
              Baa     0.0000     0.000     0.000     0.000  1.0000  0.0000  0.0000
     2 P(31)  Bbb     0.0000     0.000     0.000     0.000 -0.0000  1.0000  0.0000
              Bcc     0.0000     0.000     0.000     0.000  0.0000  0.0000  1.0000
 
              Baa     0.0000     0.000     0.000     0.000  1.0000  0.0000  0.0000
     3 H(1)   Bbb     0.0000     0.000     0.000     0.000 -0.0000  1.0000  0.0000
              Bcc     0.0000     0.000     0.000     0.000  0.0000  0.0000  1.0000
 
              Baa     0.0000     0.000     0.000     0.000  1.0000  0.0000  0.0000
     4 H(1)   Bbb     0.0000     0.000     0.000     0.000 -0.0000  1.0000  0.0000
              Bcc     0.0000     0.000     0.000     0.000  0.0000  0.0000  1.0000
 

 ---------------------------------------------------------------------------------

 No NMR shielding tensors so no spin-rotation constants.
 Leave Link  601 at Mon Apr 21 21:06:42 2025, MaxMem=   536870912 cpu:               2.0 elap:               0.4
 (Enter /home/szhao/Apps/g16/l9999.exe)
 1\1\GINC-NODE03\FOpt\UM062X\6-311+G(d,p)\H2P2\SZHAO\21-Apr-2025\0\\#p 
 opt UM062X/6-311+G** nosymm int=superfine\\Title Card Required\\0,1\P,
 -1.23448966,0.,0.\P,1.23448966,0.,0.\H,-1.2520414232,-1.4206751981,-0.
 000000005\H,1.252041424,1.4206751995,-0.000000005\\Version=ES64L-G16Re
 vA.03\HF=-683.7942091\S2=0.\S2-1=0.\S2A=0.\RMSD=4.575e-09\RMSF=2.250e-
 06\Dipole=0.,0.,0.\Quadrupole=0.0013665,0.7016435,-0.70301,1.9287404,0
 .,0.\PG=C02H [SGH(H2P2)]\\@


 THE WORLD OF CHEMICAL REACTIONS IS LIKE A STAGE,
 ON WHICH SCENE AFTER SCENE IS CEASELESSLY PLAYED.
 THE ACTORS ON IT ARE THE ELEMENTS.
   -- CLEMENS WINKLER   BER. 30,13(1897)
 (DISCOVERER OF GERMANIUM, FEB 6, 1886)
 Job cpu time:       0 days  0 hours  4 minutes 41.5 seconds.
 Elapsed time:       0 days  0 hours  0 minutes 43.7 seconds.
 File lengths (MBytes):  RWF=     22 Int=      0 D2E=      0 Chk=      2 Scr=      2
 Normal termination of Gaussian 16 at Mon Apr 21 21:06:42 2025.
