Title Card Required                                                     
FOpt      UM062X                                                      6-311+G(d,p)        
Number of atoms                            I                6
Info1-9                                    I   N=           9
          15          15           0           0           0         110
           2          18        -502
Full Title                                 C   N=           2
Title Card Required     
Route                                      C   N=           5
#p opt UM062X/6-311+G** nosymm int=superfine SCF=NoVarAcc   
Charge                                     I                0
Multiplicity                               I                1
Number of electrons                        I               16
Number of alpha electrons                  I                8
Number of beta electrons                   I                8
Number of basis functions                  I               68
Number of independent functions            I               68
Number of point charges in /Mol/           I                0
Number of translation vectors              I                0
Atomic numbers                             I   N=           6
           6           6           1           1           1           1
Nuclear charges                            R   N=           6
  6.00000000E+00  6.00000000E+00  1.00000000E+00  1.00000000E+00  1.00000000E+00
  1.00000000E+00
Current cartesian coordinates              R   N=          18
 -6.68130624E+00  0.00000000E+00  0.00000000E+00  6.68130624E+00  0.00000000E+00
  0.00000000E+00 -8.00452937E+00 -1.62659902E+00  2.01525737E-09 -8.00447864E+00
  1.62663875E+00  1.75331675E-09  8.00452937E+00  1.62659902E+00  2.03549927E-09
  8.00447864E+00 -1.62663875E+00  1.77355997E-09
Number of symbols in /Mol/                 I                0
Force Field                                I                0
Atom Types                                 C   N=           6
                                                            
            
Int Atom Types                             I   N=           6
           0           0           0           0           0           0
MM charges                                 R   N=           6
  0.00000000E+00  0.00000000E+00  0.00000000E+00  0.00000000E+00  0.00000000E+00
  0.00000000E+00
Integer atomic weights                     I   N=           6
          12          12           1           1           1           1
Real atomic weights                        R   N=           6
  1.20000000E+01  1.20000000E+01  1.00782504E+00  1.00782504E+00  1.00782504E+00
  1.00782504E+00
Atom fragment info                         I   N=           6
           0           0           0           0           0           0
Atom residue num                           I   N=           6
           0           0           0           0           0           0
Nuclear spins                              I   N=           6
           0           0           1           1           1           1
Nuclear ZEff                               R   N=           6
 -3.60000000E+00 -3.60000000E+00 -1.00000000E+00 -1.00000000E+00 -1.00000000E+00
 -1.00000000E+00
Nuclear ZNuc                               R   N=           6
  6.00000000E+00  6.00000000E+00  1.00000000E+00  1.00000000E+00  1.00000000E+00
  1.00000000E+00
Nuclear QMom                               R   N=           6
  0.00000000E+00  0.00000000E+00  0.00000000E+00  0.00000000E+00  0.00000000E+00
  0.00000000E+00
Nuclear GFac                               R   N=           6
  0.00000000E+00  0.00000000E+00  2.79284600E+00  2.79284600E+00  2.79284600E+00
  2.79284600E+00
MicOpt                                     I   N=           6
          -2          -2          -1          -1          -1          -1
Number of residues                         I                0
Number of secondary structures             I                0
Redundant internal dimensions              I   N=           4
          20          10           6           4
Redundant internal coordinate indices      I   N=          80
           1          -1           0           0           1          -2
           0           0           1          -3           0           0
           2          -1           0           0           2          -2
           0           0           2          -3           0           0
           1           3           0           0           1           4
           0           0           2           5           0           0
           2           6           0           0           2           1
           3           0           2           1           4           0
           3           1           4           0           1           2
           5           0           1           2           6           0
           5           2           6           0           3           1
           2           5           3           1           2           6
           4           1           2           5           4           1
           2           6
Redundant internal coordinates             R   N=          20
 -6.68130624E+00  0.00000000E+00  0.00000000E+00  6.68130624E+00  0.00000000E+00
  0.00000000E+00  2.09684139E+00  2.09684020E+00  2.09684139E+00  2.09684020E+00
  2.25370933E+00  2.25367860E+00  1.77579738E+00  2.25370933E+00  2.25367860E+00
  1.77579738E+00  3.14159265E+00  0.00000000E+00  0.00000000E+00  3.14159265E+00
ZRed-IntVec                                I   N=          20
          -1          -1          -1          -1          -1          -1
           0           0           0           0           0           0
           0           0           0           0           0           0
           0           0
ZRed-FPVec                                 R   N=          20
  0.00000000E+00  0.00000000E+00  0.00000000E+00  0.00000000E+00  0.00000000E+00
  0.00000000E+00  0.00000000E+00  0.00000000E+00  0.00000000E+00  0.00000000E+00
  0.00000000E+00  0.00000000E+00  0.00000000E+00  0.00000000E+00  0.00000000E+00
  0.00000000E+00  0.00000000E+00  0.00000000E+00  0.00000000E+00  0.00000000E+00
ZRed-Constraint1                           R   N=          20
 -6.68130624E+00  0.00000000E+00  0.00000000E+00  6.68130624E+00  0.00000000E+00
  0.00000000E+00  2.03694512E+00  2.03669844E+00  2.03694512E+00  2.03669844E+00
  2.00316847E+00  2.00313852E+00  2.27687832E+00  2.00316847E+00  2.00313852E+00
  2.27687832E+00  3.14159265E+00  0.00000000E+00  0.00000000E+00  3.14159265E+00
ZRed-Constraint2                           R   N=          20
 -6.68130624E+00  0.00000000E+00  0.00000000E+00  6.68130624E+00  0.00000000E+00
  0.00000000E+00  0.00000000E+00  0.00000000E+00  0.00000000E+00  0.00000000E+00
  0.00000000E+00  0.00000000E+00  0.00000000E+00  0.00000000E+00  0.00000000E+00
  0.00000000E+00  0.00000000E+00  0.00000000E+00  0.00000000E+00  0.00000000E+00
Number of contracted shells                I               28
Number of primitive shells                 I               50
Pure/Cartesian d shells                    I                0
Pure/Cartesian f shells                    I                0
Highest angular momentum                   I                2
Largest degree of contraction              I                6
Shell types                                I   N=          28
           0          -1          -1          -1          -1          -2
           0          -1          -1          -1          -1          -2
           0           0           0           1           0           0
           0           1           0           0           0           1
           0           0           0           1
Number of primitives per shell             I   N=          28
           6           3           1           1           1           1
           6           3           1           1           1           1
           3           1           1           1           3           1
           1           1           3           1           1           1
           3           1           1           1
Shell to atom map                          I   N=          28
           1           1           1           1           1           1
           2           2           2           2           2           2
           3           3           3           3           4           4
           4           4           5           5           5           5
           6           6           6           6
Primitive exponents                        R   N=          50
  4.56324000E+03  6.82024000E+02  1.54973000E+02  4.44553000E+01  1.30290000E+01
  1.82773000E+00  2.09642000E+01  4.80331000E+00  1.45933000E+00  4.83456000E-01
  1.45585000E-01  4.38000000E-02  6.26000000E-01  4.56324000E+03  6.82024000E+02
  1.54973000E+02  4.44553000E+01  1.30290000E+01  1.82773000E+00  2.09642000E+01
  4.80331000E+00  1.45933000E+00  4.83456000E-01  1.45585000E-01  4.38000000E-02
  6.26000000E-01  3.38650000E+01  5.09479000E+00  1.15879000E+00  3.25840000E-01
  1.02741000E-01  7.50000000E-01  3.38650000E+01  5.09479000E+00  1.15879000E+00
  3.25840000E-01  1.02741000E-01  7.50000000E-01  3.38650000E+01  5.09479000E+00
  1.15879000E+00  3.25840000E-01  1.02741000E-01  7.50000000E-01  3.38650000E+01
  5.09479000E+00  1.15879000E+00  3.25840000E-01  1.02741000E-01  7.50000000E-01
Contraction coefficients                   R   N=          50
  1.96665025E-03  1.52306019E-02  7.61269097E-02  2.60801033E-01  6.16462078E-01
  2.21006028E-01  1.14660081E-01  9.19999648E-01 -3.03068213E-03  1.00000000E+00
  1.00000000E+00  1.00000000E+00  1.00000000E+00  1.96665025E-03  1.52306019E-02
  7.61269097E-02  2.60801033E-01  6.16462078E-01  2.21006028E-01  1.14660081E-01
  9.19999648E-01 -3.03068213E-03  1.00000000E+00  1.00000000E+00  1.00000000E+00
  1.00000000E+00  2.54938145E-02  1.90373109E-01  8.52161486E-01  1.00000000E+00
  1.00000000E+00  1.00000000E+00  2.54938145E-02  1.90373109E-01  8.52161486E-01
  1.00000000E+00  1.00000000E+00  1.00000000E+00  2.54938145E-02  1.90373109E-01
  8.52161486E-01  1.00000000E+00  1.00000000E+00  1.00000000E+00  2.54938145E-02
  1.90373109E-01  8.52161486E-01  1.00000000E+00  1.00000000E+00  1.00000000E+00
P(S=P) Contraction coefficients            R   N=          50
  0.00000000E+00  0.00000000E+00  0.00000000E+00  0.00000000E+00  0.00000000E+00
  0.00000000E+00  4.02486927E-02  2.37593957E-01  8.15853851E-01  1.00000000E+00
  1.00000000E+00  1.00000000E+00  0.00000000E+00  0.00000000E+00  0.00000000E+00
  0.00000000E+00  0.00000000E+00  0.00000000E+00  0.00000000E+00  4.02486927E-02
  2.37593957E-01  8.15853851E-01  1.00000000E+00  1.00000000E+00  1.00000000E+00
  0.00000000E+00  0.00000000E+00  0.00000000E+00  0.00000000E+00  0.00000000E+00
  0.00000000E+00  0.00000000E+00  0.00000000E+00  0.00000000E+00  0.00000000E+00
  0.00000000E+00  0.00000000E+00  0.00000000E+00  0.00000000E+00  0.00000000E+00
  0.00000000E+00  0.00000000E+00  0.00000000E+00  0.00000000E+00  0.00000000E+00
  0.00000000E+00  0.00000000E+00  0.00000000E+00  0.00000000E+00  0.00000000E+00
Coordinates of each shell                  R   N=          84
 -6.68130624E+00  0.00000000E+00  0.00000000E+00 -6.68130624E+00  0.00000000E+00
  0.00000000E+00 -6.68130624E+00  0.00000000E+00  0.00000000E+00 -6.68130624E+00
  0.00000000E+00  0.00000000E+00 -6.68130624E+00  0.00000000E+00  0.00000000E+00
 -6.68130624E+00  0.00000000E+00  0.00000000E+00  6.68130624E+00  0.00000000E+00
  0.00000000E+00  6.68130624E+00  0.00000000E+00  0.00000000E+00  6.68130624E+00
  0.00000000E+00  0.00000000E+00  6.68130624E+00  0.00000000E+00  0.00000000E+00
  6.68130624E+00  0.00000000E+00  0.00000000E+00  6.68130624E+00  0.00000000E+00
  0.00000000E+00 -8.00452937E+00 -1.62659902E+00  2.01525737E-09 -8.00452937E+00
 -1.62659902E+00  2.01525737E-09 -8.00452937E+00 -1.62659902E+00  2.01525737E-09
 -8.00452937E+00 -1.62659902E+00  2.01525737E-09 -8.00447864E+00  1.62663875E+00
  1.75331675E-09 -8.00447864E+00  1.62663875E+00  1.75331675E-09 -8.00447864E+00
  1.62663875E+00  1.75331675E-09 -8.00447864E+00  1.62663875E+00  1.75331675E-09
  8.00452937E+00  1.62659902E+00  2.03549927E-09  8.00452937E+00  1.62659902E+00
  2.03549927E-09  8.00452937E+00  1.62659902E+00  2.03549927E-09  8.00452937E+00
  1.62659902E+00  2.03549927E-09  8.00447864E+00 -1.62663875E+00  1.77355997E-09
  8.00447864E+00 -1.62663875E+00  1.77355997E-09  8.00447864E+00 -1.62663875E+00
  1.77355997E-09  8.00447864E+00 -1.62663875E+00  1.77355997E-09
Num ILSW                                   I              100
ILSW                                       I   N=         100
           1           0           0           1           2           0
           0           0           0           0        4336          -1
           7           0           0           0           2           0
           0           0           0           0           1           0
           1           1           0           0           0           0
           0           0      100000           0          -1           0
           0           0           0           0           0           0
           0           0           0           1           0           0
           0 -2000000000           1           0           0           0
           0           0           4          52           0           0
           0           0          55           0           0           0
           0           0           0           6           0           1
           0           0           0           0           0           0
           0           0           0           0           0           0
           0           0           0           0           0           0
           0           0           0           0           0           0
           0           0           0           0
Num RLSW                                   I               52
RLSW                                       R   N=          52
  1.00000000E+00  1.00000000E+00  1.00000000E+00  1.00000000E+00  5.40000000E-01
  0.00000000E+00  0.00000000E+00  1.00000000E+00  0.00000000E+00  0.00000000E+00
  0.00000000E+00  0.00000000E+00  1.00000000E+00  0.00000000E+00  0.00000000E+00
  0.00000000E+00  0.00000000E+00  1.00000000E+00  0.00000000E+00  0.00000000E+00
  0.00000000E+00  0.00000000E+00  1.00000000E+00  0.00000000E+00  0.00000000E+00
  0.00000000E+00  0.00000000E+00  1.00000000E+00  0.00000000E+00  0.00000000E+00
  0.00000000E+00  0.00000000E+00  1.00000000E+00  0.00000000E+00  0.00000000E+00
  0.00000000E+00  0.00000000E+00  0.00000000E+00  1.00000000E+00  1.00000000E+00
  0.00000000E+00  1.00000000E+00  0.00000000E+00  0.00000000E+00  0.00000000E+00
  0.00000000E+00  0.00000000E+00  0.00000000E+00  0.00000000E+00  0.00000000E+00
  0.00000000E+00  0.00000000E+00
MxBond                                     I                3
NBond                                      I   N=           6
           3           3           1           1           1           1
IBond                                      I   N=          18
           2           3           4           1           5           6
           1           0           0           1           0           0
           2           0           0           2           0           0
RBond                                      R   N=          18
  1.00000000E-01  1.00000000E+00  1.00000000E+00  1.00000000E-01  1.00000000E+00
  1.00000000E+00  1.00000000E+00  0.00000000E+00  0.00000000E+00  1.00000000E+00
  0.00000000E+00  0.00000000E+00  1.00000000E+00  0.00000000E+00  0.00000000E+00
  1.00000000E+00  0.00000000E+00  0.00000000E+00
Virial Ratio                               R      2.003517856831710E+00
SCF Energy                                 R     -7.823696359912290E+01
Total Energy                               R     -7.823696359912290E+01
S**2                                       R     -2.486899575160351E-14
S**2 after annihilation                    R      4.440892098500598E-14
RMS Force                                  R      1.057725438692742E-05
RMS Density                                R      1.188744691576802E-09
Job Status                                 I                1
Nuclear derivative order                   I                1
External E-field                           R   N=          35
  0.00000000E+00  0.00000000E+00  0.00000000E+00  0.00000000E+00  0.00000000E+00
  0.00000000E+00  0.00000000E+00  0.00000000E+00  0.00000000E+00  0.00000000E+00
  0.00000000E+00  0.00000000E+00  0.00000000E+00  0.00000000E+00  0.00000000E+00
  0.00000000E+00  0.00000000E+00  0.00000000E+00  0.00000000E+00  0.00000000E+00
  0.00000000E+00  0.00000000E+00  0.00000000E+00  0.00000000E+00  0.00000000E+00
  0.00000000E+00  0.00000000E+00  0.00000000E+00  0.00000000E+00  0.00000000E+00
  0.00000000E+00  0.00000000E+00  0.00000000E+00  0.00000000E+00  0.00000000E+00
IOpCl                                      I                1
IROHF                                      I                0
Alpha Orbital Energies                     R   N=          68
 -1.06045186E+01 -1.06045180E+01 -7.53673511E-01 -7.53671913E-01 -4.72144134E-01
 -4.72143883E-01 -3.10493689E-01 -3.10277399E-01 -7.89624913E-02 -7.87555406E-02
  2.51151706E-02  2.67768694E-02  6.46474286E-02  7.41931511E-02  7.50491768E-02
  8.47121487E-02  9.26268453E-02  1.29909377E-01  1.76696913E-01  1.82223127E-01
  1.97614078E-01  1.98052077E-01  4.37968624E-01  4.52681020E-01  4.89119462E-01
  4.89489210E-01  5.88069877E-01  5.94696563E-01  6.26092488E-01  6.26872178E-01
  6.29673207E-01  6.54373763E-01  7.26889983E-01  7.49830083E-01  1.09392847E+00
  1.09461378E+00  1.10759558E+00  1.10759558E+00  1.19560425E+00  1.19561169E+00
  1.55674335E+00  1.55703124E+00  1.57040686E+00  1.57249598E+00  1.62908203E+00
  1.63472346E+00  1.86832707E+00  1.86832707E+00  1.88204465E+00  1.88254452E+00
  2.13706477E+00  2.13882188E+00  2.36767279E+00  2.36810083E+00  2.45233197E+00
  2.46312970E+00  2.50382708E+00  2.50469518E+00  2.55857354E+00  2.56025790E+00
  2.75203165E+00  2.75646353E+00  3.06255419E+00  3.08958127E+00  3.59207407E+00
  3.59208215E+00  2.37704769E+01  2.37738699E+01
Beta Orbital Energies                      R   N=          68
 -1.06045186E+01 -1.06045180E+01 -7.53673511E-01 -7.53671913E-01 -4.72144134E-01
 -4.72143883E-01 -3.10493689E-01 -3.10277399E-01 -7.89624913E-02 -7.87555406E-02
  2.51151706E-02  2.67768694E-02  6.46474286E-02  7.41931511E-02  7.50491768E-02
  8.47121487E-02  9.26268453E-02  1.29909377E-01  1.76696913E-01  1.82223127E-01
  1.97614078E-01  1.98052077E-01  4.37968624E-01  4.52681020E-01  4.89119462E-01
  4.89489210E-01  5.88069877E-01  5.94696563E-01  6.26092488E-01  6.26872178E-01
  6.29673207E-01  6.54373763E-01  7.26889983E-01  7.49830083E-01  1.09392847E+00
  1.09461378E+00  1.10759558E+00  1.10759558E+00  1.19560425E+00  1.19561169E+00
  1.55674335E+00  1.55703124E+00  1.57040686E+00  1.57249598E+00  1.62908203E+00
  1.63472346E+00  1.86832707E+00  1.86832707E+00  1.88204465E+00  1.88254452E+00
  2.13706477E+00  2.13882188E+00  2.36767279E+00  2.36810083E+00  2.45233197E+00
  2.46312970E+00  2.50382708E+00  2.50469518E+00  2.55857354E+00  2.56025790E+00
  2.75203165E+00  2.75646353E+00  3.06255419E+00  3.08958127E+00  3.59207407E+00
  3.59208215E+00  2.37704769E+01  2.37738699E+01
Alpha MO coefficients                      R   N=        4624
  3.98868089E-01  3.28257104E-01 -1.52825219E-03  2.30153874E-08  1.86802740E-12
  7.76111149E-03 -1.13352964E-03  2.23967338E-08  1.71488076E-12 -2.80559392E-03
 -1.18633410E-04  1.25884108E-09  4.08303035E-14 -4.32340464E-04  7.08088491E-04
 -7.93310628E-09 -8.66165632E-13 -6.95392225E-04 -1.37619685E-12 -1.39335002E-13
 -2.46120555E-04  5.15620555E-09 -3.98868106E-01 -3.28257118E-01 -1.52825226E-03
  2.30153886E-08 -1.89201361E-12 -7.76111183E-03 -1.13352969E-03  2.23967358E-08
 -1.73204927E-12  2.80559404E-03 -1.18633409E-04  1.25884050E-09 -4.03273913E-14
  4.32340487E-04  7.08088514E-04 -7.93310839E-09  8.74223356E-13  6.95392256E-04
 -1.39032956E-12 -1.39273998E-13  2.46120566E-04 -5.15620499E-09  2.48377281E-04
 -1.93002419E-03  1.65233655E-03 -7.76532129E-04 -1.00297458E-03  1.17481465E-12
  2.48375428E-04 -1.93002917E-03  1.65233299E-03 -7.76504470E-04  1.00300207E-03
  1.02642957E-12 -2.48377292E-04  1.93002427E-03 -1.65233662E-03 -7.76532163E-04
 -1.00297462E-03 -1.18649941E-12 -2.48375438E-04  1.93002926E-03 -1.65233306E-03
 -7.76504505E-04  1.00300211E-03 -1.03925406E-12  3.98867952E-01  3.28261861E-01
 -1.51162990E-03  2.26223346E-08  1.86052927E-12  7.71930099E-03 -1.19899644E-03
  2.44973263E-08  1.74931528E-12 -2.66122691E-03  6.40859034E-06 -2.81166566E-10
  2.51763442E-15 -5.33792612E-04  5.25992892E-04 -1.13242559E-08 -7.99785491E-13
 -7.00007195E-04 -1.38399557E-12 -1.40599295E-13 -2.50479563E-04  4.50023517E-09
  3.98867934E-01  3.28261847E-01  1.51162983E-03 -2.26223344E-08  1.88405224E-12
  7.71930065E-03  1.19899639E-03 -2.44973283E-08  1.76706587E-12 -2.66122679E-03
 -6.40859554E-06  2.81165929E-10  3.08027135E-15 -5.33792593E-04 -5.25992861E-04
  1.13242555E-08 -8.08575478E-13 -7.00007164E-04  1.39996506E-12  1.40218487E-13
 -2.50479552E-04  4.50023338E-09  2.43450587E-04 -1.92624625E-03  1.62614543E-03
 -7.86031397E-04 -1.01097541E-03  1.18632059E-12  2.43449794E-04 -1.92625833E-03
  1.62615711E-03 -7.86004143E-04  1.01100378E-03  1.03717439E-12  2.43450576E-04
 -1.92624617E-03  1.62614536E-03  7.86031363E-04  1.01097537E-03  1.19810543E-12
  2.43449783E-04 -1.92625824E-03  1.62615704E-03  7.86004109E-04 -1.01100374E-03
  1.04801853E-12 -7.40576511E-02 -1.19184621E-01 -4.81622403E-02  8.04324139E-07
  6.67955327E-11  3.25219444E-01 -7.20509528E-02  1.18189127E-06  9.85211273E-11
  2.22635837E-01 -3.18131756E-02  5.05491897E-07  4.33797456E-11  4.10854204E-03
 -2.87619563E-03  2.26275908E-08  3.62101888E-12 -5.16888839E-03 -1.30457877E-11
 -6.25239066E-13 -3.04846388E-05 -1.42039842E-08  7.40576515E-02  1.19184621E-01
 -4.81622406E-02  8.04324162E-07 -6.75299872E-11 -3.25219446E-01 -7.20509532E-02
  1.18189130E-06 -9.96115429E-11 -2.22635838E-01 -3.18131758E-02  5.05491917E-07
 -4.38591574E-11 -4.10854206E-03 -2.87619564E-03  2.26275918E-08 -3.65393111E-12
  5.16888842E-03 -1.31852840E-11 -6.25152842E-13  3.04846389E-05  1.42039847E-08
  8.07770464E-02  9.79395571E-02  5.81330251E-03  6.67866039E-03  1.17838217E-02
 -1.05146778E-11  8.07771731E-02  9.79396642E-02  5.81335443E-03  6.67830643E-03
 -1.17840356E-02 -8.68204668E-12 -8.07770469E-02 -9.79395577E-02 -5.81330255E-03
  6.67866043E-03  1.17838218E-02  1.06170222E-11 -8.07771735E-02 -9.79396647E-02
 -5.81335446E-03  6.67830647E-03 -1.17840356E-02  8.78350074E-12 -7.40592741E-02
 -1.19196889E-01 -4.82013011E-02  8.05136874E-07  6.68060113E-11  3.25390016E-01
 -7.18487274E-02  1.17610878E-06  9.84670665E-11  2.21994832E-01 -3.24459531E-02
  5.12117286E-07  4.35309665E-11  4.36415313E-03 -1.75950655E-03  3.85305269E-08
  3.17045859E-12 -5.16991537E-03 -1.30543560E-11 -6.24420746E-13 -2.07953324E-05
 -1.20029879E-08 -7.40592737E-02 -1.19196888E-01  4.82013008E-02 -8.05136890E-07
  6.75406543E-11  3.25390014E-01  7.18487270E-02 -1.17610880E-06  9.95563374E-11
  2.21994831E-01  3.24459530E-02 -5.12117302E-07  4.40095995E-11  4.36415311E-03
  1.75950654E-03 -3.85305304E-08  3.20352000E-12 -5.16991534E-03  1.31932619E-11
  6.24470631E-13 -2.07953323E-05 -1.20029886E-08  8.07988632E-02  9.78069611E-02
  6.14133632E-03  6.70737461E-03  1.17936410E-02 -1.05373431E-11  8.07989870E-02
  9.78070945E-02  6.14131716E-03  6.70702234E-03 -1.17938572E-02 -8.70341324E-12
  8.07988627E-02  9.78069606E-02  6.14133629E-03 -6.70737457E-03 -1.17936409E-02
 -1.06398354E-11  8.07989865E-02  9.78070940E-02  6.14131713E-03 -6.70702230E-03
  1.17938572E-02 -8.80523735E-12  2.28454042E-08  3.82995139E-08  2.21708874E-06
  1.46181859E-01 -1.16054565E-11 -1.08620668E-07  3.32547544E-06  2.18029505E-01
 -1.72299022E-11 -1.95421915E-07  1.82713636E-06  1.18209829E-01 -9.03201303E-12
 -3.44043630E-08 -3.48322366E-08 -1.08978405E-03  3.44221488E-13 -3.08370727E-09
  2.37562377E-12  4.39666563E-11 -9.96686274E-07 -3.24259413E-02 -2.28454069E-08
 -3.82995168E-08  2.21708907E-06  1.46181876E-01  1.16051879E-11  1.08620671E-07
  3.32547592E-06  2.18029531E-01  1.72305498E-11  1.95421969E-07  1.82713663E-06
  1.18209843E-01  9.03093174E-12  3.44043950E-08 -3.48322233E-08 -1.08978422E-03
 -3.42089298E-13  3.08370751E-09  2.37513660E-12  4.44558723E-11  9.96686419E-07
  3.24259451E-02 -1.03809667E-01 -1.60111728E-01 -8.14444884E-02 -8.20757470E-03
 -3.19304814E-03  1.16844942E-11  1.03809643E-01  1.60111662E-01  8.14444504E-02
  8.20747294E-03 -3.19329297E-03 -1.12774350E-11  1.03809679E-01  1.60111747E-01
  8.14444980E-02 -8.20757566E-03 -3.19304851E-03 -1.18085400E-11 -1.03809655E-01
 -1.60111681E-01 -8.14444600E-02  8.20747390E-03 -3.19329334E-03  1.14016331E-11
  2.27428591E-08  3.79431894E-08  2.21663651E-06  1.46180837E-01 -1.16038283E-11
 -1.04639269E-07  3.33080542E-06  2.18052818E-01 -1.72391079E-11 -2.09220856E-07
  1.81339123E-06  1.18248509E-01 -9.01082241E-12 -2.43955127E-08 -1.36019974E-08
 -1.45532578E-03  3.34528125E-13 -3.00079320E-09  2.37735625E-12  4.40006931E-11
 -9.97262522E-07 -3.24499399E-02  2.27428553E-08  3.79431823E-08 -2.21663631E-06
 -1.46180820E-01 -1.16038927E-11 -1.04639243E-07 -3.33080512E-06 -2.18052793E-01
 -1.72387621E-11 -2.09220859E-07 -1.81339108E-06 -1.18248495E-01 -9.01016774E-12
 -2.43955416E-08  1.36019782E-08  1.45532565E-03  3.33635395E-13 -3.00079248E-09
 -2.37721069E-12 -4.44902411E-11 -9.97262434E-07 -3.24499361E-02 -1.03823718E-01
 -1.59982883E-01 -8.18159421E-02 -8.19806116E-03 -3.18628635E-03  1.16698860E-11
  1.03823694E-01  1.59982812E-01  8.18159140E-02  8.19796088E-03 -3.18653131E-03
 -1.12645438E-11 -1.03823706E-01 -1.59982864E-01 -8.18159326E-02  8.19806020E-03
  3.18628598E-03  1.17939023E-11  1.03823682E-01  1.59982793E-01  8.18159045E-02
 -8.19795992E-03  3.18653093E-03 -1.13888307E-11 -3.91680506E-02 -6.50480101E-02
  1.61856531E-01 -2.48878412E-06 -2.17885459E-10  1.89207437E-01  2.33150669E-01
 -3.56073368E-06 -3.14225356E-10  2.97945248E-01  2.12215364E-01 -3.28412788E-06
 -2.80931921E-10  4.09904567E-02  3.53522449E-02 -6.15758925E-07 -4.88614702E-11
  1.76657083E-02  6.24385529E-11  8.52957616E-13 -1.67393113E-02  5.10377343E-07
 -3.91680506E-02 -6.50480101E-02 -1.61856531E-01  2.48878419E-06 -2.20337970E-10
  1.89207437E-01 -2.33150669E-01  3.56073378E-06 -3.17731891E-10  2.97945248E-01
 -2.12215364E-01  3.28412796E-06 -2.84104758E-10  4.09904567E-02 -3.53522449E-02
  6.15758958E-07 -4.94470380E-11  1.76657083E-02 -6.31475904E-11 -8.53383084E-13
 -1.67393113E-02  5.10377354E-07 -4.88376272E-02 -9.07028452E-02 -6.18439320E-02
  7.28062761E-03 -9.95231879E-03 -8.60400363E-12 -4.88375992E-02 -9.07028012E-02
 -6.18436884E-02  7.28093666E-03  9.95209987E-03 -1.00924548E-11 -4.88376272E-02
 -9.07028452E-02 -6.18439320E-02 -7.28062761E-03  9.95231879E-03 -8.71292488E-12
 -4.88375992E-02 -9.07028012E-02 -6.18436884E-02 -7.28093666E-03 -9.95209987E-03
 -1.02021658E-11 -3.92365524E-02 -6.51848642E-02  1.61933024E-01 -2.48773499E-06
 -2.18169293E-10  1.90015081E-01  2.33866440E-01 -3.57679841E-06 -3.14940730E-10
  2.96226781E-01  2.10710788E-01 -3.26386868E-06 -2.80851679E-10  4.24287230E-02
  3.93897023E-02 -5.60388999E-07 -5.08222283E-11  1.77135947E-02  6.25438416E-11
  8.58946870E-13 -1.67533856E-02  5.15628332E-07  3.92365524E-02  6.51848642E-02
  1.61933024E-01 -2.48773506E-06  2.20625379E-10 -1.90015081E-01  2.33866440E-01
 -3.57679851E-06  3.18451981E-10 -2.96226781E-01  2.10710788E-01 -3.26386876E-06
  2.84036844E-10 -4.24287230E-02  3.93897023E-02 -5.60389022E-07  5.14044792E-11
 -1.77135947E-02  6.32539974E-11  8.59035485E-13  1.67533856E-02 -5.15628343E-07
 -4.88383121E-02 -9.10053526E-02 -6.10910047E-02  7.37239622E-03 -9.92447136E-03
 -8.69774214E-12 -4.88382881E-02 -9.10052352E-02 -6.10909894E-02  7.37270896E-03
  9.92424623E-03 -1.01821097E-11  4.88383121E-02  9.10053526E-02  6.10910047E-02
  7.37239622E-03 -9.92447136E-03  8.80754830E-12  4.88382881E-02  9.10052352E-02
  6.10909894E-02  7.37270896E-03  9.92424623E-03  1.02918921E-11  2.15226927E-12
  3.49542460E-12  2.21450744E-10  1.27440422E-11  1.61774695E-01 -8.96083320E-12
  3.50932234E-10  2.19786771E-11  2.55981608E-01 -2.65323054E-11  4.20267129E-10
  2.83122545E-11  3.01042612E-01 -3.14538744E-13  2.45194327E-10  2.06164075E-11
  1.82276391E-01  4.01896084E-11 -1.73520899E-02  2.68915810E-07 -2.38127533E-11
 -2.70997202E-12  2.14290585E-12  3.47069228E-12 -2.23933150E-10 -1.27437299E-11
  1.61774695E-01 -8.87564511E-12 -3.54705246E-10 -2.19780480E-11  2.55981608E-01
 -2.62692595E-11 -4.24836887E-10 -2.83144498E-11  3.01042612E-01 -1.16160986E-12
 -2.48178065E-10 -2.06198441E-11  1.82276391E-01  4.04642417E-11  1.73520899E-02
 -2.68915818E-07 -2.40957541E-11 -2.71036600E-12  4.05851262E-12  1.23334944E-11
  1.39062434E-11  2.34405588E-11  2.66552973E-12  1.63322251E-02  3.22749463E-12
  8.73337039E-12 -3.17593114E-12  2.19928973E-11  1.42385802E-12  1.63322317E-02
  4.07840013E-12  1.20671729E-11  1.43314951E-11 -2.36477670E-11 -2.59824268E-12
  1.63322251E-02  3.24746851E-12  8.46769739E-12 -2.75986768E-12 -2.21996827E-11
 -1.49173964E-12  1.63322317E-02  1.19660406E-12  1.84434357E-12  2.23940099E-10
  1.27701467E-11  1.62267367E-01 -3.38507651E-12  3.54056734E-10  2.19951741E-11
  2.56560707E-01 -2.27935167E-11  4.25152838E-10  2.84819914E-11  3.02651349E-01
 -2.79846363E-11  2.55386276E-10  2.10521234E-11  1.80652491E-01  4.04610631E-11
 -1.74284730E-02  2.69739135E-07 -2.43017024E-11 -2.70099889E-12 -1.19763940E-12
 -1.83745827E-12  2.26406518E-10  1.27700809E-11 -1.62267367E-01  3.35466317E-12
  3.57801641E-10  2.19954604E-11 -2.56560707E-01  2.26239351E-11  4.29743191E-10