 Entering Gaussian System, Link 0=g16
 Initial command:
 /home/szhao/Apps/g16/l1.exe "/home/szhao/tmp/Gau-93156.inp" -scrdir="/home/szhao/tmp/"
 Default is to use a total of  16 processors:
                               16 via shared-memory
                                1 via Linda
 Entering Link 1 = /home/szhao/Apps/g16/l1.exe PID=     93157.
  
 Copyright (c) 1988,1990,1992,1993,1995,1998,2003,2009,2016,
            Gaussian, Inc.  All Rights Reserved.
  
 This is part of the Gaussian(R) 16 program.  It is based on
 the Gaussian(R) 09 system (copyright 2009, Gaussian, Inc.),
 the Gaussian(R) 03 system (copyright 2003, Gaussian, Inc.),
 the Gaussian(R) 98 system (copyright 1998, Gaussian, Inc.),
 the Gaussian(R) 94 system (copyright 1995, Gaussian, Inc.),
 the Gaussian 92(TM) system (copyright 1992, Gaussian, Inc.),
 the Gaussian 90(TM) system (copyright 1990, Gaussian, Inc.),
 the Gaussian 88(TM) system (copyright 1988, Gaussian, Inc.),
 the Gaussian 86(TM) system (copyright 1986, Carnegie Mellon
 University), and the Gaussian 82(TM) system (copyright 1983,
 Carnegie Mellon University). Gaussian is a federally registered
 trademark of Gaussian, Inc.
  
 This software contains proprietary and confidential information,
 including trade secrets, belonging to Gaussian, Inc.
  
 This software is provided under written license and may be
 used, copied, transmitted, or stored only in accord with that
 written license.
  
 The following legend is applicable only to US Government
 contracts under FAR:
  
                    RESTRICTED RIGHTS LEGEND
  
 Use, reproduction and disclosure by the US Government is
 subject to restrictions as set forth in subparagraphs (a)
 and (c) of the Commercial Computer Software - Restricted
 Rights clause in FAR 52.227-19.
  
 Gaussian, Inc.
 340 Quinnipiac St., Bldg. 40, Wallingford CT 06492
  
  
 ---------------------------------------------------------------
 Warning -- This program may not be used in any manner that
 competes with the business of Gaussian, Inc. or will provide
 assistance to any competitor of Gaussian, Inc.  The licensee
 of this program is prohibited from giving any competitor of
 Gaussian, Inc. access to this program.  By using this program,
 the user acknowledges that Gaussian, Inc. is engaged in the
 business of creating and licensing software in the field of
 computational chemistry and represents and warrants to the
 licensee that it is not a competitor of Gaussian, Inc. and that
 it will not use this program in any manner prohibited above.
 ---------------------------------------------------------------
  

 Cite this work as:
 Gaussian 16, Revision A.03,
 M. J. Frisch, G. W. Trucks, H. B. Schlegel, G. E. Scuseria, 
 M. A. Robb, J. R. Cheeseman, G. Scalmani, V. Barone, 
 G. A. Petersson, H. Nakatsuji, X. Li, M. Caricato, A. V. Marenich, 
 J. Bloino, B. G. Janesko, R. Gomperts, B. Mennucci, H. P. Hratchian, 
 J. V. Ortiz, A. F. Izmaylov, J. L. Sonnenberg, D. Williams-Young, 
 F. Ding, F. Lipparini, F. Egidi, J. Goings, B. Peng, A. Petrone, 
 T. Henderson, D. Ranasinghe, V. G. Zakrzewski, J. Gao, N. Rega, 
 G. Zheng, W. Liang, M. Hada, M. Ehara, K. Toyota, R. Fukuda, 
 J. Hasegawa, M. Ishida, T. Nakajima, Y. Honda, O. Kitao, H. Nakai, 
 T. Vreven, K. Throssell, J. A. Montgomery, Jr., J. E. Peralta, 
 F. Ogliaro, M. J. Bearpark, J. J. Heyd, E. N. Brothers, K. N. Kudin, 
 V. N. Staroverov, T. A. Keith, R. Kobayashi, J. Normand, 
 K. Raghavachari, A. P. Rendell, J. C. Burant, S. S. Iyengar, 
 J. Tomasi, M. Cossi, J. M. Millam, M. Klene, C. Adamo, R. Cammi, 
 J. W. Ochterski, R. L. Martin, K. Morokuma, O. Farkas, 
 J. B. Foresman, and D. J. Fox, Gaussian, Inc., Wallingford CT, 2016.
 
 ******************************************
 Gaussian 16:  ES64L-G16RevA.03 25-Dec-2016
                 3-Dec-2024 
 ******************************************
 %chk=opt.chk
 %mem=16GB
 %nprocshared=24
 Will use up to   24 processors via shared memory.
 --------------------------------------------
 #p opt UM062X/6-311+G** nosymm int=superfine
 --------------------------------------------
 1/18=20,19=15,26=5,38=1/1,3;
 2/9=110,12=2,15=1,17=6,18=5,40=1/2;
 3/5=4,6=6,7=111,11=2,25=1,30=1,71=1,74=-55,75=-7,116=2/1,2,3;
 4//1;
 5/5=2,38=5/2;
 6/7=2,8=2,9=2,10=2,28=1/1;
 7/30=1/1,2,3,16;
 1/18=20,19=15,26=5/3(2);
 2/9=110,15=1/2;
 99//99;
 2/9=110,15=1/2;
 3/5=4,6=6,7=111,11=2,25=1,30=1,71=1,74=-55,75=-7,116=2/1,2,3;
 4/5=5,16=3,69=1/1;
 5/5=2,38=5/2;
 7/30=1/1,2,3,16;
 1/18=20,19=15,26=5/3(-5);
 2/9=110,15=1/2;
 6/7=2,8=2,9=2,10=2,19=2,28=1/1;
 99/9=1/99;
 Leave Link    1 at Tue Dec  3 11:04:53 2024, MaxMem=  2147483648 cpu:               1.1 elap:               0.1
 (Enter /home/szhao/Apps/g16/l101.exe)
 -------------------
 Title Card Required
 -------------------
 Symbolic Z-matrix:
 Charge =  0 Multiplicity = 1
 C                    -1   -1.1606    0.        0. 
 C                    -1    1.1606    0.        0. 
 H                    0    -1.61227  -0.97871   0. 
 H                    0    -1.61218   0.97861   0. 
 H                    0     1.61227   0.97871   0. 
 H                    0     1.61218  -0.97861   0. 
 
 Add virtual bond connecting atoms C2         and C1         Dist= 4.39D+00.
 ITRead=  2  2  0  0  0  0
 MicOpt= -2 -2 -1 -1 -1 -1
 NAtoms=      6 NQM=        4 NQMF=       2 NMMI=      0 NMMIF=      0
                NMic=       0 NMicF=      0.
                    Isotopes and Nuclear Properties:
 (Nuclear quadrupole moments (NQMom) in fm**2, nuclear magnetic moments (NMagM)
  in nuclear magnetons)

  Atom         1           2           3           4           5           6
 IAtWgt=          12          12           1           1           1           1
 AtmWgt=  12.0000000  12.0000000   1.0078250   1.0078250   1.0078250   1.0078250
 NucSpn=           0           0           1           1           1           1
 AtZEff=  -0.0000000  -0.0000000  -0.0000000  -0.0000000  -0.0000000  -0.0000000
 NQMom=    0.0000000   0.0000000   0.0000000   0.0000000   0.0000000   0.0000000
 NMagM=    0.0000000   0.0000000   2.7928460   2.7928460   2.7928460   2.7928460
 AtZNuc=   6.0000000   6.0000000   1.0000000   1.0000000   1.0000000   1.0000000
 Leave Link  101 at Tue Dec  3 11:04:55 2024, MaxMem=  2147483648 cpu:              21.0 elap:               0.9
 (Enter /home/szhao/Apps/g16/l103.exe)

 GradGradGradGradGradGradGradGradGradGradGradGradGradGradGradGradGradGrad
 Berny optimization.
 Initialization pass.
                           ----------------------------
                           !    Initial Parameters    !
                           ! (Angstroms and Degrees)  !
 --------------------------                            --------------------------
 ! Name  Definition              Value          Derivative Info.                !
 --------------------------------------------------------------------------------
 ! X1    R(1,-1)                -1.1606         Frozen                          !
 ! Y1    R(1,-2)                 0.0            Frozen                          !
 ! Z1    R(1,-3)                 0.0            Frozen                          !
 ! X2    R(2,-1)                 1.1606         Frozen                          !
 ! Y2    R(2,-2)                 0.0            Frozen                          !
 ! Z2    R(2,-3)                 0.0            Frozen                          !
 ! R1    R(1,3)                  1.0779         estimate D2E/DX2                !
 ! R2    R(1,4)                  1.0778         estimate D2E/DX2                !
 ! R3    R(2,5)                  1.0779         estimate D2E/DX2                !
 ! R4    R(2,6)                  1.0778         estimate D2E/DX2                !
 ! A1    A(2,1,3)              114.7731         estimate D2E/DX2                !
 ! A2    A(2,1,4)              114.7714         estimate D2E/DX2                !
 ! A3    A(3,1,4)              130.4555         estimate D2E/DX2                !
 ! A4    A(1,2,5)              114.7731         estimate D2E/DX2                !
 ! A5    A(1,2,6)              114.7714         estimate D2E/DX2                !
 ! A6    A(5,2,6)              130.4555         estimate D2E/DX2                !
 ! D1    D(3,1,2,5)            180.0            estimate D2E/DX2                !
 ! D2    D(3,1,2,6)              0.0            estimate D2E/DX2                !
 ! D3    D(4,1,2,5)              0.0            estimate D2E/DX2                !
 ! D4    D(4,1,2,6)            180.0            estimate D2E/DX2                !
 --------------------------------------------------------------------------------
 Trust Radius=3.00D-01 FncErr=1.00D-07 GrdErr=1.00D-07 EigMax=2.50D+02 EigMin=1.00D-04
 Number of steps in this run=     30 maximum allowed number of steps=    100.
 GradGradGradGradGradGradGradGradGradGradGradGradGradGradGradGradGradGrad

 Leave Link  103 at Tue Dec  3 11:04:55 2024, MaxMem=  2147483648 cpu:               0.4 elap:               0.0
 (Enter /home/szhao/Apps/g16/l202.exe)
                          Input orientation:                          
 ---------------------------------------------------------------------
 Center     Atomic      Atomic             Coordinates (Angstroms)
 Number     Number       Type             X           Y           Z
 ---------------------------------------------------------------------
      1          6           0       -1.160595    0.000000    0.000000
      2          6           0        1.160595    0.000000    0.000000
      3          1           0       -1.612265   -0.978710    0.000000
      4          1           0       -1.612181    0.978605    0.000000
      5          1           0        1.612265    0.978710    0.000000
      6          1           0        1.612181   -0.978605    0.000000
 ---------------------------------------------------------------------
                    Distance matrix (angstroms):
                    1          2          3          4          5
     1  C    0.000000
     2  C    2.321190   0.000000
     3  H    1.077905   2.940515   0.000000
     4  H    1.077774   2.940400   1.957315   0.000000
     5  H    2.940515   1.077905   3.772146   3.224446   0.000000
     6  H    2.940400   1.077774   3.224446   3.771894   1.957315
                    6
     6  H    0.000000
 Symmetry turned off by external request.
 Stoichiometry    C2H4
 Framework group  C2H[SGH(C2H4)]
 Deg. of freedom     5
 Full point group                 C2H     NOp   4
 Rotational constants (GHZ):         130.8912476          11.8062802          10.8294710
 Leave Link  202 at Tue Dec  3 11:04:55 2024, MaxMem=  2147483648 cpu:               0.1 elap:               0.0
 (Enter /home/szhao/Apps/g16/l301.exe)
 Standard basis: 6-311+G(d,p) (5D, 7F)
 Ernie: Thresh=  0.10000D-02 Tol=  0.10000D-05 Strict=F.
    68 basis functions,   104 primitive gaussians,    70 cartesian basis functions
     8 alpha electrons        8 beta electrons
       nuclear repulsion energy        25.4588921105 Hartrees.
 IExCor= 4336 DFT=T Ex+Corr=M062X ExCW=0 ScaHFX=  0.540000
 ScaDFX=  1.000000  1.000000  1.000000  1.000000 ScalE2=  1.000000  1.000000
 IRadAn=      7 IRanWt=     -1 IRanGd=            0 ICorTp=0 IEmpDi=  4
 NAtoms=    6 NActive=    6 NUniq=    6 SFac= 1.00D+00 NAtFMM=   60 NAOKFM=F Big=F
 Integral buffers will be    131072 words long.
 Raffenetti 2 integral format.
 Two-electron integral symmetry is turned off.
 Leave Link  301 at Tue Dec  3 11:04:55 2024, MaxMem=  2147483648 cpu:               1.2 elap:               0.1
 (Enter /home/szhao/Apps/g16/l302.exe)
 NPDir=0 NMtPBC=     1 NCelOv=     1 NCel=       1 NClECP=     1 NCelD=      1
         NCelK=      1 NCelE2=     1 NClLst=     1 CellRange=     0.0.
 One-electron integrals computed using PRISM.
 NBasis=    68 RedAO= T EigKep=  2.80D-03  NBF=    68
 NBsUse=    68 1.00D-06 EigRej= -1.00D+00 NBFU=    68
 Precomputing XC quadrature grid using
 IXCGrd= 4 IRadAn=           7 IRanWt=          -1 IRanGd=           0 AccXCQ= 0.00D+00.
 Generated NRdTot=       0 NPtTot=           0 NUsed=           0 NTot=          32
 NSgBfM=    70    70    70    70    70 MxSgAt=     6 MxSgA2=     6.
 Leave Link  302 at Tue Dec  3 11:04:55 2024, MaxMem=  2147483648 cpu:               3.6 elap:               0.2
 (Enter /home/szhao/Apps/g16/l303.exe)
 DipDrv:  MaxL=1.
 Leave Link  303 at Tue Dec  3 11:04:55 2024, MaxMem=  2147483648 cpu:               0.9 elap:               0.0
 (Enter /home/szhao/Apps/g16/l401.exe)
 ExpMin= 4.38D-02 ExpMax= 4.56D+03 ExpMxC= 6.82D+02 IAcc=3 IRadAn=         7 AccDes= 0.00D+00
 Harris functional with IExCor= 1009 and IRadAn=       7 diagonalized for initial guess.
 HarFok:  IExCor= 1009 AccDes= 0.00D+00 IRadAn=         7 IDoV= 1 UseB2=F ITyADJ=14
 ICtDFT=  3500011 ScaDFX=  1.000000  1.000000  1.000000  1.000000
 FoFCou: FMM=F IPFlag=           0 FMFlag=      100000 FMFlg1=           0
         NFxFlg=           0 DoJE=T BraDBF=F KetDBF=T FulRan=T
         wScrn=  0.000000 ICntrl=       500 IOpCl=  0 I1Cent=   200000004 NGrid=           0
         NMat0=    1 NMatS0=      1 NMatT0=    0 NMatD0=    1 NMtDS0=    0 NMtDT0=    0
 Symmetry not used in FoFCou.
 Harris En= -78.2817946132477    
 JPrj=0 DoOrth=F DoCkMO=F.
 Initial guess <Sx>= 0.0000 <Sy>= 0.0000 <Sz>= 0.0000 <S**2>= 0.0000 S= 0.0000
 Leave Link  401 at Tue Dec  3 11:04:56 2024, MaxMem=  2147483648 cpu:               6.0 elap:               0.3
 (Enter /home/szhao/Apps/g16/l502.exe)
 Keep R1 and R2 ints in memory in canonical form, NReq=27031774.
 FoFCou: FMM=F IPFlag=           0 FMFlag=           0 FMFlg1=           0
         NFxFlg=           0 DoJE=F BraDBF=F KetDBF=F FulRan=T
         wScrn=  0.000000 ICntrl=       600 IOpCl=  0 I1Cent=           0 NGrid=           0
         NMat0=    1 NMatS0=   2346 NMatT0=    0 NMatD0=    1 NMtDS0=    0 NMtDT0=    0
 Symmetry not used in FoFCou.
 Two-electron integral symmetry not used.
 UHF open shell SCF:
 Using DIIS extrapolation, IDIIS=  1040.
 NGot=  2147483648 LenX=  2141965410 LenY=  2141960069
 Requested convergence on RMS density matrix=1.00D-08 within 128 cycles.
 Requested convergence on MAX density matrix=1.00D-06.
 Requested convergence on             energy=1.00D-06.
 No special actions if energy rises.

 Cycle   1  Pass 1  IDiag  1:
 E= -78.2531923931830    
 DIIS: error= 3.46D-02 at cycle   1 NSaved=   1.
 NSaved= 1 IEnMin= 1 EnMin= -78.2531923931830     IErMin= 1 ErrMin= 3.46D-02
 ErrMax= 3.46D-02  0.00D+00 EMaxC= 1.00D-01 BMatC= 1.48D-01 BMatP= 1.48D-01
 IDIUse=3 WtCom= 6.54D-01 WtEn= 3.46D-01
 Coeff-Com:  0.100D+01
 Coeff-En:   0.100D+01
 Coeff:      0.100D+01
 Gap=     0.163 Goal=   None    Shift=    0.000
 Gap=     0.163 Goal=   None    Shift=    0.000
 GapD=    0.163 DampG=1.000 DampE=0.500 DampFc=0.5000 IDamp=-1.
 Damping current iteration by 5.00D-01
 RMSDP=2.83D-03 MaxDP=5.41D-02              OVMax= 1.41D-01

 Cycle   2  Pass 1  IDiag  1:
 E= -78.2727781566022     Delta-E=       -0.019585763419 Rises=F Damp=T
 DIIS: error= 9.33D-03 at cycle   2 NSaved=   2.
 NSaved= 2 IEnMin= 2 EnMin= -78.2727781566022     IErMin= 2 ErrMin= 9.33D-03
 ErrMax= 9.33D-03  0.00D+00 EMaxC= 1.00D-01 BMatC= 1.38D-02 BMatP= 1.48D-01
 IDIUse=3 WtCom= 9.07D-01 WtEn= 9.33D-02
 Coeff-Com: -0.241D+00 0.124D+01
 Coeff-En:   0.000D+00 0.100D+01
 Coeff:     -0.219D+00 0.122D+01
 Gap=     0.159 Goal=   None    Shift=    0.000
 Gap=     0.159 Goal=   None    Shift=    0.000
 RMSDP=5.92D-04 MaxDP=4.66D-03 DE=-1.96D-02 OVMax= 4.97D-02

 Cycle   3  Pass 1  IDiag  1:
 E= -78.2895690334215     Delta-E=       -0.016790876819 Rises=F Damp=F
 DIIS: error= 1.48D-03 at cycle   3 NSaved=   3.
 NSaved= 3 IEnMin= 3 EnMin= -78.2895690334215     IErMin= 3 ErrMin= 1.48D-03
 ErrMax= 1.48D-03  0.00D+00 EMaxC= 1.00D-01 BMatC= 3.02D-04 BMatP= 1.38D-02
 IDIUse=3 WtCom= 9.85D-01 WtEn= 1.48D-02
 Coeff-Com: -0.567D-01 0.144D+00 0.913D+00
 Coeff-En:   0.000D+00 0.000D+00 0.100D+01
 Coeff:     -0.558D-01 0.142D+00 0.914D+00
 Gap=     0.156 Goal=   None    Shift=    0.000
 Gap=     0.156 Goal=   None    Shift=    0.000
 RMSDP=1.19D-04 MaxDP=9.90D-04 DE=-1.68D-02 OVMax= 5.76D-03

 Cycle   4  Pass 1  IDiag  1:
 E= -78.2896649516867     Delta-E=       -0.000095918265 Rises=F Damp=F
 DIIS: error= 2.97D-04 at cycle   4 NSaved=   4.
 NSaved= 4 IEnMin= 4 EnMin= -78.2896649516867     IErMin= 4 ErrMin= 2.97D-04
 ErrMax= 2.97D-04  0.00D+00 EMaxC= 1.00D-01 BMatC= 1.25D-05 BMatP= 3.02D-04
 IDIUse=3 WtCom= 9.97D-01 WtEn= 2.97D-03
 Coeff-Com: -0.346D-02 0.568D-02 0.177D+00 0.820D+00
 Coeff-En:   0.000D+00 0.000D+00 0.000D+00 0.100D+01
 Coeff:     -0.345D-02 0.566D-02 0.177D+00 0.821D+00
 Gap=     0.156 Goal=   None    Shift=    0.000
 Gap=     0.156 Goal=   None    Shift=    0.000
 RMSDP=1.72D-05 MaxDP=3.17D-04 DE=-9.59D-05 OVMax= 5.47D-04

 Cycle   5  Pass 1  IDiag  1:
 E= -78.2896683981423     Delta-E=       -0.000003446456 Rises=F Damp=F
 DIIS: error= 5.13D-05 at cycle   5 NSaved=   5.
 NSaved= 5 IEnMin= 5 EnMin= -78.2896683981423     IErMin= 5 ErrMin= 5.13D-05
 ErrMax= 5.13D-05  0.00D+00 EMaxC= 1.00D-01 BMatC= 2.80D-07 BMatP= 1.25D-05
 IDIUse=1 WtCom= 1.00D+00 WtEn= 0.00D+00
 Coeff-Com:  0.339D-02-0.759D-02-0.351D-01-0.450D-01 0.108D+01
 Coeff:      0.339D-02-0.759D-02-0.351D-01-0.450D-01 0.108D+01
 Gap=     0.156 Goal=   None    Shift=    0.000
 Gap=     0.156 Goal=   None    Shift=    0.000
 RMSDP=6.03D-06 MaxDP=1.06D-04 DE=-3.45D-06 OVMax= 2.82D-04

 Cycle   6  Pass 1  IDiag  1:
 E= -78.2896685526375     Delta-E=       -0.000000154495 Rises=F Damp=F
 DIIS: error= 5.58D-06 at cycle   6 NSaved=   6.
 NSaved= 6 IEnMin= 6 EnMin= -78.2896685526375     IErMin= 6 ErrMin= 5.58D-06
 ErrMax= 5.58D-06  0.00D+00 EMaxC= 1.00D-01 BMatC= 2.99D-09 BMatP= 2.80D-07
 IDIUse=1 WtCom= 1.00D+00 WtEn= 0.00D+00
 Coeff-Com: -0.174D-03 0.412D-03 0.704D-03-0.109D-01-0.111D+00 0.112D+01
 Coeff:     -0.174D-03 0.412D-03 0.704D-03-0.109D-01-0.111D+00 0.112D+01
 Gap=     0.156 Goal=   None    Shift=    0.000
 Gap=     0.156 Goal=   None    Shift=    0.000
 RMSDP=9.80D-07 MaxDP=9.94D-06 DE=-1.54D-07 OVMax= 4.68D-05

 Cycle   7  Pass 1  IDiag  1:
 E= -78.2896685552168     Delta-E=       -0.000000002579 Rises=F Damp=F
 DIIS: error= 4.06D-07 at cycle   7 NSaved=   7.
 NSaved= 7 IEnMin= 7 EnMin= -78.2896685552168     IErMin= 7 ErrMin= 4.06D-07
 ErrMax= 4.06D-07  0.00D+00 EMaxC= 1.00D-01 BMatC= 1.29D-11 BMatP= 2.99D-09
 IDIUse=1 WtCom= 1.00D+00 WtEn= 0.00D+00
 Coeff-Com: -0.603D-05 0.108D-04 0.137D-03 0.187D-02 0.422D-02-0.124D+00
 Coeff-Com:  0.112D+01
 Coeff:     -0.603D-05 0.108D-04 0.137D-03 0.187D-02 0.422D-02-0.124D+00
 Coeff:      0.112D+01
 Gap=     0.156 Goal=   None    Shift=    0.000
 Gap=     0.156 Goal=   None    Shift=    0.000
 RMSDP=8.35D-08 MaxDP=7.12D-07 DE=-2.58D-09 OVMax= 3.33D-06

 Cycle   8  Pass 1  IDiag  1:
 E= -78.2896685552283     Delta-E=       -0.000000000011 Rises=F Damp=F
 DIIS: error= 3.34D-08 at cycle   8 NSaved=   8.
 NSaved= 8 IEnMin= 8 EnMin= -78.2896685552283     IErMin= 8 ErrMin= 3.34D-08
 ErrMax= 3.34D-08  0.00D+00 EMaxC= 1.00D-01 BMatC= 1.89D-13 BMatP= 1.29D-11
 IDIUse=1 WtCom= 1.00D+00 WtEn= 0.00D+00
 Coeff-Com:  0.197D-05-0.374D-05-0.917D-05-0.579D-04-0.340D-03 0.595D-02
 Coeff-Com: -0.950D-01 0.109D+01
 Coeff:      0.197D-05-0.374D-05-0.917D-05-0.579D-04-0.340D-03 0.595D-02
 Coeff:     -0.950D-01 0.109D+01
 Gap=     0.156 Goal=   None    Shift=    0.000
 Gap=     0.156 Goal=   None    Shift=    0.000
 RMSDP=5.68D-09 MaxDP=6.73D-08 DE=-1.15D-11 OVMax= 1.75D-07

 SCF Done:  E(UM062X) =  -78.2896685552     A.U. after    8 cycles
            NFock=  8  Conv=0.57D-08     -V/T= 2.0115
 <Sx>= 0.0000 <Sy>= 0.0000 <Sz>= 0.0000 <S**2>=-0.0000 S=-0.0000
 <L.S>=  0.00000000000    
 KE= 7.739982234753D+01 PE=-2.314183291065D+02 EE= 5.026994609327D+01
 Annihilation of the first spin contaminant:
 S**2 before annihilation    -0.0000,   after    -0.0000
 Leave Link  502 at Tue Dec  3 11:04:58 2024, MaxMem=  2147483648 cpu:              61.5 elap:               2.7
 (Enter /home/szhao/Apps/g16/l601.exe)
 Copying SCF densities to generalized density rwf, IOpCl= 1 IROHF=0.

 **********************************************************************

            Population analysis using the SCF density.

 **********************************************************************

 Alpha  occ. eigenvalues --  -10.62385 -10.62376  -0.76452  -0.72992  -0.52997
 Alpha  occ. eigenvalues --   -0.51343  -0.34527  -0.24627
 Alpha virt. eigenvalues --   -0.09031  -0.02914   0.03308   0.05438   0.05960
 Alpha virt. eigenvalues --    0.07153   0.09351   0.10190   0.11206   0.14886
 Alpha virt. eigenvalues --    0.16616   0.19760   0.20966   0.27410   0.39042
 Alpha virt. eigenvalues --    0.43206   0.43859   0.57382   0.61930   0.63086
 Alpha virt. eigenvalues --    0.64970   0.65302   0.69510   0.74950   0.75586
 Alpha virt. eigenvalues --    0.81906   1.07832   1.08483   1.16662   1.20787
 Alpha virt. eigenvalues --    1.37609   1.38995   1.41152   1.51011   1.51966
 Alpha virt. eigenvalues --    1.69915   1.74490   1.75294   1.76504   1.81302
 Alpha virt. eigenvalues --    1.92641   2.00705   2.02128   2.04146   2.34713
 Alpha virt. eigenvalues --    2.53119   2.53866   2.58542   2.60199   2.62258
 Alpha virt. eigenvalues --    2.66272   2.66323   2.76555   2.76995   2.86525
 Alpha virt. eigenvalues --    3.10399   3.70295   3.73303  23.80205  23.82316
  Beta  occ. eigenvalues --  -10.62385 -10.62376  -0.76452  -0.72992  -0.52997
  Beta  occ. eigenvalues --   -0.51343  -0.34527  -0.24627
  Beta virt. eigenvalues --   -0.09031  -0.02914   0.03308   0.05438   0.05960
  Beta virt. eigenvalues --    0.07153   0.09351   0.10190   0.11206   0.14886
  Beta virt. eigenvalues --    0.16616   0.19760   0.20966   0.27410   0.39042
  Beta virt. eigenvalues --    0.43206   0.43859   0.57382   0.61930   0.63086
  Beta virt. eigenvalues --    0.64970   0.65302   0.69510   0.74950   0.75586
  Beta virt. eigenvalues --    0.81906   1.07832   1.08483   1.16662   1.20787
  Beta virt. eigenvalues --    1.37609   1.38995   1.41152   1.51011   1.51966
  Beta virt. eigenvalues --    1.69915   1.74490   1.75294   1.76504   1.81302
  Beta virt. eigenvalues --    1.92641   2.00705   2.02128   2.04146   2.34713
  Beta virt. eigenvalues --    2.53119   2.53866   2.58542   2.60199   2.62258
  Beta virt. eigenvalues --    2.66272   2.66323   2.76555   2.76995   2.86525
  Beta virt. eigenvalues --    3.10399   3.70295   3.73303  23.80205  23.82316
          Condensed to atoms (all electrons):
               1          2          3          4          5          6
     1  C    5.236053   0.409686   0.380458   0.380471  -0.016897  -0.016899
     2  C    0.409686   5.236053  -0.016897  -0.016899   0.380458   0.380471
     3  H    0.380458  -0.016897   0.471153  -0.022615   0.000531   0.000931
     4  H    0.380471  -0.016899  -0.022615   0.471149   0.000931   0.000531
     5  H   -0.016897   0.380458   0.000531   0.000931   0.471153  -0.022615
     6  H   -0.016899   0.380471   0.000931   0.000531  -0.022615   0.471149
          Atomic-Atomic Spin Densities.
               1          2          3          4          5          6
     1  C    0.000000   0.000000   0.000000  -0.000000  -0.000000   0.000000
     2  C    0.000000   0.000000   0.000000   0.000000  -0.000000  -0.000000
     3  H    0.000000   0.000000  -0.000000   0.000000   0.000000  -0.000000
     4  H   -0.000000   0.000000   0.000000  -0.000000   0.000000   0.000000
     5  H   -0.000000  -0.000000   0.000000   0.000000  -0.000000  -0.000000
     6  H    0.000000  -0.000000  -0.000000   0.000000  -0.000000   0.000000
 Mulliken charges and spin densities:
               1          2
     1  C   -0.372872   0.000000
     2  C   -0.372872   0.000000
     3  H    0.186439   0.000000
     4  H    0.186433  -0.000000
     5  H    0.186439  -0.000000
     6  H    0.186433  -0.000000
 Sum of Mulliken charges =  -0.00000   0.00000
 Mulliken charges and spin densities with hydrogens summed into heavy atoms:
               1          2
     1  C   -0.000000   0.000000
     2  C    0.000000  -0.000000
 Electronic spatial extent (au):  <R**2>=            139.1405
 Charge=             -0.0000 electrons
 Dipole moment (field-independent basis, Debye):
    X=              0.0000    Y=             -0.0000    Z=              0.0000  Tot=              0.0000
 Quadrupole moment (field-independent basis, Debye-Ang):
   XX=            -10.3669   YY=            -12.1218   ZZ=            -18.6815
   XY=              0.0003   XZ=              0.0000   YZ=              0.0000
 Traceless Quadrupole moment (field-independent basis, Debye-Ang):
   XX=              3.3565   YY=              1.6016   ZZ=             -4.9581
   XY=              0.0003   XZ=              0.0000   YZ=              0.0000
 Octapole moment (field-independent basis, Debye-Ang**2):
  XXX=              0.0000  YYY=             -0.0000  ZZZ=              0.0000  XYY=              0.0000
  XXY=             -0.0000  XXZ=              0.0000  XZZ=              0.0000  YZZ=             -0.0000
  YYZ=              0.0000  XYZ=              0.0000
 Hexadecapole moment (field-independent basis, Debye-Ang**3):
 XXXX=           -145.5095 YYYY=            -27.4583 ZZZZ=            -32.0525 XXXY=             -0.0000
 XXXZ=              0.0000 YYYX=             -0.0004 YYYZ=              0.0000 ZZZX=              0.0000
 ZZZY=             -0.0000 XXYY=            -21.2424 XXZZ=            -34.4215 YYZZ=            -11.0481
 XXYZ=              0.0000 YYXZ=              0.0000 ZZXY=             -0.0008
 N-N= 2.545889211048D+01 E-N=-2.314183301025D+02  KE= 7.739982234753D+01
                          Isotropic Fermi Contact Couplings
        Atom                 a.u.       MegaHertz       Gauss      10(-4) cm-1
     1  C(13)             -0.00000      -0.00000      -0.00000      -0.00000
     2  C(13)              0.00000       0.00000       0.00000       0.00000
     3  H(1)              -0.00000      -0.00000      -0.00000      -0.00000
     4  H(1)              -0.00000      -0.00000      -0.00000      -0.00000
     5  H(1)              -0.00000      -0.00000      -0.00000      -0.00000
     6  H(1)               0.00000       0.00000       0.00000       0.00000
 --------------------------------------------------------
       Center         ----  Spin Dipole Couplings  ----
                      3XX-RR        3YY-RR        3ZZ-RR
 --------------------------------------------------------
     1   Atom        0.000000      0.000000      0.000000
     2   Atom        0.000000      0.000000      0.000000
     3   Atom        0.000000      0.000000      0.000000
     4   Atom        0.000000      0.000000      0.000000
     5   Atom        0.000000      0.000000      0.000000
     6   Atom        0.000000      0.000000      0.000000
 --------------------------------------------------------
                        XY            XZ            YZ
 --------------------------------------------------------
     1   Atom        0.000000      0.000000      0.000000
     2   Atom        0.000000      0.000000      0.000000
     3   Atom        0.000000      0.000000      0.000000
     4   Atom        0.000000      0.000000      0.000000
     5   Atom        0.000000      0.000000      0.000000
     6   Atom        0.000000      0.000000      0.000000
 --------------------------------------------------------


 ---------------------------------------------------------------------------------
              Anisotropic Spin Dipole Couplings in Principal Axis System
 ---------------------------------------------------------------------------------

       Atom             a.u.   MegaHertz   Gauss  10(-4) cm-1        Axes

              Baa     0.0000     0.000     0.000     0.000  1.0000  0.0000  0.0000
     1 C(13)  Bbb     0.0000     0.000     0.000     0.000 -0.0000  1.0000  0.0000
              Bcc     0.0000     0.000     0.000     0.000  0.0000  0.0000  1.0000
 
              Baa     0.0000     0.000     0.000     0.000  1.0000  0.0000  0.0000
     2 C(13)  Bbb     0.0000     0.000     0.000     0.000 -0.0000  1.0000  0.0000
              Bcc     0.0000     0.000     0.000     0.000  0.0000  0.0000  1.0000
 
              Baa     0.0000     0.000     0.000     0.000  1.0000  0.0000  0.0000
     3 H(1)   Bbb     0.0000     0.000     0.000     0.000 -0.0000  1.0000  0.0000
              Bcc     0.0000     0.000     0.000     0.000  0.0000  0.0000  1.0000
 
              Baa     0.0000     0.000     0.000     0.000  1.0000  0.0000  0.0000
     4 H(1)   Bbb     0.0000     0.000     0.000     0.000 -0.0000  1.0000  0.0000
              Bcc     0.0000     0.000     0.000     0.000  0.0000  0.0000  1.0000
 
              Baa     0.0000     0.000     0.000     0.000  1.0000  0.0000  0.0000
     5 H(1)   Bbb     0.0000     0.000     0.000     0.000 -0.0000  1.0000  0.0000
              Bcc     0.0000     0.000     0.000     0.000  0.0000  0.0000  1.0000
 
              Baa     0.0000     0.000     0.000     0.000  1.0000  0.0000  0.0000
     6 H(1)   Bbb     0.0000     0.000     0.000     0.000 -0.0000  1.0000  0.0000
              Bcc     0.0000     0.000     0.000     0.000  0.0000  0.0000  1.0000
 

 ---------------------------------------------------------------------------------

 No NMR shielding tensors so no spin-rotation constants.
 Leave Link  601 at Tue Dec  3 11:04:59 2024, MaxMem=  2147483648 cpu:               2.7 elap:               0.1
 (Enter /home/szhao/Apps/g16/l701.exe)
 ... and contract with generalized density number  0.
 Compute integral first derivatives.
 Leave Link  701 at Tue Dec  3 11:04:59 2024, MaxMem=  2147483648 cpu:               2.8 elap:               0.1
 (Enter /home/szhao/Apps/g16/l702.exe)
 L702 exits ... SP integral derivatives will be done elsewhere.
 Leave Link  702 at Tue Dec  3 11:04:59 2024, MaxMem=  2147483648 cpu:               0.9 elap:               0.1
 (Enter /home/szhao/Apps/g16/l703.exe)
 Integral derivatives from FoFJK, PRISM(SPDF).
 Compute integral first derivatives, UseDBF=F ICtDFT=           0.
 Calling FoFJK, ICntrl=      2127 FMM=F ISym2X=0 I1Cent= 0 IOpClX= 1 NMat=1 NMatS=1 NMatT=0.
 FoFJK:  IHMeth= 1 ICntrl=    2127 DoSepK=F KAlg= 0 I1Cent=           0 FoldK=F
 IRaf=         0 NMat=       1 IRICut=       1 DoRegI=T DoRafI=F ISym2E= 0 IDoP0=0 IntGTp=1.
 FoFCou: FMM=F IPFlag=           0 FMFlag=      100000 FMFlg1=         800
         NFxFlg=           0 DoJE=F BraDBF=F KetDBF=F FulRan=T
         wScrn=  0.000000 ICntrl=      2127 IOpCl=  1 I1Cent=           0 NGrid=           0
         NMat0=    1 NMatS0=      1 NMatT0=    0 NMatD0=    1 NMtDS0=    0 NMtDT0=    0
 Symmetry not used in FoFCou.
 Leave Link  703 at Tue Dec  3 11:05:00 2024, MaxMem=  2147483648 cpu:              13.7 elap:               0.6
 (Enter /home/szhao/Apps/g16/l716.exe)
 Dipole        = 1.24332891D-08-7.14983628D-14 2.56139471D-15
 -------------------------------------------------------------------
 Center     Atomic                   Forces (Hartrees/Bohr)
 Number     Number              X              Y              Z
 -------------------------------------------------------------------
      1        6          -0.000000000   -0.000000000   -0.000000000
      2        6          -0.000000000   -0.000000000   -0.000000000
      3        1           0.002062860   -0.001299523   -0.000000000
      4        1           0.002022237    0.001386542    0.000000000
      5        1          -0.002062860    0.001299523   -0.000000000
      6        1          -0.002022237   -0.001386541   -0.000000000
 -------------------------------------------------------------------
 Cartesian Forces:  Max     0.002062860 RMS     0.001152586
 Leave Link  716 at Tue Dec  3 11:05:01 2024, MaxMem=  2147483648 cpu:               0.9 elap:               0.0
 (Enter /home/szhao/Apps/g16/l103.exe)

 GradGradGradGradGradGradGradGradGradGradGradGradGradGradGradGradGradGrad
 Berny optimization.
 FormGI is forming the generalized inverse of G from B-inverse, IUseBI=4.
 Internal  Forces:  Max     0.004085097 RMS     0.001820064
 Search for a local minimum.
 Step number   1 out of a maximum of   30
 All quantities printed in internal units (Hartrees-Bohrs-Radians)
 RMS Force = .15321D-02 SwitMx=.10000D-02 MixMth= 1
 Mixed Optimization -- RFO/linear search
 Second derivative matrix not updated -- first step.
 The second derivative matrix:
                          X1        Y1        Z1        X2        Y2
           X1           0.50000
           Y1           0.00000   0.50000
           Z1           0.00000   0.00000   0.50000
           X2           0.00000   0.00000   0.00000   0.50000
           Y2           0.00000   0.00000   0.00000   0.00000   0.50000
           Z2           0.00000   0.00000   0.00000   0.00000   0.00000
           R1           0.00000   0.00000   0.00000   0.00000   0.00000
           R2           0.00000   0.00000   0.00000   0.00000   0.00000
           R3           0.00000   0.00000   0.00000   0.00000   0.00000
           R4           0.00000   0.00000   0.00000   0.00000   0.00000
           A1           0.00000   0.00000   0.00000   0.00000   0.00000
           A2           0.00000   0.00000   0.00000   0.00000   0.00000
           A3           0.00000   0.00000   0.00000   0.00000   0.00000
           A4           0.00000   0.00000   0.00000   0.00000   0.00000
           A5           0.00000   0.00000   0.00000   0.00000   0.00000
           A6           0.00000   0.00000   0.00000   0.00000   0.00000
           D1           0.00000   0.00000   0.00000   0.00000   0.00000
           D2           0.00000   0.00000   0.00000   0.00000   0.00000
           D3           0.00000   0.00000   0.00000   0.00000   0.00000
           D4           0.00000   0.00000   0.00000   0.00000   0.00000
                          Z2        R1        R2        R3        R4
           Z2           0.50000
           R1           0.00000   0.36249
           R2           0.00000   0.00000   0.36265
           R3           0.00000   0.00000   0.00000   0.36249
           R4           0.00000   0.00000   0.00000   0.00000   0.36265
           A1           0.00000   0.00000   0.00000   0.00000   0.00000
           A2           0.00000   0.00000   0.00000   0.00000   0.00000
           A3           0.00000   0.00000   0.00000   0.00000   0.00000
           A4           0.00000   0.00000   0.00000   0.00000   0.00000
           A5           0.00000   0.00000   0.00000   0.00000   0.00000
           A6           0.00000   0.00000   0.00000   0.00000   0.00000
           D1           0.00000   0.00000   0.00000   0.00000   0.00000
           D2           0.00000   0.00000   0.00000   0.00000   0.00000
           D3           0.00000   0.00000   0.00000   0.00000   0.00000
           D4           0.00000   0.00000   0.00000   0.00000   0.00000
                          A1        A2        A3        A4        A5
           A1           0.16000
           A2           0.00000   0.16000
           A3           0.00000   0.00000   0.16000
           A4           0.00000   0.00000   0.00000   0.16000
           A5           0.00000   0.00000   0.00000   0.00000   0.16000
           A6           0.00000   0.00000   0.00000   0.00000   0.00000
           D1           0.00000   0.00000   0.00000   0.00000   0.00000
           D2           0.00000   0.00000   0.00000   0.00000   0.00000
           D3           0.00000   0.00000   0.00000   0.00000   0.00000
           D4           0.00000   0.00000   0.00000   0.00000   0.00000
                          A6        D1        D2        D3        D4
           A6           0.16000
           D1           0.00000   0.00230
           D2           0.00000   0.00000   0.00230
           D3           0.00000   0.00000   0.00000   0.00230
           D4           0.00000   0.00000   0.00000   0.00000   0.00230
 ITU=  0
     Eigenvalues ---    0.00230   0.00230   0.00230   0.16000   0.16000
     Eigenvalues ---    0.16000   0.16000   0.36249   0.36249   0.36265
     Eigenvalues ---    0.362651000.000001000.000001000.000001000.00000
     Eigenvalues --- 1000.000001000.000001000.000001000.000001000.00000
 RFO step:  Lambda=-2.03249319D-04 EMin= 2.30000000D-03
 Linear search not attempted -- first point.
 Iteration  1 RMS(Cart)=  0.00934277 RMS(Int)=  0.00004796
 Iteration  2 RMS(Cart)=  0.00004803 RMS(Int)=  0.00000000
 Iteration  3 RMS(Cart)=  0.00000000 RMS(Int)=  0.00000000
 ITry= 1 IFail=0 DXMaxC= 1.86D-02 DCOld= 1.00D+10 DXMaxT= 3.00D-01 DXLimC= 3.00D+00 Rises=F
 Variable       Old X    -DE/DX   Delta X   Delta X   Delta X     New X
                                 (Linear)    (Quad)   (Total)
    X1       -2.19321   0.00409   0.00000   0.00000   0.00000  -2.19321
    Y1        0.00000   0.00009   0.00000   0.00000   0.00000   0.00000
    Z1        0.00000   0.00000   0.00000   0.00000   0.00000   0.00000
    X2        2.19321  -0.00409   0.00000   0.00000   0.00000   2.19321
    Y2        0.00000  -0.00009   0.00000   0.00000   0.00000   0.00000
    Z2        0.00000  -0.00000   0.00000   0.00000   0.00000   0.00000
    R1        2.03695   0.00032   0.00000   0.00087   0.00087   2.03782
    R2        2.03670   0.00041   0.00000   0.00113   0.00113   2.03783
    R3        2.03695   0.00032   0.00000   0.00087   0.00087   2.03782
    R4        2.03670   0.00041   0.00000   0.00113   0.00113   2.03783
    A1        2.00317  -0.00164   0.00000  -0.01025  -0.01025   1.99292
    A2        2.00314  -0.00164   0.00000  -0.01024  -0.01024   1.99290
    A3        2.27688   0.00328   0.00000   0.02049   0.02049   2.29737
    A4        2.00317  -0.00164   0.00000  -0.01025  -0.01025   1.99292
    A5        2.00314  -0.00164   0.00000  -0.01024  -0.01024   1.99290
    A6        2.27688   0.00328   0.00000   0.02049   0.02049   2.29737
    D1        3.14159  -0.00000   0.00000  -0.00000   0.00000   3.14159
    D2        0.00000   0.00000   0.00000   0.00000   0.00000   0.00000
    D3        0.00000  -0.00000   0.00000  -0.00000  -0.00000   0.00000
    D4        3.14159   0.00000   0.00000   0.00000   0.00000   3.14159
         Item               Value     Threshold  Converged?
 Maximum Force            0.003282     0.000450     NO 
 RMS     Force            0.001532     0.000300     NO 
 Maximum Displacement     0.018644     0.001800     NO 
 RMS     Displacement     0.009345     0.001200     NO 
 Predicted change in Energy=-1.017532D-04
 Lowest energy point so far.  Saving SCF results.
 GradGradGradGradGradGradGradGradGradGradGradGradGradGradGradGradGradGrad

 Leave Link  103 at Tue Dec  3 11:05:01 2024, MaxMem=  2147483648 cpu:               0.7 elap:               0.1
 (Enter /home/szhao/Apps/g16/l202.exe)
                          Input orientation:                          
 ---------------------------------------------------------------------
 Center     Atomic      Atomic             Coordinates (Angstroms)
 Number     Number       Type             X           Y           Z
 ---------------------------------------------------------------------
      1          6           0       -1.160595    0.000000    0.000000
      2          6           0        1.160595    0.000000    0.000000
      3          1           0       -1.602399   -0.983708    0.000000
      4          1           0       -1.602382    0.983726    0.000000
      5          1           0        1.602399    0.983708   -0.000000
      6          1           0        1.602382   -0.983726   -0.000000
 ---------------------------------------------------------------------
                    Distance matrix (angstroms):
                    1          2          3          4          5
     1  C    0.000000
     2  C    2.321190   0.000000
     3  H    1.078365   2.932885   0.000000
     4  H    1.078375   2.932876   1.967433   0.000000
     5  H    2.932885   1.078365   3.760512   3.204781   0.000000
     6  H    2.932876   1.078375   3.204781   3.760503   1.967433
                    6
     6  H    0.000000
 Symmetry turned off by external request.
 Stoichiometry    C2H4
 Framework group  C2H[SGH(C2H4)]
 Deg. of freedom     5
 Full point group                 C2H     NOp   4
 Rotational constants (GHZ):         129.5483877          11.8415279          10.8497897
 Leave Link  202 at Tue Dec  3 11:05:01 2024, MaxMem=  2147483648 cpu:               0.2 elap:               0.0
 (Enter /home/szhao/Apps/g16/l301.exe)
 Standard basis: 6-311+G(d,p) (5D, 7F)
 Ernie: Thresh=  0.10000D-02 Tol=  0.10000D-05 Strict=F.
    68 basis functions,   104 primitive gaussians,    70 cartesian basis functions
     8 alpha electrons        8 beta electrons
       nuclear repulsion energy        25.4643471855 Hartrees.
 IExCor= 4336 DFT=T Ex+Corr=M062X ExCW=0 ScaHFX=  0.540000
 ScaDFX=  1.000000  1.000000  1.000000  1.000000 ScalE2=  1.000000  1.000000
 IRadAn=      7 IRanWt=     -1 IRanGd=            0 ICorTp=0 IEmpDi=  4
 NAtoms=    6 NActive=    6 NUniq=    6 SFac= 1.00D+00 NAtFMM=   60 NAOKFM=F Big=F
 Integral buffers will be    131072 words long.
 Raffenetti 2 integral format.
 Two-electron integral symmetry is turned off.
 Leave Link  301 at Tue Dec  3 11:05:01 2024, MaxMem=  2147483648 cpu:               1.3 elap:               0.1
 (Enter /home/szhao/Apps/g16/l302.exe)
 NPDir=0 NMtPBC=     1 NCelOv=     1 NCel=       1 NClECP=     1 NCelD=      1
         NCelK=      1 NCelE2=     1 NClLst=     1 CellRange=     0.0.
 One-electron integrals computed using PRISM.
 NBasis=    68 RedAO= T EigKep=  2.77D-03  NBF=    68
 NBsUse=    68 1.00D-06 EigRej= -1.00D+00 NBFU=    68
 Precomputing XC quadrature grid using
 IXCGrd= 4 IRadAn=           7 IRanWt=          -1 IRanGd=           0 AccXCQ= 0.00D+00.
 Generated NRdTot=       0 NPtTot=           0 NUsed=           0 NTot=          32
 NSgBfM=    70    70    70    70    70 MxSgAt=     6 MxSgA2=     6.
 Leave Link  302 at Tue Dec  3 11:05:01 2024, MaxMem=  2147483648 cpu:               3.7 elap:               0.2
 (Enter /home/szhao/Apps/g16/l303.exe)
 DipDrv:  MaxL=1.
 Leave Link  303 at Tue Dec  3 11:05:01 2024, MaxMem=  2147483648 cpu:               0.9 elap:               0.0
 (Enter /home/szhao/Apps/g16/l401.exe)
 Initial guess from the checkpoint file:  "opt.chk"
 B after Tr=    -0.000000   -0.000000   -0.000000
         Rot=    1.000000    0.000000   -0.000000    0.000004 Ang=   0.00 deg.
 Guess basis will be translated and rotated to current coordinates.
 JPrj=2 DoOrth=T DoCkMO=T.
 Initial guess <Sx>= 0.0000 <Sy>= 0.0000 <Sz>= 0.0000 <S**2>=-0.0000 S=-0.0000
 Leave Link  401 at Tue Dec  3 11:05:01 2024, MaxMem=  2147483648 cpu:               2.7 elap:               0.1
 (Enter /home/szhao/Apps/g16/l502.exe)
 Keep R1 and R2 ints in memory in canonical form, NReq=27031774.
 FoFCou: FMM=F IPFlag=           0 FMFlag=           0 FMFlg1=           0
         NFxFlg=           0 DoJE=F BraDBF=F KetDBF=F FulRan=T
         wScrn=  0.000000 ICntrl=       600 IOpCl=  0 I1Cent=           0 NGrid=           0
         NMat0=    1 NMatS0=   2346 NMatT0=    0 NMatD0=    1 NMtDS0=    0 NMtDT0=    0
 Symmetry not used in FoFCou.
 Two-electron integral symmetry not used.
 UHF open shell SCF:
 Using DIIS extrapolation, IDIIS=  1040.
 NGot=  2147483648 LenX=  2141965410 LenY=  2141960069
 Requested convergence on RMS density matrix=1.00D-08 within 128 cycles.
 Requested convergence on MAX density matrix=1.00D-06.
 Requested convergence on             energy=1.00D-06.
 No special actions if energy rises.

 Cycle   1  Pass 1  IDiag  1:
 E= -78.2898038316911    
 DIIS: error= 8.84D-04 at cycle   1 NSaved=   1.
 NSaved= 1 IEnMin= 1 EnMin= -78.2898038316911     IErMin= 1 ErrMin= 8.84D-04
 ErrMax= 8.84D-04  0.00D+00 EMaxC= 1.00D-01 BMatC= 5.87D-05 BMatP= 5.87D-05
 IDIUse=3 WtCom= 9.91D-01 WtEn= 8.84D-03
 Coeff-Com:  0.100D+01
 Coeff-En:   0.100D+01
 Coeff:      0.100D+01
 Gap=     0.446 Goal=   None    Shift=    0.000
 Gap=     0.446 Goal=   None    Shift=    0.000
 RMSDP=4.71D-05 MaxDP=4.85D-04              OVMax= 1.97D-03

 Cycle   2  Pass 1  IDiag  1:
 E= -78.2898224189044     Delta-E=       -0.000018587213 Rises=F Damp=F
 DIIS: error= 1.52D-04 at cycle   2 NSaved=   2.
 NSaved= 2 IEnMin= 2 EnMin= -78.2898224189044     IErMin= 2 ErrMin= 1.52D-04
 ErrMax= 1.52D-04  0.00D+00 EMaxC= 1.00D-01 BMatC= 1.55D-06 BMatP= 5.87D-05
 IDIUse=3 WtCom= 9.98D-01 WtEn= 1.52D-03
 Coeff-Com: -0.479D-01 0.105D+01
 Coeff-En:   0.000D+00 0.100D+01
 Coeff:     -0.478D-01 0.105D+01
 Gap=     0.156 Goal=   None    Shift=    0.000
 Gap=     0.156 Goal=   None    Shift=    0.000
 RMSDP=1.35D-05 MaxDP=1.46D-04 DE=-1.86D-05 OVMax= 5.34D-04

 Cycle   3  Pass 1  IDiag  1:
 E= -78.2898230443349     Delta-E=       -0.000000625430 Rises=F Damp=F
 DIIS: error= 3.33D-05 at cycle   3 NSaved=   3.
 NSaved= 3 IEnMin= 3 EnMin= -78.2898230443349     IErMin= 3 ErrMin= 3.33D-05
 ErrMax= 3.33D-05  0.00D+00 EMaxC= 1.00D-01 BMatC= 1.02D-07 BMatP= 1.55D-06
 IDIUse=1 WtCom= 1.00D+00 WtEn= 0.00D+00
 Coeff-Com: -0.260D-01 0.163D+00 0.863D+00
 Coeff:     -0.260D-01 0.163D+00 0.863D+00
 Gap=     0.156 Goal=   None    Shift=    0.000
 Gap=     0.156 Goal=   None    Shift=    0.000
 RMSDP=2.59D-06 MaxDP=3.41D-05 DE=-6.25D-07 OVMax= 1.01D-04

 Cycle   4  Pass 1  IDiag  1:
 E= -78.2898230818073     Delta-E=       -0.000000037472 Rises=F Damp=F
 DIIS: error= 5.47D-06 at cycle   4 NSaved=   4.
 NSaved= 4 IEnMin= 4 EnMin= -78.2898230818073     IErMin= 4 ErrMin= 5.47D-06
 ErrMax= 5.47D-06  0.00D+00 EMaxC= 1.00D-01 BMatC= 2.60D-09 BMatP= 1.02D-07
 IDIUse=1 WtCom= 1.00D+00 WtEn= 0.00D+00
 Coeff-Com:  0.301D-02-0.478D-01-0.290D-01 0.107D+01
 Coeff:      0.301D-02-0.478D-01-0.290D-01 0.107D+01
 Gap=     0.156 Goal=   None    Shift=    0.000
 Gap=     0.156 Goal=   None    Shift=    0.000
 RMSDP=1.03D-06 MaxDP=1.30D-05 DE=-3.75D-08 OVMax= 2.93D-05

 Cycle   5  Pass 1  IDiag  1:
 E= -78.2898230831875     Delta-E=       -0.000000001380 Rises=F Damp=F
 DIIS: error= 1.01D-06 at cycle   5 NSaved=   5.
 NSaved= 5 IEnMin= 5 EnMin= -78.2898230831875     IErMin= 5 ErrMin= 1.01D-06
 ErrMax= 1.01D-06  0.00D+00 EMaxC= 1.00D-01 BMatC= 1.33D-10 BMatP= 2.60D-09
 IDIUse=1 WtCom= 1.00D+00 WtEn= 0.00D+00
 Coeff-Com:  0.129D-02-0.175D-01-0.220D-01 0.343D+00 0.695D+00
 Coeff:      0.129D-02-0.175D-01-0.220D-01 0.343D+00 0.695D+00
 Gap=     0.156 Goal=   None    Shift=    0.000
 Gap=     0.156 Goal=   None    Shift=    0.000
 RMSDP=9.22D-08 MaxDP=1.46D-06 DE=-1.38D-09 OVMax= 3.06D-06

 Cycle   6  Pass 1  IDiag  1:
 E= -78.2898230832258     Delta-E=       -0.000000000038 Rises=F Damp=F
 DIIS: error= 2.65D-07 at cycle   6 NSaved=   6.
 NSaved= 6 IEnMin= 6 EnMin= -78.2898230832258     IErMin= 6 ErrMin= 2.65D-07
 ErrMax= 2.65D-07  0.00D+00 EMaxC= 1.00D-01 BMatC= 9.98D-12 BMatP= 1.33D-10
 IDIUse=1 WtCom= 1.00D+00 WtEn= 0.00D+00
 Coeff-Com:  0.673D-04-0.475D-03-0.371D-02 0.392D-02 0.192D+00 0.808D+00
 Coeff:      0.673D-04-0.475D-03-0.371D-02 0.392D-02 0.192D+00 0.808D+00
 Gap=     0.156 Goal=   None    Shift=    0.000
 Gap=     0.156 Goal=   None    Shift=    0.000
 RMSDP=4.47D-08 MaxDP=5.89D-07 DE=-3.83D-11 OVMax= 2.81D-06

 Cycle   7  Pass 1  IDiag  1:
 E= -78.2898230832170     Delta-E=        0.000000000009 Rises=F Damp=F
 DIIS: error= 7.93D-07 at cycle   7 NSaved=   7.
 NSaved= 7 IEnMin= 6 EnMin= -78.2898230832258     IErMin= 6 ErrMin= 2.65D-07
 ErrMax= 7.93D-07  0.00D+00 EMaxC= 1.00D-01 BMatC= 4.00D-11 BMatP= 9.98D-12
 IDIUse=1 WtCom= 1.00D+00 WtEn= 0.00D+00
 Coeff-Com: -0.902D-04 0.161D-02-0.813D-03-0.361D-01 0.915D-01 0.712D+00
 Coeff-Com:  0.232D+00
 Coeff:     -0.902D-04 0.161D-02-0.813D-03-0.361D-01 0.915D-01 0.712D+00
 Coeff:      0.232D+00
 Gap=     0.156 Goal=   None    Shift=    0.000
 Gap=     0.156 Goal=   None    Shift=    0.000
 RMSDP=2.56D-08 MaxDP=4.21D-07 DE= 8.84D-12 OVMax= 2.16D-06

 Cycle   8  Pass 1  IDiag  1:
 E= -78.2898230832293     Delta-E=       -0.000000000012 Rises=F Damp=F
 DIIS: error= 2.19D-08 at cycle   8 NSaved=   8.
 NSaved= 8 IEnMin= 8 EnMin= -78.2898230832293     IErMin= 8 ErrMin= 2.19D-08
 ErrMax= 2.19D-08  0.00D+00 EMaxC= 1.00D-01 BMatC= 5.02D-14 BMatP= 9.98D-12
 IDIUse=1 WtCom= 1.00D+00 WtEn= 0.00D+00
 Coeff-Com: -0.645D-05 0.446D-04 0.203D-03 0.490D-03-0.196D-01-0.959D-01
 Coeff-Com:  0.137D-02 0.111D+01
 Coeff:     -0.645D-05 0.446D-04 0.203D-03 0.490D-03-0.196D-01-0.959D-01
 Coeff:      0.137D-02 0.111D+01
 Gap=     0.156 Goal=   None    Shift=    0.000
 Gap=     0.156 Goal=   None    Shift=    0.000
 RMSDP=3.71D-09 MaxDP=4.30D-08 DE=-1.23D-11 OVMax= 1.50D-07

 SCF Done:  E(UM062X) =  -78.2898230832     A.U. after    8 cycles
            NFock=  8  Conv=0.37D-08     -V/T= 2.0115
 <Sx>= 0.0000 <Sy>= 0.0000 <Sz>= 0.0000 <S**2>=-0.0000 S=-0.0000
 <L.S>=  0.00000000000    
 KE= 7.739721946890D+01 PE=-2.314304391636D+02 EE= 5.027904942600D+01
 Annihilation of the first spin contaminant:
 S**2 before annihilation    -0.0000,   after     0.0000
 Leave Link  502 at Tue Dec  3 11:05:04 2024, MaxMem=  2147483648 cpu:              59.1 elap:               2.6
 (Enter /home/szhao/Apps/g16/l701.exe)
 ... and contract with generalized density number  0.
 Compute integral first derivatives.
 Leave Link  701 at Tue Dec  3 11:05:04 2024, MaxMem=  2147483648 cpu:               3.4 elap:               0.2
 (Enter /home/szhao/Apps/g16/l702.exe)
 L702 exits ... SP integral derivatives will be done elsewhere.
 Leave Link  702 at Tue Dec  3 11:05:05 2024, MaxMem=  2147483648 cpu:               0.9 elap:               0.1
 (Enter /home/szhao/Apps/g16/l703.exe)
 Integral derivatives from FoFJK, PRISM(SPDF).
 Compute integral first derivatives, UseDBF=F ICtDFT=           0.
 Calling FoFJK, ICntrl=      2127 FMM=F ISym2X=0 I1Cent= 0 IOpClX= 1 NMat=1 NMatS=1 NMatT=0.
 FoFJK:  IHMeth= 1 ICntrl=    2127 DoSepK=F KAlg= 0 I1Cent=           0 FoldK=F
 IRaf=         0 NMat=       1 IRICut=       1 DoRegI=T DoRafI=F ISym2E= 0 IDoP0=0 IntGTp=1.
 FoFCou: FMM=F IPFlag=           0 FMFlag=      100000 FMFlg1=         800
         NFxFlg=           0 DoJE=F BraDBF=F KetDBF=F FulRan=T
         wScrn=  0.000000 ICntrl=      2127 IOpCl=  1 I1Cent=           0 NGrid=           0
         NMat0=    1 NMatS0=      1 NMatT0=    0 NMatD0=    1 NMtDS0=    0 NMtDT0=    0
 Symmetry not used in FoFCou.
 Leave Link  703 at Tue Dec  3 11:05:05 2024, MaxMem=  2147483648 cpu:              13.6 elap:               0.6
 (Enter /home/szhao/Apps/g16/l716.exe)
 Dipole        = 1.79828863D-09-1.79856130D-14-8.04198519D-13
 -------------------------------------------------------------------
 Center     Atomic                   Forces (Hartrees/Bohr)
 Number     Number              X              Y              Z
 -------------------------------------------------------------------
      1        6          -0.000000000   -0.000000000   -0.000000000
      2        6          -0.000000000   -0.000000000   -0.000000000
      3        1           0.001282328   -0.000281598    0.000000000
      4        1           0.001284497    0.000274887    0.000000000
      5        1          -0.001282328    0.000281599   -0.000000000
      6        1          -0.001284497   -0.000274888   -0.000000000
 -------------------------------------------------------------------
 Cartesian Forces:  Max     0.001284497 RMS     0.000619064
 Leave Link  716 at Tue Dec  3 11:05:05 2024, MaxMem=  2147483648 cpu:               0.9 elap:               0.1
 (Enter /home/szhao/Apps/g16/l103.exe)

 GradGradGradGradGradGradGradGradGradGradGradGradGradGradGradGradGradGrad
 Berny optimization.
 Using GEDIIS/GDIIS optimizer.
 FormGI is forming the generalized inverse of G from B-inverse, IUseBI=4.
 Internal  Forces:  Max     0.002566825 RMS     0.001063309
 Search for a local minimum.
 Step number   2 out of a maximum of   30
 All quantities printed in internal units (Hartrees-Bohrs-Radians)
 RMS Force = .82094D-03 SwitMx=.10000D-02 MixMth= 2
 Mixed Optimization -- En-DIIS/RFO-DIIS
 Update second derivatives using D2CorX and points    1    2
 DE= -1.55D-04 DEPred=-1.02D-04 R= 1.52D+00
 TightC=F SS=  1.41D+00  RLast= 3.55D-02 DXNew= 5.0454D-01 1.0664D-01
 Trust test= 1.52D+00 RLast= 3.55D-02 DXMaxT set to 3.00D-01
 The second derivative matrix:
                          X1        Y1        Z1        X2        Y2
           X1           0.52375
           Y1           0.00147   0.50009
           Z1          -0.00000  -0.00000   0.50000
           X2          -0.02375  -0.00147   0.00000   0.52375
           Y2          -0.00147  -0.00009   0.00000   0.00147   0.50009
           Z2           0.00000   0.00000  -0.00000  -0.00000  -0.00000
           R1           0.00914   0.00056  -0.00000  -0.00914  -0.00056
           R2           0.01075   0.00066  -0.00000  -0.01075  -0.00066
           R3           0.00914   0.00056  -0.00000  -0.00914  -0.00056
           R4           0.01075   0.00066  -0.00000  -0.01075  -0.00066
           A1          -0.01202  -0.00074   0.00000   0.01202   0.00074
           A2          -0.01202  -0.00074   0.00000   0.01202   0.00074
           A3           0.02404   0.00148  -0.00000  -0.02404  -0.00148
           A4          -0.01202  -0.00074   0.00000   0.01202   0.00074
           A5          -0.01202  -0.00074   0.00000   0.01202   0.00074
           A6           0.02404   0.00148  -0.00000  -0.02404  -0.00148
           D1           0.00000   0.00000  -0.00000  -0.00000  -0.00000
           D2          -0.00000  -0.00000   0.00000   0.00000   0.00000
           D3           0.00000   0.00000  -0.00000  -0.00000  -0.00000
           D4           0.00000   0.00000  -0.00000  -0.00000  -0.00000
                          Z2        R1        R2        R3        R4
           Z2           0.50000
           R1           0.00000   0.36551
           R2           0.00000   0.00350   0.36668
           R3           0.00000   0.00302   0.00350   0.36551
           R4           0.00000   0.00350   0.00403   0.00350   0.36668
           A1          -0.00000  -0.00208  -0.00212  -0.00208  -0.00212
           A2          -0.00000  -0.00208  -0.00212  -0.00208  -0.00212
           A3           0.00000   0.00416   0.00424   0.00416   0.00424
           A4          -0.00000  -0.00208  -0.00212  -0.00208  -0.00212
           A5          -0.00000  -0.00208  -0.00212  -0.00208  -0.00212
           A6           0.00000   0.00416   0.00424   0.00416   0.00424
           D1           0.00000   0.00000   0.00000   0.00000   0.00000
           D2          -0.00000  -0.00000  -0.00000  -0.00000  -0.00000
           D3           0.00000   0.00000   0.00000   0.00000   0.00000
           D4           0.00000   0.00000   0.00000   0.00000   0.00000
                          A1        A2        A3        A4        A5
           A1           0.15284
           A2          -0.00715   0.15286
           A3           0.01431   0.01429   0.13140
           A4          -0.00716  -0.00715   0.01431   0.15284
           A5          -0.00715  -0.00714   0.01429  -0.00715   0.15286
           A6           0.01431   0.01429  -0.02860   0.01431   0.01429
           D1          -0.00000  -0.00000   0.00000  -0.00000  -0.00000
           D2           0.00000   0.00000  -0.00000   0.00000   0.00000
           D3          -0.00000  -0.00000   0.00000  -0.00000  -0.00000
           D4          -0.00000  -0.00000   0.00000  -0.00000  -0.00000
                          A6        D1        D2        D3        D4
           A6           0.13140
           D1           0.00000   0.00230
           D2          -0.00000  -0.00000   0.00230
           D3           0.00000   0.00000  -0.00000   0.00230
           D4           0.00000   0.00000  -0.00000   0.00000   0.00230
 ITU=  1  0
 Use linear search instead of GDIIS.
     Eigenvalues ---    0.00230   0.00230   0.00230   0.07350   0.16000
     Eigenvalues ---    0.16000   0.16000   0.36249   0.36255   0.36265
     Eigenvalues ---    0.377391000.000001000.000001000.000001000.00000
     Eigenvalues --- 1000.000001000.000001000.000001000.000001000.00000
 RFO step:  Lambda=-1.07912016D-05 EMin= 2.30000000D-03
 Quartic linear search produced a step of  1.12255.
 Iteration  1 RMS(Cart)=  0.01117042 RMS(Int)=  0.00006855
 Iteration  2 RMS(Cart)=  0.00006861 RMS(Int)=  0.00000000
 Iteration  3 RMS(Cart)=  0.00000000 RMS(Int)=  0.00000000
 ITry= 1 IFail=0 DXMaxC= 2.34D-02 DCOld= 1.00D+10 DXMaxT= 3.00D-01 DXLimC= 3.00D+00 Rises=F
 Variable       Old X    -DE/DX   Delta X   Delta X   Delta X     New X
                                 (Linear)    (Quad)   (Total)
    X1       -2.19321   0.00257   0.00000   0.00000   0.00000  -2.19321
    Y1        0.00000  -0.00001   0.00000   0.00000   0.00000   0.00000
    Z1        0.00000   0.00000   0.00000   0.00000   0.00000   0.00000
    X2        2.19321  -0.00257   0.00000   0.00000   0.00000   2.19321
    Y2        0.00000   0.00001   0.00000   0.00000   0.00000   0.00000
    Z2        0.00000  -0.00000   0.00000   0.00000   0.00000   0.00000
    R1        2.03782  -0.00027   0.00098  -0.00250  -0.00152   2.03629
    R2        2.03783  -0.00028   0.00127  -0.00282  -0.00155   2.03629
    R3        2.03782  -0.00027   0.00098  -0.00250  -0.00152   2.03629
    R4        2.03783  -0.00028   0.00127  -0.00282  -0.00155   2.03629
    A1        1.99292  -0.00087  -0.01151  -0.00074  -0.01225   1.98067
    A2        1.99290  -0.00087  -0.01149  -0.00073  -0.01223   1.98067
    A3        2.29737   0.00175   0.02300   0.00147   0.02447   2.32184
    A4        1.99292  -0.00087  -0.01151  -0.00074  -0.01225   1.98067
    A5        1.99290  -0.00087  -0.01149  -0.00073  -0.01223   1.98067
    A6        2.29737   0.00175   0.02300   0.00147   0.02447   2.32184
    D1        3.14159  -0.00000   0.00000  -0.00000   0.00000   3.14159
    D2        0.00000   0.00000   0.00000   0.00000   0.00000   0.00000
    D3       -0.00000  -0.00000   0.00000  -0.00000   0.00000   0.00000
    D4        3.14159  -0.00000   0.00000  -0.00000   0.00000   3.14159
         Item               Value     Threshold  Converged?
 Maximum Force            0.001745     0.000450     NO 
 RMS     Force            0.000821     0.000300     NO 
 Maximum Displacement     0.023436     0.001800     NO 
 RMS     Displacement     0.011169     0.001200     NO 
 Predicted change in Energy=-6.327648D-05
 Lowest energy point so far.  Saving SCF results.
 GradGradGradGradGradGradGradGradGradGradGradGradGradGradGradGradGradGrad

 Leave Link  103 at Tue Dec  3 11:05:06 2024, MaxMem=  2147483648 cpu:               1.6 elap:               0.1
 (Enter /home/szhao/Apps/g16/l202.exe)
                          Input orientation:                          
 ---------------------------------------------------------------------
 Center     Atomic      Atomic             Coordinates (Angstroms)
 Number     Number       Type             X           Y           Z
 ---------------------------------------------------------------------
      1          6           0       -1.160595    0.000000    0.000000
      2          6           0        1.160595    0.000000    0.000000
      3          1           0       -1.589997   -0.988306    0.000000
      4          1           0       -1.589996    0.988303    0.000000
      5          1           0        1.589997    0.988306   -0.000000
      6          1           0        1.589996   -0.988303   -0.000000
 ---------------------------------------------------------------------
                    Distance matrix (angstroms):
                    1          2          3          4          5
     1  C    0.000000
     2  C    2.321190   0.000000
     3  H    1.077560   2.922757   0.000000
     4  H    1.077556   2.922754   1.976609   0.000000
     5  H    2.922757   1.077560   3.744244   3.179994   0.000000
     6  H    2.922754   1.077556   3.179994   3.744238   1.976609
                    6
     6  H    0.000000
 Symmetry turned off by external request.
 Stoichiometry    C2H4
 Framework group  C2H[SGH(C2H4)]
 Deg. of freedom     5
 Full point group                 C2H     NOp   4
 Rotational constants (GHZ):         128.3484659          11.8859495          10.8785235
 Leave Link  202 at Tue Dec  3 11:05:06 2024, MaxMem=  2147483648 cpu:               0.2 elap:               0.0
 (Enter /home/szhao/Apps/g16/l301.exe)
 Standard basis: 6-311+G(d,p) (5D, 7F)
 Ernie: Thresh=  0.10000D-02 Tol=  0.10000D-05 Strict=F.
    68 basis functions,   104 primitive gaussians,    70 cartesian basis functions
     8 alpha electrons        8 beta electrons
       nuclear repulsion energy        25.4895225914 Hartrees.
 IExCor= 4336 DFT=T Ex+Corr=M062X ExCW=0 ScaHFX=  0.540000
 ScaDFX=  1.000000  1.000000  1.000000  1.000000 ScalE2=  1.000000  1.000000
 IRadAn=      7 IRanWt=     -1 IRanGd=            0 ICorTp=0 IEmpDi=  4
 NAtoms=    6 NActive=    6 NUniq=    6 SFac= 1.00D+00 NAtFMM=   60 NAOKFM=F Big=F
 Integral buffers will be    131072 words long.
 Raffenetti 2 integral format.
 Two-electron integral symmetry is turned off.
 Leave Link  301 at Tue Dec  3 11:05:06 2024, MaxMem=  2147483648 cpu:               1.4 elap:               0.1
 (Enter /home/szhao/Apps/g16/l302.exe)
 NPDir=0 NMtPBC=     1 NCelOv=     1 NCel=       1 NClECP=     1 NCelD=      1
         NCelK=      1 NCelE2=     1 NClLst=     1 CellRange=     0.0.
 One-electron integrals computed using PRISM.
 NBasis=    68 RedAO= T EigKep=  2.73D-03  NBF=    68
 NBsUse=    68 1.00D-06 EigRej= -1.00D+00 NBFU=    68
 Precomputing XC quadrature grid using
 IXCGrd= 4 IRadAn=           7 IRanWt=          -1 IRanGd=           0 AccXCQ= 0.00D+00.
 Generated NRdTot=       0 NPtTot=           0 NUsed=           0 NTot=          32
 NSgBfM=    70    70    70    70    70 MxSgAt=     6 MxSgA2=     6.
 Leave Link  302 at Tue Dec  3 11:05:06 2024, MaxMem=  2147483648 cpu:               3.7 elap:               0.2
 (Enter /home/szhao/Apps/g16/l303.exe)
 DipDrv:  MaxL=1.
 Leave Link  303 at Tue Dec  3 11:05:06 2024, MaxMem=  2147483648 cpu:               1.0 elap:               0.0
 (Enter /home/szhao/Apps/g16/l401.exe)
 Initial guess from the checkpoint file:  "opt.chk"
 B after Tr=     0.000000    0.000000    0.000000
         Rot=    1.000000   -0.000000   -0.000000   -0.000002 Ang=  -0.00 deg.
 Guess basis will be translated and rotated to current coordinates.
 JPrj=2 DoOrth=T DoCkMO=T.
 Initial guess <Sx>= 0.0000 <Sy>= 0.0000 <Sz>= 0.0000 <S**2>=-0.0000 S=-0.0000
 Generating alternative initial guess.
 ExpMin= 4.38D-02 ExpMax= 4.56D+03 ExpMxC= 6.82D+02 IAcc=3 IRadAn=         5 AccDes= 0.00D+00
 Harris functional with IExCor= 1009 and IRadAn=       5 diagonalized for initial guess.
 HarFok:  IExCor= 1009 AccDes= 0.00D+00 IRadAn=         5 IDoV= 1 UseB2=F ITyADJ=14
 ICtDFT=  3500011 ScaDFX=  1.000000  1.000000  1.000000  1.000000
 FoFCou: FMM=F IPFlag=           0 FMFlag=      100000 FMFlg1=           0
         NFxFlg=           0 DoJE=T BraDBF=F KetDBF=T FulRan=T
         wScrn=  0.000000 ICntrl=       500 IOpCl=  0 I1Cent=   200000004 NGrid=           0
         NMat0=    1 NMatS0=      1 NMatT0=    0 NMatD0=    1 NMtDS0=    0 NMtDT0=    0
 Symmetry not used in FoFCou.
 Harris En= -78.2825294606768    
 Leave Link  401 at Tue Dec  3 11:05:07 2024, MaxMem=  2147483648 cpu:               5.3 elap:               0.2
 (Enter /home/szhao/Apps/g16/l502.exe)
 Keep R1 and R2 ints in memory in canonical form, NReq=27031774.
 FoFCou: FMM=F IPFlag=           0 FMFlag=           0 FMFlg1=           0
         NFxFlg=           0 DoJE=F BraDBF=F KetDBF=F FulRan=T
         wScrn=  0.000000 ICntrl=       600 IOpCl=  0 I1Cent=           0 NGrid=           0
         NMat0=    1 NMatS0=   2346 NMatT0=    0 NMatD0=    1 NMtDS0=    0 NMtDT0=    0
 Symmetry not used in FoFCou.
 Two-electron integral symmetry not used.
 UHF open shell SCF:
 Using DIIS extrapolation, IDIIS=  1040.
 NGot=  2147483648 LenX=  2141965410 LenY=  2141960069
 Requested convergence on RMS density matrix=1.00D-08 within 128 cycles.
 Requested convergence on MAX density matrix=1.00D-06.
 Requested convergence on             energy=1.00D-06.
 No special actions if energy rises.

 Cycle   1  Pass 1  IDiag  1:
 E= -78.2898590548128    
 DIIS: error= 1.01D-03 at cycle   1 NSaved=   1.
 NSaved= 1 IEnMin= 1 EnMin= -78.2898590548128     IErMin= 1 ErrMin= 1.01D-03
 ErrMax= 1.01D-03  0.00D+00 EMaxC= 1.00D-01 BMatC= 8.77D-05 BMatP= 8.77D-05
 IDIUse=3 WtCom= 9.90D-01 WtEn= 1.01D-02
 Coeff-Com:  0.100D+01
 Coeff-En:   0.100D+01
 Coeff:      0.100D+01
 Gap=     0.446 Goal=   None    Shift=    0.000
 Gap=     0.446 Goal=   None    Shift=    0.000
 GapD=    0.446 DampG=2.000 DampE=1.000 DampFc=2.0000 IDamp=-1.
 RMSDP=5.84D-05 MaxDP=5.49D-04              OVMax= 2.38D-03

 Cycle   2  Pass 1  IDiag  1:
 E= -78.2898867292864     Delta-E=       -0.000027674474 Rises=F Damp=F
 DIIS: error= 1.80D-04 at cycle   2 NSaved=   2.
 NSaved= 2 IEnMin= 2 EnMin= -78.2898867292864     IErMin= 2 ErrMin= 1.80D-04
 ErrMax= 1.80D-04  0.00D+00 EMaxC= 1.00D-01 BMatC= 2.11D-06 BMatP= 8.77D-05
 IDIUse=3 WtCom= 9.98D-01 WtEn= 1.80D-03
 Coeff-Com: -0.652D-01 0.107D+01
 Coeff-En:   0.000D+00 0.100D+01
 Coeff:     -0.651D-01 0.107D+01
 Gap=     0.156 Goal=   None    Shift=    0.000
 Gap=     0.156 Goal=   None    Shift=    0.000
 RMSDP=1.75D-05 MaxDP=1.74D-04 DE=-2.77D-05 OVMax= 7.27D-04

 Cycle   3  Pass 1  IDiag  1:
 E= -78.2898876618412     Delta-E=       -0.000000932555 Rises=F Damp=F
 DIIS: error= 5.11D-05 at cycle   3 NSaved=   3.
 NSaved= 3 IEnMin= 3 EnMin= -78.2898876618412     IErMin= 3 ErrMin= 5.11D-05
 ErrMax= 5.11D-05  0.00D+00 EMaxC= 1.00D-01 BMatC= 2.92D-07 BMatP= 2.11D-06
 IDIUse=1 WtCom= 1.00D+00 WtEn= 0.00D+00
 Coeff-Com: -0.323D-01 0.258D+00 0.774D+00
 Coeff:     -0.323D-01 0.258D+00 0.774D+00
 Gap=     0.156 Goal=   None    Shift=    0.000
 Gap=     0.156 Goal=   None    Shift=    0.000
 RMSDP=4.17D-06 MaxDP=6.74D-05 DE=-9.33D-07 OVMax= 1.27D-04

 Cycle   4  Pass 1  IDiag  1:
 E= -78.2898877516485     Delta-E=       -0.000000089807 Rises=F Damp=F
 DIIS: error= 1.42D-05 at cycle   4 NSaved=   4.
 NSaved= 4 IEnMin= 4 EnMin= -78.2898877516485     IErMin= 4 ErrMin= 1.42D-05
 ErrMax= 1.42D-05  0.00D+00 EMaxC= 1.00D-01 BMatC= 2.34D-08 BMatP= 2.92D-07
 IDIUse=1 WtCom= 1.00D+00 WtEn= 0.00D+00
 Coeff-Com: -0.348D-02-0.956D-02 0.187D+00 0.826D+00
 Coeff:     -0.348D-02-0.956D-02 0.187D+00 0.826D+00
 Gap=     0.156 Goal=   None    Shift=    0.000
 Gap=     0.156 Goal=   None    Shift=    0.000
 RMSDP=1.42D-06 MaxDP=1.83D-05 DE=-8.98D-08 OVMax= 4.61D-05

 Cycle   5  Pass 1  IDiag  1:
 E= -78.2898877595976     Delta-E=       -0.000000007949 Rises=F Damp=F
 DIIS: error= 2.70D-06 at cycle   5 NSaved=   5.
 NSaved= 5 IEnMin= 5 EnMin= -78.2898877595976     IErMin= 5 ErrMin= 2.70D-06
 ErrMax= 2.70D-06  0.00D+00 EMaxC= 1.00D-01 BMatC= 1.11D-09 BMatP= 2.34D-08
 IDIUse=1 WtCom= 1.00D+00 WtEn= 0.00D+00
 Coeff-Com:  0.169D-02-0.233D-01-0.188D-01 0.179D+00 0.861D+00
 Coeff:      0.169D-02-0.233D-01-0.188D-01 0.179D+00 0.861D+00
 Gap=     0.156 Goal=   None    Shift=    0.000
 Gap=     0.156 Goal=   None    Shift=    0.000
 RMSDP=4.61D-07 MaxDP=5.44D-06 DE=-7.95D-09 OVMax= 1.28D-05

 Cycle   6  Pass 1  IDiag  1:
 E= -78.2898877599960     Delta-E=       -0.000000000398 Rises=F Damp=F
 DIIS: error= 1.63D-07 at cycle   6 NSaved=   6.
 NSaved= 6 IEnMin= 6 EnMin= -78.2898877599960     IErMin= 6 ErrMin= 1.63D-07
 ErrMax= 1.63D-07  0.00D+00 EMaxC= 1.00D-01 BMatC= 3.78D-12 BMatP= 1.11D-09
 IDIUse=1 WtCom= 1.00D+00 WtEn= 0.00D+00
 Coeff-Com: -0.188D-03 0.306D-02-0.159D-02-0.286D-01-0.821D-01 0.111D+01
 Coeff:     -0.188D-03 0.306D-02-0.159D-02-0.286D-01-0.821D-01 0.111D+01
 Gap=     0.156 Goal=   None    Shift=    0.000
 Gap=     0.156 Goal=   None    Shift=    0.000
 RMSDP=5.57D-08 MaxDP=7.03D-07 DE=-3.98D-10 OVMax= 1.55D-06

 Cycle   7  Pass 1  IDiag  1:
 E= -78.2898877599988     Delta-E=       -0.000000000003 Rises=F Damp=F
 DIIS: error= 8.31D-08 at cycle   7 NSaved=   7.
 NSaved= 7 IEnMin= 7 EnMin= -78.2898877599988     IErMin= 7 ErrMin= 8.31D-08
 ErrMax= 8.31D-08  0.00D+00 EMaxC= 1.00D-01 BMatC= 4.82D-13 BMatP= 3.78D-12
 IDIUse=1 WtCom= 1.00D+00 WtEn= 0.00D+00
 Coeff-Com: -0.863D-04 0.137D-02-0.537D-03-0.123D-01-0.375D-01 0.416D+00
 Coeff-Com:  0.633D+00
 Coeff:     -0.863D-04 0.137D-02-0.537D-03-0.123D-01-0.375D-01 0.416D+00
 Coeff:      0.633D+00
 Gap=     0.156 Goal=   None    Shift=    0.000
 Gap=     0.156 Goal=   None    Shift=    0.000
 RMSDP=8.75D-09 MaxDP=1.41D-07 DE=-2.76D-12 OVMax= 7.08D-07

 SCF Done:  E(UM062X) =  -78.2898877600     A.U. after    7 cycles
            NFock=  7  Conv=0.87D-08     -V/T= 2.0115
 <Sx>= 0.0000 <Sy>= 0.0000 <Sz>= 0.0000 <S**2>=-0.0000 S=-0.0000
 <L.S>=  0.00000000000    
 KE= 7.740210310402D+01 PE=-2.314864864521D+02 EE= 5.030497299668D+01
 Annihilation of the first spin contaminant:
 S**2 before annihilation    -0.0000,   after    -0.0000
 Leave Link  502 at Tue Dec  3 11:05:09 2024, MaxMem=  2147483648 cpu:              50.4 elap:               2.2
 (Enter /home/szhao/Apps/g16/l701.exe)
 ... and contract with generalized density number  0.
 Compute integral first derivatives.
 Leave Link  701 at Tue Dec  3 11:05:09 2024, MaxMem=  2147483648 cpu:               2.7 elap:               0.1
 (Enter /home/szhao/Apps/g16/l702.exe)
 L702 exits ... SP integral derivatives will be done elsewhere.
 Leave Link  702 at Tue Dec  3 11:05:09 2024, MaxMem=  2147483648 cpu:               0.8 elap:               0.1
 (Enter /home/szhao/Apps/g16/l703.exe)
 Integral derivatives from FoFJK, PRISM(SPDF).
 Compute integral first derivatives, UseDBF=F ICtDFT=           0.
 Calling FoFJK, ICntrl=      2127 FMM=F ISym2X=0 I1Cent= 0 IOpClX= 1 NMat=1 NMatS=1 NMatT=0.
 FoFJK:  IHMeth= 1 ICntrl=    2127 DoSepK=F KAlg= 0 I1Cent=           0 FoldK=F
 IRaf=         0 NMat=       1 IRICut=       1 DoRegI=T DoRafI=F ISym2E= 0 IDoP0=0 IntGTp=1.
 FoFCou: FMM=F IPFlag=           0 FMFlag=      100000 FMFlg1=         800
         NFxFlg=           0 DoJE=F BraDBF=F KetDBF=F FulRan=T
         wScrn=  0.000000 ICntrl=      2127 IOpCl=  1 I1Cent=           0 NGrid=           0
         NMat0=    1 NMatS0=      1 NMatT0=    0 NMatD0=    1 NMtDS0=    0 NMtDT0=    0
 Symmetry not used in FoFCou.
 Leave Link  703 at Tue Dec  3 11:05:10 2024, MaxMem=  2147483648 cpu:              14.0 elap:               0.6
 (Enter /home/szhao/Apps/g16/l716.exe)
 Dipole        =-5.99948527D-06 2.07323048D-12 1.01820044D-10
 -------------------------------------------------------------------
 Center     Atomic                   Forces (Hartrees/Bohr)
 Number     Number              X              Y              Z
 -------------------------------------------------------------------
      1        6          -0.000000000   -0.000000000   -0.000000000
      2        6          -0.000000000   -0.000000000   -0.000000000
      3        1          -0.000000826   -0.000007313    0.000000000
      4        1          -0.000001923    0.000009885    0.000000000
      5        1           0.000000937    0.000007474   -0.000000000
      6        1           0.000002034   -0.000010047   -0.000000000
 -------------------------------------------------------------------
 Cartesian Forces:  Max     0.000010047 RMS     0.000004199
 Leave Link  716 at Tue Dec  3 11:05:10 2024, MaxMem=  2147483648 cpu:               1.1 elap:               0.1
 (Enter /home/szhao/Apps/g16/l103.exe)

 GradGradGradGradGradGradGradGradGradGradGradGradGradGradGradGradGradGrad
 Berny optimization.
 Using GEDIIS/GDIIS optimizer.
 FormGI is forming the generalized inverse of G from B-inverse, IUseBI=4.
 Internal  Forces:  Max     0.000010025 RMS     0.000004209
 Search for a local minimum.
 Step number   3 out of a maximum of   30
 All quantities printed in internal units (Hartrees-Bohrs-Radians)
 RMS Force = .48139D-05 SwitMx=.10000D-02 MixMth= 2
 Mixed Optimization -- En-DIIS/RFO-DIIS
 Swapping is turned off.
 Update second derivatives using D2CorX and points    1    2    3
 DE= -6.47D-05 DEPred=-6.33D-05 R= 1.02D+00
 TightC=F SS=  1.41D+00  RLast= 4.25D-02 DXNew= 5.0454D-01 1.2750D-01
 Trust test= 1.02D+00 RLast= 4.25D-02 DXMaxT set to 3.00D-01
 The second derivative matrix:
                          X1        Y1        Z1        X2        Y2
           X1           0.55339
           Y1          -0.00010   0.50000
           Z1          -0.00000   0.00000   0.50000
           X2          -0.05339   0.00010   0.00000   0.55340
           Y2           0.00010  -0.00000  -0.00000  -0.00010   0.50000
           Z2           0.00000  -0.00000  -0.00000  -0.00000   0.00000
           R1           0.00874   0.00059   0.00000  -0.00874  -0.00059
           R2           0.01046   0.00067  -0.00000  -0.01046  -0.00067
           R3           0.00874   0.00059   0.00000  -0.00874  -0.00059
           R4           0.01046   0.00067  -0.00000  -0.01046  -0.00067
           A1          -0.01790   0.00004   0.00000   0.01791  -0.00004
           A2          -0.01790   0.00004   0.00000   0.01790  -0.00004
           A3           0.03580  -0.00008  -0.00000  -0.03580   0.00008
           A4          -0.01790   0.00004   0.00000   0.01791  -0.00004
           A5          -0.01790   0.00004   0.00000   0.01790  -0.00004
           A6           0.03580  -0.00008  -0.00000  -0.03580   0.00008
           D1          -0.00000   0.00000   0.00000   0.00000  -0.00000
           D2          -0.00000   0.00000   0.00000   0.00000  -0.00000
           D3           0.00000  -0.00000  -0.00000  -0.00000   0.00000
           D4          -0.00000   0.00000   0.00000   0.00000  -0.00000
                          Z2        R1        R2        R3        R4
           Z2           0.50000
           R1          -0.00000   0.36553
           R2          -0.00000   0.00351   0.36669
           R3          -0.00000   0.00304   0.00351   0.36553
           R4          -0.00000   0.00351   0.00405   0.00351   0.36669
           A1          -0.00000  -0.00202  -0.00203  -0.00202  -0.00203
           A2          -0.00000  -0.00202  -0.00204  -0.00202  -0.00204
           A3           0.00000   0.00404   0.00407   0.00403   0.00407
           A4          -0.00000  -0.00202  -0.00203  -0.00201  -0.00203
           A5          -0.00000  -0.00202  -0.00204  -0.00202  -0.00204
           A6           0.00000   0.00404   0.00407   0.00403   0.00407
           D1          -0.00000   0.00000   0.00000   0.00000   0.00000
           D2          -0.00000   0.00000   0.00000   0.00000   0.00000
           D3           0.00000  -0.00000   0.00000  -0.00000   0.00000
           D4          -0.00000   0.00000   0.00000   0.00000   0.00000
                          A1        A2        A3        A4        A5
           A1           0.15267
           A2          -0.00732   0.15270
           A3           0.01464   0.01462   0.13074
           A4          -0.00733  -0.00732   0.01464   0.15267
           A5          -0.00732  -0.00730   0.01462  -0.00732   0.15270
           A6           0.01464   0.01462  -0.02926   0.01464   0.01462
           D1           0.00000   0.00000  -0.00000   0.00000   0.00000
           D2           0.00000   0.00000  -0.00000   0.00000   0.00000
           D3          -0.00000  -0.00000   0.00000  -0.00000  -0.00000
           D4           0.00000   0.00000  -0.00000   0.00000   0.00000
                          A6        D1        D2        D3        D4
           A6           0.13074
           D1          -0.00000   0.00230
           D2          -0.00000   0.00000   0.00230
           D3           0.00000  -0.00000  -0.00000   0.00230
           D4          -0.00000   0.00000   0.00000  -0.00000   0.00230
 ITU=  1  1  0
     Eigenvalues ---    0.00230   0.00230   0.00230   0.07157   0.16000
     Eigenvalues ---    0.16000   0.16000   0.36249   0.36255   0.36265
     Eigenvalues ---    0.377401000.000001000.000001000.000001000.00000
     Eigenvalues --- 1000.000001000.000001000.000001000.000001000.00000
 En-DIIS/RFO-DIIS/Sim-DIIS IScMMF=       -3 using points:     3    2
 RFO step:  Lambda=-8.72843264D-10.
 NNeg= 0 NGDIIS= 2 SimSw=  2.50D-03 Rises=F DC= -6.47D-05 SmlDif=  1.00D-05
 NRisDI= 0 DoIntr=F SqrtH=F CThrHd= 10.0 CDAdj=  3.0
 RMS Error=  0.1687174223D-04 NUsed= 2 OKEnD=T EnDIS=F
 InvSVX:  RCond= 4.51D-04 Info=           0 Equed=N FErr=  8.91D-16 BErr=  3.07D-17
 DidBck=F Rises=F RFO-DIIS coefs:    1.00137   -0.00137
 Iteration  1 RMS(Cart)=  0.00001890 RMS(Int)=  0.00000000
 Iteration  2 RMS(Cart)=  0.00000000 RMS(Int)=  0.00000001
 ITry= 1 IFail=0 DXMaxC= 3.79D-05 DCOld= 1.00D+10 DXMaxT= 3.00D-01 DXLimC= 3.00D+00 Rises=F
 Variable       Old X    -DE/DX   Delta X   Delta X   Delta X     New X
                                 (Linear)    (Quad)   (Total)
    X1       -2.19321  -0.00000   0.00000   0.00000   0.00000  -2.19321
    Y1        0.00000   0.00000   0.00000   0.00000   0.00000   0.00000
    Z1        0.00000   0.00000   0.00000   0.00000   0.00000   0.00000
    X2        2.19321   0.00000   0.00000   0.00000   0.00000   2.19321
    Y2        0.00000  -0.00000   0.00000   0.00000   0.00000   0.00000
    Z2        0.00000  -0.00000   0.00000   0.00000   0.00000   0.00000
    R1        2.03629   0.00001  -0.00000   0.00002   0.00002   2.03631
    R2        2.03629   0.00001  -0.00000   0.00003   0.00003   2.03631
    R3        2.03629   0.00001  -0.00000   0.00002   0.00002   2.03631
    R4        2.03629   0.00001  -0.00000   0.00003   0.00003   2.03631
    A1        1.98067  -0.00000  -0.00002  -0.00000  -0.00002   1.98065
    A2        1.98067  -0.00000  -0.00002  -0.00000  -0.00002   1.98065
    A3        2.32184   0.00000   0.00003   0.00000   0.00004   2.32188
    A4        1.98067  -0.00000  -0.00002  -0.00000  -0.00002   1.98065
    A5        1.98067  -0.00000  -0.00002  -0.00000  -0.00002   1.98065
    A6        2.32184   0.00000   0.00003   0.00000   0.00004   2.32188
    D1        3.14159   0.00000   0.00000   0.00000   0.00000   3.14159
    D2        0.00000   0.00000   0.00000   0.00000   0.00000   0.00000
    D3       -0.00000  -0.00000   0.00000  -0.00000   0.00000   0.00000
    D4        3.14159   0.00000   0.00000   0.00000   0.00000   3.14159
         Item               Value     Threshold  Converged?
 Maximum Force            0.000010     0.000450     YES
 RMS     Force            0.000005     0.000300     YES
 Maximum Displacement     0.000038     0.001800     YES
 RMS     Displacement     0.000019     0.001200     YES
 Predicted change in Energy=-5.326493D-10
 Optimization completed.
    -- Stationary point found.
                           ----------------------------
                           !   Optimized Parameters   !
                           ! (Angstroms and Degrees)  !
 --------------------------                            --------------------------
 ! Name  Definition              Value          Derivative Info.                !
 --------------------------------------------------------------------------------
 ! X1    R(1,-1)                -1.1606         -DE/DX =    0.0                 !
 ! Y1    R(1,-2)                 0.0            -DE/DX =    0.0                 !
 ! Z1    R(1,-3)                 0.0            -DE/DX =    0.0                 !
 ! X2    R(2,-1)                 1.1606         -DE/DX =    0.0                 !
 ! Y2    R(2,-2)                 0.0            -DE/DX =    0.0                 !
 ! Z2    R(2,-3)                 0.0            -DE/DX =    0.0                 !
 ! R1    R(1,3)                  1.0776         -DE/DX =    0.0                 !
 ! R2    R(1,4)                  1.0776         -DE/DX =    0.0                 !
 ! R3    R(2,5)                  1.0776         -DE/DX =    0.0                 !
 ! R4    R(2,6)                  1.0776         -DE/DX =    0.0                 !
 ! A1    A(2,1,3)              113.4841         -DE/DX =    0.0                 !
 ! A2    A(2,1,4)              113.4842         -DE/DX =    0.0                 !
 ! A3    A(3,1,4)              133.0317         -DE/DX =    0.0                 !
 ! A4    A(1,2,5)              113.4841         -DE/DX =    0.0                 !
 ! A5    A(1,2,6)              113.4842         -DE/DX =    0.0                 !
 ! A6    A(5,2,6)              133.0317         -DE/DX =    0.0                 !
 ! D1    D(3,1,2,5)            180.0            -DE/DX =    0.0                 !
 ! D2    D(3,1,2,6)              0.0            -DE/DX =    0.0                 !
 ! D3    D(4,1,2,5)              0.0            -DE/DX =    0.0                 !
 ! D4    D(4,1,2,6)            180.0            -DE/DX =    0.0                 !
 --------------------------------------------------------------------------------
 Lowest energy point so far.  Saving SCF results.
 Largest change from initial coordinates is atom    5       0.024 Angstoms.
 GradGradGradGradGradGradGradGradGradGradGradGradGradGradGradGradGradGrad

 Leave Link  103 at Tue Dec  3 11:05:10 2024, MaxMem=  2147483648 cpu:               3.2 elap:               0.2
 (Enter /home/szhao/Apps/g16/l202.exe)
                          Input orientation:                          
 ---------------------------------------------------------------------
 Center     Atomic      Atomic             Coordinates (Angstroms)
 Number     Number       Type             X           Y           Z
 ---------------------------------------------------------------------
      1          6           0       -1.160595    0.000000    0.000000
      2          6           0        1.160595    0.000000    0.000000
      3          1           0       -1.589997   -0.988306    0.000000
      4          1           0       -1.589996    0.988303    0.000000
      5          1           0        1.589997    0.988306   -0.000000
      6          1           0        1.589996   -0.988303   -0.000000
 ---------------------------------------------------------------------
                    Distance matrix (angstroms):
                    1          2          3          4          5
     1  C    0.000000
     2  C    2.321190   0.000000
     3  H    1.077560   2.922757   0.000000
     4  H    1.077556   2.922754   1.976609   0.000000
     5  H    2.922757   1.077560   3.744244   3.179994   0.000000
     6  H    2.922754   1.077556   3.179994   3.744238   1.976609
                    6
     6  H    0.000000
 Symmetry turned off by external request.
 Stoichiometry    C2H4
 Framework group  C2H[SGH(C2H4)]
 Deg. of freedom     5
 Full point group                 C2H     NOp   4
 Rotational constants (GHZ):         128.3484659          11.8859495          10.8785235
 Leave Link  202 at Tue Dec  3 11:05:10 2024, MaxMem=  2147483648 cpu:               0.2 elap:               0.0
 (Enter /home/szhao/Apps/g16/l601.exe)
 Copying SCF densities to generalized density rwf, IOpCl= 1 IROHF=0.

 **********************************************************************

            Population analysis using the SCF density.

 **********************************************************************

 Alpha  occ. eigenvalues --  -10.62302 -10.62294  -0.76408  -0.72858  -0.53290
 Alpha  occ. eigenvalues --   -0.51601  -0.34119  -0.24611
 Alpha virt. eigenvalues --   -0.09001  -0.02646   0.03370   0.05343   0.06122
 Alpha virt. eigenvalues --    0.07113   0.09348   0.10074   0.11224   0.14786
 Alpha virt. eigenvalues --    0.16319   0.19492   0.21457   0.27511   0.39221
 Alpha virt. eigenvalues --    0.42796   0.43857   0.57405   0.61949   0.64470
 Alpha virt. eigenvalues --    0.64730   0.65052   0.70053   0.74907   0.75908
 Alpha virt. eigenvalues --    0.81872   1.07589   1.08247   1.17513   1.21385
 Alpha virt. eigenvalues --    1.37862   1.38363   1.38466   1.51341   1.51843
 Alpha virt. eigenvalues --    1.70487   1.73110   1.73754   1.78298   1.83546
 Alpha virt. eigenvalues --    1.91048   1.98082   2.03413   2.05434   2.35608
 Alpha virt. eigenvalues --    2.53450   2.53522   2.57133   2.60982   2.62010
 Alpha virt. eigenvalues --    2.68365   2.68857   2.76541   2.76998   2.86412
 Alpha virt. eigenvalues --    3.11092   3.68666   3.71817  23.80856  23.82860
  Beta  occ. eigenvalues --  -10.62302 -10.62294  -0.76408  -0.72858  -0.53290
  Beta  occ. eigenvalues --   -0.51601  -0.34119  -0.24611
  Beta virt. eigenvalues --   -0.09001  -0.02646   0.03370   0.05343   0.06122
  Beta virt. eigenvalues --    0.07113   0.09348   0.10074   0.11224   0.14786
  Beta virt. eigenvalues --    0.16319   0.19492   0.21457   0.27511   0.39221
  Beta virt. eigenvalues --    0.42796   0.43857   0.57405   0.61949   0.64470
  Beta virt. eigenvalues --    0.64730   0.65052   0.70053   0.74907   0.75908
  Beta virt. eigenvalues --    0.81872   1.07589   1.08247   1.17513   1.21385
  Beta virt. eigenvalues --    1.37862   1.38363   1.38466   1.51341   1.51843
  Beta virt. eigenvalues --    1.70487   1.73110   1.73754   1.78298   1.83546
  Beta virt. eigenvalues --    1.91048   1.98082   2.03413   2.05434   2.35608
  Beta virt. eigenvalues --    2.53450   2.53522   2.57133   2.60982   2.62010
  Beta virt. eigenvalues --    2.68365   2.68857   2.76541   2.76998   2.86412
  Beta virt. eigenvalues --    3.11092   3.68666   3.71817  23.80856  23.82860
          Condensed to atoms (all electrons):
               1          2          3          4          5          6
     1  C    5.238534   0.409515   0.380908   0.380908  -0.017343  -0.017343
     2  C    0.409515   5.238537  -0.017343  -0.017343   0.380908   0.380908
     3  H    0.380908  -0.017343   0.468622  -0.021307   0.000564   0.000965
     4  H    0.380908  -0.017343  -0.021307   0.468621   0.000965   0.000564
     5  H   -0.017343   0.380908   0.000564   0.000965   0.468621  -0.021307
     6  H   -0.017343   0.380908   0.000965   0.000564  -0.021307   0.468621
          Atomic-Atomic Spin Densities.
               1          2          3          4          5          6
     1  C    0.000000   0.000000   0.000000   0.000000   0.000000  -0.000000
     2  C    0.000000  -0.000000  -0.000000  -0.000000  -0.000000  -0.000000
     3  H    0.000000  -0.000000   0.000000  -0.000000   0.000000   0.000000
     4  H    0.000000  -0.000000  -0.000000   0.000000  -0.000000   0.000000
     5  H    0.000000  -0.000000   0.000000  -0.000000   0.000000   0.000000
     6  H   -0.000000  -0.000000   0.000000   0.000000   0.000000  -0.000000
 Mulliken charges and spin densities:
               1          2
     1  C   -0.375179   0.000000
     2  C   -0.375182  -0.000000
     3  H    0.187591   0.000000
     4  H    0.187590   0.000000
     5  H    0.187591  -0.000000
     6  H    0.187590  -0.000000
 Sum of Mulliken charges =  -0.00000  -0.00000
 Mulliken charges and spin densities with hydrogens summed into heavy atoms:
               1          2
     1  C    0.000001   0.000000
     2  C   -0.000001  -0.000000
 Electronic spatial extent (au):  <R**2>=            138.4990
 Charge=             -0.0000 electrons
 Dipole moment (field-independent basis, Debye):
    X=             -0.0000    Y=              0.0000    Z=              0.0000  Tot=              0.0000
 Quadrupole moment (field-independent basis, Debye-Ang):
   XX=            -10.6452   YY=            -11.9672   ZZ=            -18.6978
   XY=              0.0000   XZ=             -0.0000   YZ=              0.0000
 Traceless Quadrupole moment (field-independent basis, Debye-Ang):
   XX=              3.1249   YY=              1.8028   ZZ=             -4.9277
   XY=              0.0000   XZ=             -0.0000   YZ=              0.0000
 Octapole moment (field-independent basis, Debye-Ang**2):
  XXX=             -0.0000  YYY=              0.0000  ZZZ=             -0.0000  XYY=             -0.0000
  XXY=              0.0000  XXZ=              0.0000  XZZ=             -0.0000  YZZ=              0.0000
  YYZ=              0.0000  XYZ=             -0.0000
 Hexadecapole moment (field-independent basis, Debye-Ang**3):
 XXXX=           -146.4972 YYYY=            -27.2919 ZZZZ=            -32.1444 XXXY=             -0.0000
 XXXZ=              0.0000 YYYX=             -0.0000 YYYZ=              0.0000 ZZZX=              0.0000
 ZZZY=              0.0000 XXYY=            -21.1654 XXZZ=            -34.2980 YYZZ=            -11.0947
 XXYZ=              0.0000 YYXZ=             -0.0000 ZZXY=             -0.0000
 N-N= 2.548952259142D+01 E-N=-2.314864864950D+02  KE= 7.740210310402D+01
                          Isotropic Fermi Contact Couplings
        Atom                 a.u.       MegaHertz       Gauss      10(-4) cm-1
     1  C(13)              0.00000       0.00000       0.00000       0.00000
     2  C(13)              0.00000       0.00000       0.00000       0.00000
     3  H(1)               0.00000       0.00000       0.00000       0.00000
     4  H(1)              -0.00000      -0.00000      -0.00000      -0.00000
     5  H(1)               0.00000       0.00000       0.00000       0.00000
     6  H(1)              -0.00000      -0.00000      -0.00000      -0.00000
 --------------------------------------------------------
       Center         ----  Spin Dipole Couplings  ----
                      3XX-RR        3YY-RR        3ZZ-RR
 --------------------------------------------------------
     1   Atom        0.000000      0.000000      0.000000
     2   Atom        0.000000      0.000000      0.000000
     3   Atom        0.000000      0.000000      0.000000
     4   Atom        0.000000      0.000000      0.000000
     5   Atom        0.000000      0.000000      0.000000
     6   Atom        0.000000      0.000000      0.000000
 --------------------------------------------------------
                        XY            XZ            YZ
 --------------------------------------------------------
     1   Atom        0.000000      0.000000      0.000000
     2   Atom        0.000000      0.000000      0.000000
     3   Atom        0.000000      0.000000      0.000000
     4   Atom        0.000000      0.000000      0.000000
     5   Atom        0.000000      0.000000      0.000000
     6   Atom        0.000000      0.000000      0.000000
 --------------------------------------------------------


 ---------------------------------------------------------------------------------
              Anisotropic Spin Dipole Couplings in Principal Axis System
 ---------------------------------------------------------------------------------

       Atom             a.u.   MegaHertz   Gauss  10(-4) cm-1        Axes

              Baa     0.0000     0.000     0.000     0.000  1.0000  0.0000  0.0000
     1 C(13)  Bbb     0.0000     0.000     0.000     0.000 -0.0000  1.0000  0.0000
              Bcc     0.0000     0.000     0.000     0.000  0.0000  0.0000  1.0000
 
              Baa     0.0000     0.000     0.000     0.000  1.0000  0.0000  0.0000
     2 C(13)  Bbb     0.0000     0.000     0.000     0.000 -0.0000  1.0000  0.0000
              Bcc     0.0000     0.000     0.000     0.000  0.0000  0.0000  1.0000
 
              Baa     0.0000     0.000     0.000     0.000  1.0000  0.0000  0.0000
     3 H(1)   Bbb     0.0000     0.000     0.000     0.000 -0.0000  1.0000  0.0000
              Bcc     0.0000     0.000     0.000     0.000  0.0000  0.0000  1.0000
 
              Baa     0.0000     0.000     0.000     0.000  1.0000  0.0000  0.0000
     4 H(1)   Bbb     0.0000     0.000     0.000     0.000 -0.0000  1.0000  0.0000
              Bcc     0.0000     0.000     0.000     0.000  0.0000  0.0000  1.0000
 
              Baa     0.0000     0.000     0.000     0.000  1.0000  0.0000  0.0000
     5 H(1)   Bbb     0.0000     0.000     0.000     0.000 -0.0000  1.0000  0.0000
              Bcc     0.0000     0.000     0.000     0.000  0.0000  0.0000  1.0000
 
              Baa     0.0000     0.000     0.000     0.000  1.0000  0.0000  0.0000
     6 H(1)   Bbb     0.0000     0.000     0.000     0.000 -0.0000  1.0000  0.0000
              Bcc     0.0000     0.000     0.000     0.000  0.0000  0.0000  1.0000
 

 ---------------------------------------------------------------------------------

 No NMR shielding tensors so no spin-rotation constants.
 Leave Link  601 at Tue Dec  3 11:05:11 2024, MaxMem=  2147483648 cpu:               3.1 elap:               0.2
 (Enter /home/szhao/Apps/g16/l9999.exe)
 1\1\GINC-NODE02\FOpt\UM062X\6-311+G(d,p)\C2H4\SZHAO\03-Dec-2024\0\\#p 
 opt UM062X/6-311+G** nosymm int=superfine\\Title Card Required\\0,1\C,
 -1.160595,0.,0.\C,1.160595,0.,0.\H,-1.5899974426,-0.9883061081,0.00000
 00006\H,-1.5899962051,0.9883025217,0.0000000011\H,1.5899974422,0.98830
 61087,-0.000000001\H,1.5899962048,-0.9883025223,-0.0000000005\\Version
 =ES64L-G16RevA.03\HF=-78.2898878\S2=0.\S2-1=0.\S2A=0.\RMSD=8.746e-09\R
 MSF=4.199e-06\Dipole=-0.000006,0.,0.\Quadrupole=2.3232974,1.3403522,-3
 .6636496,0.0000052,0.,0.\PG=C02H [SGH(C2H4)]\\@


 IT IS IMPOSSIBLE TO MEDITATE ON TIME AND THE MYSTERY 
 OF NATURE WITHOUT AN OVERWHELMING EMOTION AT THE
 LIMITATIONS OF HUMAN INTELLIGENCE.

                                         -- ALFRED NORTH WHITEHEAD
 Job cpu time:       0 days  0 hours  4 minutes 56.1 seconds.
 Elapsed time:       0 days  0 hours  0 minutes 13.4 seconds.
 File lengths (MBytes):  RWF=     22 Int=      0 D2E=      0 Chk=      2 Scr=      2
 Normal termination of Gaussian 16 at Tue Dec  3 11:05:11 2024.
