Title Card Required                                                     
FOpt      UM062X                                                      6-311+G(d,p)        
Number of atoms                            I                6
Info1-9                                    I   N=           9
          15          15           0           0           0         110
           2          18        -502
Full Title                                 C   N=           2
Title Card Required     
Route                                      C   N=           4
#p opt UM062X/6-311+G** nosymm int=superfine    
Charge                                     I                0
Multiplicity                               I                1
Number of electrons                        I               16
Number of alpha electrons                  I                8
Number of beta electrons                   I                8
Number of basis functions                  I               68
Number of independent functions            I               68
Number of point charges in /Mol/           I                0
Number of translation vectors              I                0
Atomic numbers                             I   N=           6
           6           6           1           1           1           1
Nuclear charges                            R   N=           6
  6.00000000E+00  6.00000000E+00  1.00000000E+00  1.00000000E+00  1.00000000E+00
  1.00000000E+00
Current cartesian coordinates              R   N=          18
 -2.19320669E+00  0.00000000E+00  0.00000000E+00  2.19320669E+00  0.00000000E+00
  0.00000000E+00 -3.00465971E+00 -1.86762787E+00  1.20615027E-09 -3.00465737E+00
  1.86762109E+00  2.16893376E-09  3.00465970E+00  1.86762787E+00 -1.90860217E-09
  3.00465737E+00 -1.86762110E+00 -9.45943639E-10
Number of symbols in /Mol/                 I                0
Force Field                                I                0
Atom Types                                 C   N=           6
                                                            
            
Int Atom Types                             I   N=           6
           0           0           0           0           0           0
MM charges                                 R   N=           6
  0.00000000E+00  0.00000000E+00  0.00000000E+00  0.00000000E+00  0.00000000E+00
  0.00000000E+00
Integer atomic weights                     I   N=           6
          12          12           1           1           1           1
Real atomic weights                        R   N=           6
  1.20000000E+01  1.20000000E+01  1.00782504E+00  1.00782504E+00  1.00782504E+00
  1.00782504E+00
Atom fragment info                         I   N=           6
           0           0           0           0           0           0
Atom residue num                           I   N=           6
           0           0           0           0           0           0
Nuclear spins                              I   N=           6
           0           0           1           1           1           1
Nuclear ZEff                               R   N=           6
 -3.60000000E+00 -3.60000000E+00 -1.00000000E+00 -1.00000000E+00 -1.00000000E+00
 -1.00000000E+00
Nuclear ZNuc                               R   N=           6
  6.00000000E+00  6.00000000E+00  1.00000000E+00  1.00000000E+00  1.00000000E+00
  1.00000000E+00
Nuclear QMom                               R   N=           6
  0.00000000E+00  0.00000000E+00  0.00000000E+00  0.00000000E+00  0.00000000E+00
  0.00000000E+00
Nuclear GFac                               R   N=           6
  0.00000000E+00  0.00000000E+00  2.79284600E+00  2.79284600E+00  2.79284600E+00
  2.79284600E+00
MicOpt                                     I   N=           6
          -2          -2          -1          -1          -1          -1
Number of residues                         I                0
Number of secondary structures             I                0
Redundant internal dimensions              I   N=           4
          20          10           6           4
Redundant internal coordinate indices      I   N=          80
           1          -1           0           0           1          -2
           0           0           1          -3           0           0
           2          -1           0           0           2          -2
           0           0           2          -3           0           0
           1           3           0           0           1           4
           0           0           2           5           0           0
           2           6           0           0           2           1
           3           0           2           1           4           0
           3           1           4           0           1           2
           5           0           1           2           6           0
           5           2           6           0           3           1
           2           5           3           1           2           6
           4           1           2           5           4           1
           2           6
Redundant internal coordinates             R   N=          20
 -2.19320669E+00  0.00000000E+00  0.00000000E+00  2.19320669E+00  0.00000000E+00
  0.00000000E+00  2.03629317E+00  2.03628602E+00  2.03629317E+00  2.03628602E+00
  1.98067187E+00  1.98067214E+00  2.32184130E+00  1.98067187E+00  1.98067214E+00
  2.32184130E+00  3.14159265E+00  0.00000000E+00 -0.00000000E+00  3.14159265E+00
ZRed-IntVec                                I   N=          20
          -1          -1          -1          -1          -1          -1
           0           0           0           0           0           0
           0           0           0           0           0           0
           0           0
ZRed-FPVec                                 R   N=          20
  0.00000000E+00  0.00000000E+00  0.00000000E+00  0.00000000E+00  0.00000000E+00
  0.00000000E+00  0.00000000E+00  0.00000000E+00  0.00000000E+00  0.00000000E+00
  0.00000000E+00  0.00000000E+00  0.00000000E+00  0.00000000E+00  0.00000000E+00
  0.00000000E+00  0.00000000E+00  0.00000000E+00  0.00000000E+00  0.00000000E+00
ZRed-Constraint1                           R   N=          20
 -2.19320669E+00  0.00000000E+00  0.00000000E+00  2.19320669E+00  0.00000000E+00
  0.00000000E+00  2.03694512E+00  2.03669844E+00  2.03694512E+00  2.03669844E+00
  2.00316847E+00  2.00313852E+00  2.27687832E+00  2.00316847E+00  2.00313852E+00
  2.27687832E+00  3.14159265E+00  0.00000000E+00  0.00000000E+00  3.14159265E+00
ZRed-Constraint2                           R   N=          20
 -2.19320669E+00  0.00000000E+00  0.00000000E+00  2.19320669E+00  0.00000000E+00
  0.00000000E+00  0.00000000E+00  0.00000000E+00  0.00000000E+00  0.00000000E+00
  0.00000000E+00  0.00000000E+00  0.00000000E+00  0.00000000E+00  0.00000000E+00
  0.00000000E+00  0.00000000E+00  0.00000000E+00  0.00000000E+00  0.00000000E+00
Number of contracted shells                I               28
Number of primitive shells                 I               50
Pure/Cartesian d shells                    I                0
Pure/Cartesian f shells                    I                0
Highest angular momentum                   I                2
Largest degree of contraction              I                6
Shell types                                I   N=          28
           0          -1          -1          -1          -1          -2
           0          -1          -1          -1          -1          -2
           0           0           0           1           0           0
           0           1           0           0           0           1
           0           0           0           1
Number of primitives per shell             I   N=          28
           6           3           1           1           1           1
           6           3           1           1           1           1
           3           1           1           1           3           1
           1           1           3           1           1           1
           3           1           1           1
Shell to atom map                          I   N=          28
           1           1           1           1           1           1
           2           2           2           2           2           2
           3           3           3           3           4           4
           4           4           5           5           5           5
           6           6           6           6
Primitive exponents                        R   N=          50
  4.56324000E+03  6.82024000E+02  1.54973000E+02  4.44553000E+01  1.30290000E+01
  1.82773000E+00  2.09642000E+01  4.80331000E+00  1.45933000E+00  4.83456000E-01
  1.45585000E-01  4.38000000E-02  6.26000000E-01  4.56324000E+03  6.82024000E+02
  1.54973000E+02  4.44553000E+01  1.30290000E+01  1.82773000E+00  2.09642000E+01
  4.80331000E+00  1.45933000E+00  4.83456000E-01  1.45585000E-01  4.38000000E-02
  6.26000000E-01  3.38650000E+01  5.09479000E+00  1.15879000E+00  3.25840000E-01
  1.02741000E-01  7.50000000E-01  3.38650000E+01  5.09479000E+00  1.15879000E+00
  3.25840000E-01  1.02741000E-01  7.50000000E-01  3.38650000E+01  5.09479000E+00
  1.15879000E+00  3.25840000E-01  1.02741000E-01  7.50000000E-01  3.38650000E+01
  5.09479000E+00  1.15879000E+00  3.25840000E-01  1.02741000E-01  7.50000000E-01
Contraction coefficients                   R   N=          50
  1.96665025E-03  1.52306019E-02  7.61269097E-02  2.60801033E-01  6.16462078E-01
  2.21006028E-01  1.14660081E-01  9.19999648E-01 -3.03068213E-03  1.00000000E+00
  1.00000000E+00  1.00000000E+00  1.00000000E+00  1.96665025E-03  1.52306019E-02
  7.61269097E-02  2.60801033E-01  6.16462078E-01  2.21006028E-01  1.14660081E-01
  9.19999648E-01 -3.03068213E-03  1.00000000E+00  1.00000000E+00  1.00000000E+00
  1.00000000E+00  2.54938145E-02  1.90373109E-01  8.52161486E-01  1.00000000E+00
  1.00000000E+00  1.00000000E+00  2.54938145E-02  1.90373109E-01  8.52161486E-01
  1.00000000E+00  1.00000000E+00  1.00000000E+00  2.54938145E-02  1.90373109E-01
  8.52161486E-01  1.00000000E+00  1.00000000E+00  1.00000000E+00  2.54938145E-02
  1.90373109E-01  8.52161486E-01  1.00000000E+00  1.00000000E+00  1.00000000E+00
P(S=P) Contraction coefficients            R   N=          50
  0.00000000E+00  0.00000000E+00  0.00000000E+00  0.00000000E+00  0.00000000E+00
  0.00000000E+00  4.02486927E-02  2.37593957E-01  8.15853851E-01  1.00000000E+00
  1.00000000E+00  1.00000000E+00  0.00000000E+00  0.00000000E+00  0.00000000E+00
  0.00000000E+00  0.00000000E+00  0.00000000E+00  0.00000000E+00  4.02486927E-02
  2.37593957E-01  8.15853851E-01  1.00000000E+00  1.00000000E+00  1.00000000E+00
  0.00000000E+00  0.00000000E+00  0.00000000E+00  0.00000000E+00  0.00000000E+00
  0.00000000E+00  0.00000000E+00  0.00000000E+00  0.00000000E+00  0.00000000E+00
  0.00000000E+00  0.00000000E+00  0.00000000E+00  0.00000000E+00  0.00000000E+00
  0.00000000E+00  0.00000000E+00  0.00000000E+00  0.00000000E+00  0.00000000E+00
  0.00000000E+00  0.00000000E+00  0.00000000E+00  0.00000000E+00  0.00000000E+00
Coordinates of each shell                  R   N=          84
 -2.19320669E+00  0.00000000E+00  0.00000000E+00 -2.19320669E+00  0.00000000E+00
  0.00000000E+00 -2.19320669E+00  0.00000000E+00  0.00000000E+00 -2.19320669E+00
  0.00000000E+00  0.00000000E+00 -2.19320669E+00  0.00000000E+00  0.00000000E+00
 -2.19320669E+00  0.00000000E+00  0.00000000E+00  2.19320669E+00  0.00000000E+00
  0.00000000E+00  2.19320669E+00  0.00000000E+00  0.00000000E+00  2.19320669E+00
  0.00000000E+00  0.00000000E+00  2.19320669E+00  0.00000000E+00  0.00000000E+00
  2.19320669E+00  0.00000000E+00  0.00000000E+00  2.19320669E+00  0.00000000E+00
  0.00000000E+00 -3.00465971E+00 -1.86762787E+00  1.20615027E-09 -3.00465971E+00
 -1.86762787E+00  1.20615027E-09 -3.00465971E+00 -1.86762787E+00  1.20615027E-09
 -3.00465971E+00 -1.86762787E+00  1.20615027E-09 -3.00465737E+00  1.86762109E+00
  2.16893376E-09 -3.00465737E+00  1.86762109E+00  2.16893376E-09 -3.00465737E+00
  1.86762109E+00  2.16893376E-09 -3.00465737E+00  1.86762109E+00  2.16893376E-09
  3.00465970E+00  1.86762787E+00 -1.90860217E-09  3.00465970E+00  1.86762787E+00
 -1.90860217E-09  3.00465970E+00  1.86762787E+00 -1.90860217E-09  3.00465970E+00
  1.86762787E+00 -1.90860217E-09  3.00465737E+00 -1.86762110E+00 -9.45943639E-10
  3.00465737E+00 -1.86762110E+00 -9.45943639E-10  3.00465737E+00 -1.86762110E+00
 -9.45943639E-10  3.00465737E+00 -1.86762110E+00 -9.45943639E-10
Num ILSW                                   I              100
ILSW                                       I   N=         100
           1           0           0           0           2           0
           0           0           0           0        4336          -1
           7           0           0           0           2           0
           0           0           0           0           1           0
           1           1           0           0           0           0
           0           0      100000           0          -1           0
           0           0           0           0           0           0
           0           0           0           1           0           0
           0 -2000000000           1           0           0           0
           0           0           4          52           0           0
           0           0          55           0           0           0
           0           0           0           6           0           1
           0           0           0           0           0           0
           0           0           0           0           0           0
           0           0           0           0           0           0
           0           0           0           0           0           0
           0           0           0           0
Num RLSW                                   I               52
RLSW                                       R   N=          52
  1.00000000E+00  1.00000000E+00  1.00000000E+00  1.00000000E+00  5.40000000E-01
  0.00000000E+00  0.00000000E+00  1.00000000E+00  0.00000000E+00  0.00000000E+00
  0.00000000E+00  0.00000000E+00  1.00000000E+00  0.00000000E+00  0.00000000E+00
  0.00000000E+00  0.00000000E+00  1.00000000E+00  0.00000000E+00  0.00000000E+00
  0.00000000E+00  0.00000000E+00  1.00000000E+00  0.00000000E+00  0.00000000E+00
  0.00000000E+00  0.00000000E+00  1.00000000E+00  0.00000000E+00  0.00000000E+00
  0.00000000E+00  0.00000000E+00  1.00000000E+00  0.00000000E+00  0.00000000E+00
  0.00000000E+00  0.00000000E+00  0.00000000E+00  1.00000000E+00  1.00000000E+00
  0.00000000E+00  1.00000000E+00  0.00000000E+00  0.00000000E+00  0.00000000E+00
  0.00000000E+00  0.00000000E+00  0.00000000E+00  0.00000000E+00  0.00000000E+00
  0.00000000E+00  0.00000000E+00
MxBond                                     I                3
NBond                                      I   N=           6
           3           3           1           1           1           1
IBond                                      I   N=          18
           2           3           4           1           5           6
           1           0           0           1           0           0
           2           0           0           2           0           0
RBond                                      R   N=          18
  1.00000000E-01  1.00000000E+00  1.00000000E+00  1.00000000E-01  1.00000000E+00
  1.00000000E+00  1.00000000E+00  0.00000000E+00  0.00000000E+00  1.00000000E+00
  0.00000000E+00  0.00000000E+00  1.00000000E+00  0.00000000E+00  0.00000000E+00
  1.00000000E+00  0.00000000E+00  0.00000000E+00
Virial Ratio                               R      2.011469774339123E+00
SCF Energy                                 R     -7.828988775999881E+01
Total Energy                               R     -7.828988775999881E+01
S**2                                       R     -4.973799150320701E-14
S**2 after annihilation                    R     -5.861977570020697E-14
RMS Force                                  R      4.199107275382403E-06
RMS Density                                R      8.745928271679483E-09
Job Status                                 I                1
Nuclear derivative order                   I                1
External E-field                           R   N=          35
  0.00000000E+00  0.00000000E+00  0.00000000E+00  0.00000000E+00  0.00000000E+00
  0.00000000E+00  0.00000000E+00  0.00000000E+00  0.00000000E+00  0.00000000E+00
  0.00000000E+00  0.00000000E+00  0.00000000E+00  0.00000000E+00  0.00000000E+00
  0.00000000E+00  0.00000000E+00  0.00000000E+00  0.00000000E+00  0.00000000E+00
  0.00000000E+00  0.00000000E+00  0.00000000E+00  0.00000000E+00  0.00000000E+00
  0.00000000E+00  0.00000000E+00  0.00000000E+00  0.00000000E+00  0.00000000E+00
  0.00000000E+00  0.00000000E+00  0.00000000E+00  0.00000000E+00  0.00000000E+00
IOpCl                                      I                1
IROHF                                      I                0
Alpha Orbital Energies                     R   N=          68
 -1.06230242E+01 -1.06229393E+01 -7.64084923E-01 -7.28583488E-01 -5.32896399E-01
 -5.16006786E-01 -3.41185907E-01 -2.46105081E-01 -9.00092879E-02 -2.64615388E-02
  3.36958116E-02  5.34259699E-02  6.12201125E-02  7.11300975E-02  9.34813223E-02
  1.00738138E-01  1.12238339E-01  1.47863404E-01  1.63185197E-01  1.94916790E-01
  2.14568854E-01  2.75108959E-01  3.92212998E-01  4.27955338E-01  4.38565206E-01
  5.74052770E-01  6.19491757E-01  6.44699684E-01  6.47301773E-01  6.50519415E-01
  7.00525409E-01  7.49071451E-01  7.59078424E-01  8.18720801E-01  1.07588753E+00
  1.08246508E+00  1.17513392E+00  1.21385474E+00  1.37862441E+00  1.38363347E+00
  1.38466098E+00  1.51341455E+00  1.51842610E+00  1.70487500E+00  1.73110200E+00
  1.73754246E+00  1.78298005E+00  1.83546251E+00  1.91047965E+00  1.98082068E+00
  2.03412511E+00  2.05434495E+00  2.35607833E+00  2.53449531E+00  2.53522214E+00
  2.57133012E+00  2.60982183E+00  2.62010125E+00  2.68365425E+00  2.68856994E+00
  2.76541107E+00  2.76997806E+00  2.86411942E+00  3.11092003E+00  3.68665995E+00
  3.71817344E+00  2.38085566E+01  2.38285987E+01
Beta Orbital Energies                      R   N=          68
 -1.06230242E+01 -1.06229393E+01 -7.64084923E-01 -7.28583488E-01 -5.32896399E-01
 -5.16006786E-01 -3.41185907E-01 -2.46105081E-01 -9.00092879E-02 -2.64615388E-02
  3.36958116E-02  5.34259699E-02  6.12201125E-02  7.11300975E-02  9.34813223E-02
  1.00738138E-01  1.12238339E-01  1.47863404E-01  1.63185197E-01  1.94916790E-01
  2.14568854E-01  2.75108959E-01  3.92212998E-01  4.27955338E-01  4.38565206E-01
  5.74052770E-01  6.19491757E-01  6.44699684E-01  6.47301773E-01  6.50519415E-01
  7.00525409E-01  7.49071451E-01  7.59078424E-01  8.18720801E-01  1.07588753E+00
  1.08246508E+00  1.17513392E+00  1.21385474E+00  1.37862441E+00  1.38363347E+00
  1.38466098E+00  1.51341455E+00  1.51842610E+00  1.70487500E+00  1.73110200E+00
  1.73754246E+00  1.78298005E+00  1.83546251E+00  1.91047965E+00  1.98082068E+00
  2.03412511E+00  2.05434495E+00  2.35607833E+00  2.53449531E+00  2.53522214E+00
  2.57133012E+00  2.60982183E+00  2.62010125E+00  2.68365425E+00  2.68856994E+00
  2.76541107E+00  2.76997806E+00  2.86411942E+00  3.11092003E+00  3.68665995E+00
  3.71817344E+00  2.38085566E+01  2.38285987E+01
Alpha MO coefficients                      R   N=        4624
  3.98004708E-01  3.27326137E-01  3.98280245E-04 -3.03798313E-09  1.00512217E-12
  8.00174902E-03 -1.39026313E-03  4.22443092E-08  2.45047097E-12 -1.83561747E-03
  1.22603272E-04  3.13084205E-10  2.06100264E-13 -5.74566940E-04  2.83869034E-04
 -1.37670660E-08 -1.02533886E-12 -9.37343034E-04 -6.35926795E-13  7.72422966E-13
 -1.07767550E-03 -1.35684155E-08  3.99919619E-01  3.28900952E-01 -4.00423244E-04
  3.05204643E-09 -1.11314744E-12  8.04120866E-03  1.39791153E-03 -4.24416426E-08
 -1.97541637E-12 -1.84912366E-03 -1.21467965E-04 -2.92130500E-10 -2.42588546E-13
 -5.73450196E-04 -2.87333049E-04  1.37958434E-08  9.54461420E-13 -9.41392488E-04
 -4.81585693E-13 -7.75705882E-13 -1.08357958E-03 -1.36329536E-08  9.88878573E-05
 -2.40024062E-03  1.50938705E-03 -6.87887025E-04 -1.36167402E-03  1.15490522E-12
  9.88789576E-05 -2.40030895E-03  1.50943397E-03 -6.87899661E-04  1.36170231E-03
  1.80824185E-12  9.92022984E-05 -2.41129059E-03  1.51747582E-03  6.90956341E-04
  1.36825902E-03 -1.60104928E-12  9.91933486E-05 -2.41135920E-03  1.51752294E-03
  6.90969033E-04 -1.36828744E-03 -9.44798620E-13  3.99931323E-01  3.28902073E-01
  4.47462908E-04 -2.93706088E-09  9.89249411E-13  8.24098443E-03 -1.59693805E-03
  4.12152860E-08  2.61894048E-12 -2.81851096E-03 -2.36256650E-04 -4.36387745E-09
 -2.91102801E-13  2.31313970E-04  7.22441710E-04 -6.02801247E-09 -6.11992301E-13
 -8.46006441E-04 -6.92285028E-13  7.44546846E-13 -1.23275541E-03 -1.34793507E-08
 -3.98016469E-01 -3.27327263E-01  4.45546155E-04 -2.92244859E-09  1.08923269E-12
 -8.20248337E-03 -1.59024686E-03  4.10120671E-08  2.12699266E-12  2.80966815E-03
 -2.36842342E-04 -4.36536223E-09 -2.34319994E-13 -2.34069029E-04  7.21070889E-04
 -5.96189237E-09 -4.56139381E-13  8.41497649E-04  5.33236362E-13  7.41227609E-13
  1.22756867E-03  1.34140733E-08  6.57451182E-05 -2.30811695E-03  1.68898175E-03
 -6.41170577E-04 -1.37530404E-03  1.19180402E-12  6.57346713E-05 -2.30817634E-03
  1.68902303E-03 -6.41182299E-04  1.37533173E-03  1.84998176E-12 -6.52697735E-05
  2.29656994E-03 -1.68171773E-03 -6.37861538E-04 -1.36875259E-03  1.62325616E-12
 -6.52593695E-05  2.29662900E-03 -1.68175879E-03 -6.37873199E-04  1.36878015E-03
  9.69143071E-13 -7.77072017E-02 -1.25206535E-01 -1.81099716E-02  4.66831583E-07
  5.52452075E-11  3.38483286E-01 -2.40244791E-02  4.71961220E-07  8.93036573E-11
  2.34767567E-01 -5.85607660E-03  1.50534689E-07  2.80043527E-11  3.35076041E-03
 -2.98829661E-03  2.39436797E-08  7.35906952E-12 -7.90190043E-03  2.44358159E-12
  4.66137858E-12 -4.61037561E-03 -3.73324780E-08 -7.77076520E-02 -1.25207262E-01
  1.81102097E-02 -4.66835186E-07 -4.69282826E-11  3.38485305E-01  2.40248306E-02
 -4.71965104E-07 -7.81913267E-11  2.34768885E-01  5.85624391E-03 -1.50535988E-07
 -2.33958615E-11  3.35066308E-03  2.98835018E-03 -2.39437055E-08 -6.87632399E-12
 -7.90194013E-03  4.08592376E-12 -4.68446900E-12 -4.61042959E-03 -3.73327719E-08
  7.57456557E-02  8.74366955E-02  5.76080767E-03  3.61508565E-03  1.13186021E-02
 -4.26501942E-12  7.57464670E-02  8.74374871E-02  5.76080796E-03  3.61514059E-03
 -1.13187041E-02 -9.97984523E-12  7.57461372E-02  8.74372634E-02  5.76085698E-03
 -3.61510167E-03 -1.13186741E-02  8.83568248E-12  7.57469485E-02  8.74380549E-02
  5.76085727E-03 -3.61515661E-03  1.13187761E-02  3.04219071E-12 -7.62114025E-02
 -1.23080526E-01 -4.13984040E-02  5.99856425E-07  7.08213295E-11  3.36110096E-01
 -6.08942663E-02  6.47954618E-07  1.10981647E-10  2.29127931E-01 -2.91849885E-02
  2.31032348E-07  3.90070854E-11 -1.65458707E-02 -9.34256353E-03  4.58182049E-09
  2.59766865E-12 -7.32238957E-03 -1.92419627E-12  5.44653749E-12 -9.30721027E-03
 -4.70497170E-08  7.62109552E-02  1.23079805E-01 -4.13983228E-02  5.99854137E-07
  6.13097083E-11 -3.36108182E-01 -6.08941646E-02  6.47952380E-07  9.82827122E-11
 -2.29126533E-01 -2.91849828E-02  2.31031666E-07  3.34310277E-11  1.65458942E-02
 -9.34254577E-03  4.58172846E-09  2.17183614E-12  7.32234059E-03 -1.60596549E-13
  5.42863577E-12  9.30718539E-03  4.70495541E-08  8.34383893E-02  9.93386074E-02
  1.08905383E-02  2.66388329E-03  1.21057883E-02 -3.70508377E-12  8.34393824E-02
  9.93395996E-02  1.08906086E-02  2.66394256E-03 -1.21059081E-02 -1.00721446E-11
 -8.34379512E-02 -9.93380993E-02 -1.08904937E-02  2.66386185E-03  1.21057253E-02
 -8.79316048E-12 -8.34389443E-02 -9.93390915E-02 -1.08905639E-02  2.66392113E-03
 -1.21058451E-02 -2.50788759E-12  2.08980154E-07  3.51364054E-07  4.15488113E-08
  1.50417555E-01  3.56266451E-11 -1.03721251E-06  1.68795211E-07  2.06326657E-01
  4.78513634E-11 -1.32043212E-06  1.31580300E-07  1.13919044E-01  2.55471396E-11
  5.52109139E-08  9.22287390E-08  3.20116271E-03  4.02228967E-13  1.52936019E-08
 -3.86739516E-12  3.52513346E-11  1.80559709E-08 -1.24056967E-02 -2.08981971E-07
 -3.51367149E-07  4.15464104E-08  1.50419306E-01 -3.56134221E-11  1.03722195E-06
  1.68792822E-07  2.06329041E-01 -4.78215857E-11  1.32044584E-06  1.31579048E-07
  1.13920370E-01 -2.55464366E-11 -5.52097521E-08  9.22289630E-08  3.20125893E-03
 -3.96957375E-13 -1.52936694E-08 -3.89376890E-12 -3.09625812E-11 -1.80558589E-08
  1.24058868E-02 -1.07779861E-01 -1.51648569E-01 -4.51497695E-02 -7.24550640E-03
 -1.08619920E-02  1.42911092E-11  1.07779524E-01  1.51647787E-01  4.51495695E-02
  7.24551557E-03 -1.08619143E-02 -2.04753550E-11  1.07781116E-01  1.51650358E-01
  4.51502727E-02 -7.24558854E-03 -1.08621216E-02  1.79785959E-11 -1.07780779E-01
 -1.51649576E-01 -4.51500727E-02  7.24559771E-03 -1.08620438E-02 -1.17612287E-11
  1.57538569E-07  2.68455296E-07 -2.33528510E-07  1.53223921E-01  4.16494412E-11
 -8.07777765E-07 -2.46969001E-07  2.08492501E-01  5.71432133E-11 -1.20492994E-06
 -1.46256654E-07  1.18313863E-01  3.29452680E-11 -1.07616095E-07  1.75520101E-08
  8.96082489E-03  5.31038460E-13  7.41201709E-09 -3.38710288E-12  3.67971133E-11
 -1.01908345E-08 -1.65249080E-02  1.57536432E-07  2.68451692E-07  2.33529006E-07
 -1.53222248E-01  4.16393087E-11 -8.07767173E-07  2.46970886E-07 -2.08490205E-01
  5.71514617E-11 -1.20491608E-06  1.46258126E-07 -1.18312546E-01  3.29141621E-11
 -1.07616459E-07 -1.75510872E-08 -8.96077996E-03  5.56787688E-13  7.41184648E-09
  3.38090701E-12  3.24528421E-11 -1.01910204E-08 -1.65247737E-02 -1.11429044E-01
 -1.59395305E-01 -4.72376624E-02 -7.27083887E-03 -1.11838691E-02  1.47898274E-11
  1.11428995E-01  1.59394914E-01  4.72375590E-02  7.27083498E-03 -1.11838332E-02
 -2.04140857E-11 -1.11427827E-01 -1.59393595E-01 -4.72371370E-02  7.27075741E-03
  1.11837508E-02 -1.78071499E-11  1.11427778E-01  1.59393204E-01  4.72370337E-02
 -7.27075353E-03  1.11837149E-02  1.22142509E-11 -1.52730920E-02 -2.51130030E-02
  1.67931812E-01  6.87312610E-08 -1.54013841E-10  6.71240691E-02  2.55556007E-01
  2.09969276E-07 -2.01841120E-10  1.34128311E-01  2.30828868E-01  1.38812650E-07
 -2.06192965E-10  1.31568374E-02  2.87407862E-02  4.98777148E-08 -4.44495765E-11
  2.46366389E-03  3.52707916E-11 -3.26473505E-12  8.87872434E-03 -4.58068924E-13
 -1.52731206E-02 -2.51130498E-02 -1.67931923E-01 -6.87310994E-08  1.29549453E-10
  6.71242098E-02 -2.55556166E-01 -2.09969139E-07  1.65059212E-10  1.34128480E-01
 -2.30829030E-01 -1.38812520E-07  1.75078918E-10  1.31568777E-02 -2.87408089E-02
 -4.98776994E-08  4.07051905E-11  2.46367029E-03  3.30913996E-11  3.23533344E-12
  8.87871611E-03 -4.39539775E-13 -4.89111972E-02 -7.92582775E-02 -4.40264428E-02
  9.12781381E-03 -7.49431010E-03 -6.94563281E-12 -4.89110162E-02 -7.92578275E-02
 -4.40260661E-02  9.12785413E-03  7.49432632E-03 -2.86344816E-12 -4.89112008E-02
 -7.92582911E-02 -4.40264447E-02 -9.12781932E-03  7.49431383E-03  2.27045856E-12
 -4.89110198E-02 -7.92578411E-02 -4.40260680E-02 -9.12785964E-03 -7.49433005E-03
  6.25233466E-12  6.84169713E-11  1.14326290E-10 -3.31018556E-11 -4.90390371E-11
  1.73065638E-01 -3.38976344E-10 -1.43162489E-11 -7.45352315E-11  2.67706523E-01
 -4.99297686E-10 -3.38131496E-11 -6.73055762E-11  3.05543136E-01  7.51546279E-11
  4.78367437E-11 -1.87456906E-11  7.11934461E-02  1.62752981E-11  1.70812950E-03
  2.08230895E-08  4.46662739E-12  2.69694360E-12 -6.36863038E-11 -1.06429509E-10
 -6.26124011E-11  4.89888830E-11  1.73065847E-01  3.15551930E-10 -6.04016136E-11
  7.47948531E-11  2.67706847E-01  4.61509904E-10 -8.17921122E-11  6.67583009E-11
  3.05543439E-01 -7.61053971E-11  3.29730478E-11  1.80128114E-11  7.11935070E-02
 -1.47328235E-11 -1.70811546E-03 -2.08231250E-08 -5.08096029E-12  2.74469599E-12
  7.87576422E-11  1.33973106E-10  6.14967541E-11  4.81375427E-12  1.38245552E-11
  1.52082640E-02  6.86458120E-11  1.03959325E-10  3.31999919E-11  5.03707346E-12
 -1.97030965E-11  1.52083203E-02 -6.41077294E-11 -9.74080015E-11 -3.17586646E-11
  1.81216685E-12  1.91171437E-11  1.52082798E-02 -7.42888110E-11 -1.26539700E-10
 -6.32035150E-11  1.57643923E-12 -1.31347017E-11  1.52083360E-02  3.87844576E-11
  6.51641367E-11  1.49334596E-10 -4.13912421E-11  1.85821576E-01 -1.85414186E-10
  2.65290821E-10 -6.61596343E-11  2.84388351E-01 -3.91320648E-10  2.78716306E-10
 -7.83771374E-11  3.44535997E-01 -3.83182966E-11  1.75192084E-10 -4.26470857E-11
  1.99264412E-01  2.48011307E-11 -1.49663388E-02  1.94081080E-08 -5.81543432E-12
 -1.59219823E-13  2.60620344E-11  4.39684167E-11 -1.60188110E-10 -4.14982311E-11
 -1.85821465E-01 -1.24338265E-10 -2.77705902E-10 -6.56778789E-11 -2.84388192E-01
 -2.72552778E-10 -2.92418867E-10 -8.11053599E-11 -3.44535689E-01 -1.56133852E-10
 -1.27400808E-10 -4.71567385E-11 -1.99264198E-01  2.45130183E-11 -1.49663550E-02
  1.94081045E-08 -6.19585759E-12  2.03357813E-13  5.03023277E-11  1.08063483E-10
  3.72277768E-11  1.82990298E-11  7.89107139E-12  1.87514481E-02  6.29187051E-11
  1.26105690E-10  5.60571234E-11  1.69238481E-11 -1.85620774E-11  1.87515087E-02
  4.68235911E-11  9.20591007E-11  5.35679626E-11 -1.68737627E-11 -1.56295904E-11
 -1.87514346E-02  3.41137500E-11  7.47388812E-11  2.45680538E-11 -1.82361729E-11
  5.08419030E-12 -1.87514953E-02 -4.43891984E-02 -7.39885964E-02  1.63681845E-01
 -1.74837541E-07  7.12991296E-11  2.14969495E-01  2.35387509E-01 -6.61793158E-08
  1.55833473E-10  4.43557156E-01  3.44992871E-01 -4.73990059E-07  1.87770821E-10
  8.20068286E-01  6.81886801E-01 -5.42300038E-08  7.05882238E-11  9.41856063E-03
  3.06501066E-11  1.02852537E-12 -1.84126084E-02 -1.71874109E-08  4.43892067E-02
  7.39886113E-02  1.63681798E-01 -1.74837650E-07  5.28962023E-11 -2.14969599E-01
  2.35387434E-01 -6.61793929E-08  1.24483900E-10 -4.43557161E-01  3.44992704E-01