Title Card Required                                                     
Force     UM062X                                                      6-311+G(d,p)        
Number of atoms                            I                4
Info1-9                                    I   N=           9
          13          13           0           0           0         100
           5          18        -502
Full Title                                 C   N=           2
Title Card Required     
Route                                      C   N=           5
#p UM062X/6-311+G** force int=superfine pop=saveNBO         
Charge                                     I                0
Multiplicity                               I                1
Number of electrons                        I               26
Number of alpha electrons                  I               13
Number of beta electrons                   I               13
Number of basis functions                  I               64
Number of independent functions            I               64
Number of point charges in /Mol/           I                0
Number of translation vectors              I                0
Atomic numbers                             I   N=           4
           8          16           1           1
Nuclear charges                            R   N=           4
  8.00000000E+00  1.60000000E+01  1.00000000E+00  1.00000000E+00
Current cartesian coordinates              R   N=          12
 -7.75845862E-21  1.85631990E-20  2.71299657E+00 -8.67809460E-21  4.56781632E-21
 -1.39151314E+00  9.11836624E-20 -1.18218231E-19  4.54896763E+00  1.08251213E-19
 -9.65961553E-20 -3.98872996E+00
Number of symbols in /Mol/                 I                0
Force Field                                I                0
Atom Types                                 C   N=           4
                                                
Int Atom Types                             I   N=           4
           0           0           0           0
MM charges                                 R   N=           4
  0.00000000E+00  0.00000000E+00  0.00000000E+00  0.00000000E+00
Integer atomic weights                     I   N=           4
          16          32           1           1
Real atomic weights                        R   N=           4
  1.59949146E+01  3.19720718E+01  1.00782504E+00  1.00782504E+00
Atom fragment info                         I   N=           4
           0           0           0           0
Atom residue num                           I   N=           4
           0           0           0           0
Nuclear spins                              I   N=           4
           0           0           1           1
Nuclear ZEff                               R   N=           4
 -5.60000000E+00 -1.36000000E+01 -1.00000000E+00 -1.00000000E+00
Nuclear ZNuc                               R   N=           4
  8.00000000E+00  1.60000000E+01  1.00000000E+00  1.00000000E+00
Nuclear QMom                               R   N=           4
  0.00000000E+00  0.00000000E+00  0.00000000E+00  0.00000000E+00
Nuclear GFac                               R   N=           4
  0.00000000E+00  0.00000000E+00  2.79284600E+00  2.79284600E+00
MicOpt                                     I   N=           4
          -1          -1          -1          -1
Number of residues                         I                0
Number of secondary structures             I                0
SymInf integers                            I   N=          26
           1           4           1           1           1          -1
          -1           1          -1           1           1           1
          -1           1           0           0           0           0
           0           0           0           0           0           0
           0           0
RotTr to input orientation                 R   N=          12
  4.74435716E-07  2.84232720E-06  1.00000000E+00  2.84232720E-06  1.00000000E+00
 -2.84232855E-06 -1.00000000E+00  2.84232855E-06  4.74427637E-07  6.60741715E-01
 -1.35707048E-04 -5.78546921E-07
Number of contracted shells                I               27
Number of primitive shells                 I               49
Pure/Cartesian d shells                    I                0
Pure/Cartesian f shells                    I                0
Highest angular momentum                   I                2
Largest degree of contraction              I                6
Shell types                                I   N=          27
           0          -1          -1          -1          -1          -2
           0           0           0           0           0           0
          -1           1           1           1           1           1
          -2           0           0           0           1           0
           0           0           1
Number of primitives per shell             I   N=          27
           6           3           1           1           1           1
           6           3           1           1           1           1
           1           4           2           1           1           1
           1           3           1           1           1           3
           1           1           1
Shell to atom map                          I   N=          27
           1           1           1           1           1           1
           2           2           2           2           2           2
           2           2           2           2           2           2
           2           3           3           3           3           4
           4           4           4
Primitive exponents                        R   N=          49
  8.58850000E+03  1.29723000E+03  2.99296000E+02  8.73771000E+01  2.56789000E+01
  3.74004000E+00  4.21175000E+01  9.62837000E+00  2.85332000E+00  9.05661000E-01
  2.55611000E-01  8.45000000E-02  1.29200000E+00  9.34134000E+04  1.39617000E+04
  3.16991000E+03  9.02456000E+02  2.97158000E+02  1.08702000E+02  1.08702000E+02
  4.31553000E+01  1.81079000E+01  5.56009000E+00  2.13183000E+00  4.20403000E-01
  1.36045000E-01  4.05000000E-02  4.95040000E+02  1.17221000E+02  3.77749000E+01
  1.40584000E+01  5.56574000E+00  2.26297000E+00  8.07994000E-01  2.77460000E-01
  7.71410000E-02  6.50000000E-01  3.38650000E+01  5.09479000E+00  1.15879000E+00
  3.25840000E-01  1.02741000E-01  7.50000000E-01  3.38650000E+01  5.09479000E+00
  1.15879000E+00  3.25840000E-01  1.02741000E-01  7.50000000E-01
Contraction coefficients                   R   N=          49
  1.89515008E-03  1.43859006E-02  7.07320031E-02  2.40001011E-01  5.94797026E-01
  2.80802012E-01  1.13889012E-01  9.20811101E-01 -3.27447036E-03  1.00000000E+00
  1.00000000E+00  1.00000000E+00  1.00000000E+00  7.42999957E-04  5.79299966E-03
  2.99539983E-02  1.19027993E-01  3.68431979E-01  5.77298966E-01  1.43186060E-01
  6.24465262E-01  2.83366119E-01  1.00000000E+00  1.00000000E+00  1.00000000E+00
  1.00000000E+00  1.00000000E+00  8.30900251E-03  6.40240194E-02  2.77614084E-01
  7.45076225E-01  6.13711672E-01  4.43817763E-01  1.00000000E+00  1.00000000E+00
  1.00000000E+00  1.00000000E+00  2.54938145E-02  1.90373109E-01  8.52161486E-01
  1.00000000E+00  1.00000000E+00  1.00000000E+00  2.54938145E-02  1.90373109E-01
  8.52161486E-01  1.00000000E+00  1.00000000E+00  1.00000000E+00
P(S=P) Contraction coefficients            R   N=          49
  0.00000000E+00  0.00000000E+00  0.00000000E+00  0.00000000E+00  0.00000000E+00
  0.00000000E+00  3.65113974E-02  2.37152983E-01  8.19701941E-01  1.00000000E+00
  1.00000000E+00  1.00000000E+00  0.00000000E+00  0.00000000E+00  0.00000000E+00
  0.00000000E+00  0.00000000E+00  0.00000000E+00  0.00000000E+00  0.00000000E+00
  0.00000000E+00  0.00000000E+00  0.00000000E+00  0.00000000E+00  0.00000000E+00
  0.00000000E+00  1.00000000E+00  0.00000000E+00  0.00000000E+00  0.00000000E+00
  0.00000000E+00  0.00000000E+00  0.00000000E+00  0.00000000E+00  0.00000000E+00
  0.00000000E+00  0.00000000E+00  0.00000000E+00  0.00000000E+00  0.00000000E+00
  0.00000000E+00  0.00000000E+00  0.00000000E+00  0.00000000E+00  0.00000000E+00
  0.00000000E+00  0.00000000E+00  0.00000000E+00  0.00000000E+00
Coordinates of each shell                  R   N=          81
 -7.80858498E-21  6.77626358E-21  2.71299657E+00 -7.80858498E-21  6.77626358E-21
  2.71299657E+00 -7.80858498E-21  6.77626358E-21  2.71299657E+00 -7.80858498E-21
  6.77626358E-21  2.71299657E+00 -7.80858498E-21  6.77626358E-21  2.71299657E+00
 -7.80858498E-21  6.77626358E-21  2.71299657E+00 -8.57620859E-21  6.77626358E-21
 -1.39151314E+00 -8.57620859E-21  6.77626358E-21 -1.39151314E+00 -8.57620859E-21
  6.77626358E-21 -1.39151314E+00 -8.57620859E-21  6.77626358E-21 -1.39151314E+00
 -8.57620859E-21  6.77626358E-21 -1.39151314E+00 -8.57620859E-21  6.77626358E-21
 -1.39151314E+00 -8.57620859E-21  6.77626358E-21 -1.39151314E+00 -8.57620859E-21
  6.77626358E-21 -1.39151314E+00 -8.57620859E-21  6.77626358E-21 -1.39151314E+00
 -8.57620859E-21  6.77626358E-21 -1.39151314E+00 -8.57620859E-21  6.77626358E-21
 -1.39151314E+00 -8.57620859E-21  6.77626358E-21 -1.39151314E+00 -8.57620859E-21
  6.77626358E-21 -1.39151314E+00  9.09501627E-20 -1.08420217E-19  4.54896763E+00
  9.09501627E-20 -1.08420217E-19  4.54896763E+00  9.09501627E-20 -1.08420217E-19
  4.54896763E+00  9.09501627E-20 -1.08420217E-19  4.54896763E+00  1.08420217E-19
 -1.08420217E-19 -3.98872996E+00  1.08420217E-19 -1.08420217E-19 -3.98872996E+00
  1.08420217E-19 -1.08420217E-19 -3.98872996E+00  1.08420217E-19 -1.08420217E-19
 -3.98872996E+00
Num ILSW                                   I              100
ILSW                                       I   N=         100
           1           0           0           0           2           0
           0           0           0           0        4336          -1
           7           0           0           0           2           0
           0           0           0           0           1           0
           1           0           0           0           0           0
           0           0      100000           0          -1           0
           0           0           0           0           0           0
           0           0           0           1           0           0
           0 -2000000000           1           0           0           0
           0           0           4          52           0           0
           0           0          55           0           0           0
           0           0           0           4           0           1
           0           0           0           0           0           0
           0           0           0           0           0           0
           0           0           0           0           0           0
           0           0           0           0           0           0
           0           0           0           0
Num RLSW                                   I               52
RLSW                                       R   N=          52
  1.00000000E+00  1.00000000E+00  1.00000000E+00  1.00000000E+00  5.40000000E-01
  0.00000000E+00  0.00000000E+00  1.00000000E+00  0.00000000E+00  0.00000000E+00
  0.00000000E+00  0.00000000E+00  1.00000000E+00  0.00000000E+00  0.00000000E+00
  0.00000000E+00  0.00000000E+00  1.00000000E+00  0.00000000E+00  0.00000000E+00
  0.00000000E+00  0.00000000E+00  1.00000000E+00  0.00000000E+00  0.00000000E+00
  0.00000000E+00  0.00000000E+00  1.00000000E+00  0.00000000E+00  0.00000000E+00
  0.00000000E+00  0.00000000E+00  1.00000000E+00  0.00000000E+00  0.00000000E+00
  0.00000000E+00  0.00000000E+00  0.00000000E+00  1.00000000E+00  1.00000000E+00
  0.00000000E+00  1.00000000E+00  0.00000000E+00  0.00000000E+00  0.00000000E+00
  0.00000000E+00  0.00000000E+00  0.00000000E+00  0.00000000E+00  0.00000000E+00
  0.00000000E+00  0.00000000E+00
MxBond                                     I                1
NBond                                      I   N=           4
           1           1           1           1
IBond                                      I   N=           4
           3           4           1           2
RBond                                      R   N=           4
  1.00000000E+00  1.00000000E+00  1.00000000E+00  1.00000000E+00
Virial Ratio                               R      2.001378367150992E+00
SCF Energy                                 R     -4.743846607638444E+02
Total Energy                               R     -4.743846607638444E+02
S**2                                       R     -3.552713678800501E-15
S**2 after annihilation                    R     -4.014566457044630E-13
RMS Force                                  R      4.520327761616934E-06
RMS Density                                R      2.850097076166101E-09
Job Status                                 I                1
Nuclear derivative order                   I                1
External E-field                           R   N=          35
  0.00000000E+00  0.00000000E+00  0.00000000E+00  0.00000000E+00  0.00000000E+00
  0.00000000E+00  0.00000000E+00  0.00000000E+00  0.00000000E+00  0.00000000E+00
  0.00000000E+00  0.00000000E+00  0.00000000E+00  0.00000000E+00  0.00000000E+00
  0.00000000E+00  0.00000000E+00  0.00000000E+00  0.00000000E+00  0.00000000E+00
  0.00000000E+00  0.00000000E+00  0.00000000E+00  0.00000000E+00  0.00000000E+00
  0.00000000E+00  0.00000000E+00  0.00000000E+00  0.00000000E+00  0.00000000E+00
  0.00000000E+00  0.00000000E+00  0.00000000E+00  0.00000000E+00  0.00000000E+00
IOpCl                                      I                1
IROHF                                      I                0
Alpha Orbital Energies                     R   N=          64
 -8.89701214E+01 -1.94613685E+01 -9.13690520E+00 -6.25227398E+00 -6.24622242E+00
 -6.24210112E+00 -9.61090567E-01 -8.70063185E-01 -7.98681731E-01 -5.94350742E-01
 -3.84559426E-01 -3.59677932E-01 -3.40630846E-01 -1.86324634E-01  2.32288636E-01
  5.50644487E-01  3.19210816E-01  4.04836014E-01  4.19283081E-01  4.42073324E-01
  4.52109588E-01  4.56541717E-01  4.56916544E-01  4.60905930E-01  5.70456837E-01
  6.17720900E-01  7.30154932E-01  7.42046372E-01  7.79657238E-01  7.93566057E-01
  7.96361691E-01  8.32678764E-01  8.64124910E-01  8.80769082E-01  9.44990582E-01
  1.04132845E+00  1.08323962E+00  1.29323754E+00  1.36279083E+00  1.36997409E+00
  1.38343005E+00  1.44271986E+00  1.44948152E+00  1.54304382E+00  1.54713037E+00
  1.66690631E+00  1.80929340E+00  1.99430389E+00  2.10067158E+00  2.36685794E+00
  2.61640540E+00  1.00000000E+03  1.00000000E+03  1.00000000E+03  1.00000000E+03
  1.00000000E+03  1.00000000E+03  1.00000000E+03  1.00000000E+03  1.00000000E+03
  1.00000000E+03  1.00000000E+03  1.00000000E+03  1.00000000E+03
Beta Orbital Energies                      R   N=          64
 -8.89701214E+01 -1.94613685E+01 -9.13690520E+00 -6.25227398E+00 -6.24622242E+00
 -6.24210112E+00 -9.61090567E-01 -8.70063185E-01 -7.98681731E-01 -5.94350742E-01
 -3.84559426E-01 -3.59677932E-01 -3.40630845E-01 -1.86324634E-01  2.32288636E-01
  5.50644487E-01  3.19210816E-01  4.04836014E-01  4.19283081E-01  4.42073324E-01
  4.52109588E-01  4.56541717E-01  4.56916544E-01  4.60905930E-01  5.70456837E-01
  6.17720900E-01  7.30154932E-01  7.42046372E-01  7.79657238E-01  7.93566057E-01
  7.96361691E-01  8.32678764E-01  8.64124910E-01  8.80769082E-01  9.44990582E-01
  1.04132845E+00  1.08323962E+00  1.29323754E+00  1.36279083E+00  1.36997409E+00
  1.38343005E+00  1.44271986E+00  1.44948152E+00  1.54304382E+00  1.54713037E+00
  1.66690631E+00  1.80929340E+00  1.99430389E+00  2.10067158E+00  2.36685794E+00
  2.61640540E+00  1.00000000E+03  1.00000000E+03  1.00000000E+03  1.00000000E+03
  1.00000000E+03  1.00000000E+03  1.00000000E+03  1.00000000E+03  1.00000000E+03
  1.00000000E+03  1.00000000E+03  1.00000000E+03  1.00000000E+03
Alpha MO coefficients                      R   N=        4096
 -1.23098972E-05 -2.07666316E-05  3.64898705E-19  3.90205578E-18  4.47114837E-07
  6.14974811E-05  1.20819107E-18  5.86748099E-18  1.49484905E-06  6.57978414E-05
  5.27738618E-20  5.49306161E-18  1.14001066E-06 -1.32458019E-05  2.15663475E-19
  1.15247308E-18  1.44794911E-05  1.47844442E-07 -1.60749697E-19  2.58442154E-19
  1.97534147E-12  5.64665561E-22  4.21504883E-01  6.85804798E-01 -4.17595502E-02
 -7.03552882E-02 -3.67735865E-03  3.27477985E-04 -1.26104346E-04 -5.11495226E-18
  1.97271803E-18  1.06715672E-06  2.69931418E-18  1.12747714E-18  1.24222463E-06
  7.66236340E-18  1.68489778E-18  2.13779344E-06 -1.59287556E-17 -2.14995215E-18
 -3.03190707E-06 -1.46199123E-17 -7.04922475E-18 -7.00670013E-06  6.95434129E-18
 -7.57573029E-18  1.92740541E-06 -3.71886343E-07  4.17973371E-18  1.99820642E-19
 -7.07557262E-09  3.20642454E-22 -4.12130319E-06 -3.48199081E-05 -5.02689684E-06
  6.75035009E-20 -3.56004275E-20  5.22059446E-07  1.54758995E-06  6.66921067E-06
 -4.91893256E-06  3.76916324E-19  2.37472241E-20  2.80961912E-07  5.62290769E-01
  4.87514066E-01  1.48073927E-17 -1.77029516E-17  1.67968692E-03 -5.01098875E-02
  2.09012399E-17 -2.62865704E-17  2.50970055E-03 -5.01928193E-02  1.77375504E-17
 -2.61474904E-17  3.32620777E-03 -4.36081050E-04  2.51710599E-18 -7.28618895E-18
  1.51996776E-03  8.95704220E-05  7.95686575E-19 -7.64301574E-19  4.95236767E-07
  2.47910662E-20  6.18134568E-05  1.54967483E-04 -3.30252995E-04 -7.97701265E-04
  1.86292052E-03  1.24745769E-03  5.83103427E-04  1.35338718E-17  1.89950106E-18
  3.81912123E-04  2.50453789E-16  2.10162931E-17 -6.72594734E-05  4.69141708E-16
  3.93583508E-17 -1.81364884E-04 -5.01178429E-17 -9.95696123E-18  5.84402238E-04
 -1.72957216E-16 -2.75245270E-17  8.71167448E-04 -9.16657907E-17 -1.28247887E-17
  1.76311858E-03  2.63315455E-05  6.44937243E-18 -5.86430674E-19 -1.38994565E-10
  1.32056117E-20 -1.15190856E-03 -1.33664649E-02  2.70582556E-03  1.73949576E-20
  1.35660869E-20  2.02325548E-04  2.11812791E-04 -3.83688731E-04  1.24072902E-03
  5.87107467E-19 -8.07620014E-20  3.50331095E-05 -4.65576371E-04 -1.15198639E-03
 -1.42436945E-19 -1.64856380E-17  5.00712609E-04  4.31662073E-03  2.94308388E-18
 -2.39292978E-17  3.49216918E-04  1.65055394E-03  4.18032510E-18 -2.08124941E-17
  9.36135944E-04  3.91195394E-03  2.67563854E-18 -1.31714707E-18 -4.85238827E-03
 -5.66075724E-05 -1.93857201E-19 -1.88771875E-18 -1.29867873E-10 -2.42910988E-19
 -7.82423841E-02 -2.58298601E-01  5.40039305E-01  6.48725653E-01 -6.72666845E-02
 -8.40712341E-02  2.66731159E-04  3.89069065E-18  2.94288710E-18  7.27842519E-04
 -1.60943044E-16  1.56535151E-17  4.35710174E-04 -3.00389190E-16  2.96025496E-17
  7.37978712E-04 -3.65172689E-17 -1.97487895E-17 -1.38692949E-03 -2.45983021E-17
 -4.49813146E-17 -4.03957597E-03 -1.86780887E-17 -2.16072527E-17 -5.89418017E-03
  1.49963198E-04  1.44807179E-18 -9.99605795E-19  4.65185260E-07 -1.15339197E-19
 -3.93081022E-04 -1.85413849E-03  3.55849319E-03 -1.81407249E-19  4.54596331E-19
 -2.04001546E-04 -9.78899913E-04 -1.14935281E-02  3.54806056E-05  1.47356557E-19
 -1.74923806E-19 -1.36677624E-04 -1.68909904E-17 -5.67484241E-18 -3.39340658E-18
 -2.93221495E-04  2.34289693E-18 -5.64744519E-17 -4.23377096E-18 -4.10071457E-04
 -2.93231206E-18 -5.79610189E-17 -2.25053043E-18 -5.77109170E-04  2.26157733E-17
 -1.63480367E-17  2.02414364E-18 -3.12537179E-04  2.27219885E-17 -4.65056375E-19
 -9.02297637E-19  4.29546613E-07  4.62248098E-19  3.35170571E-20  4.33134225E-18
  1.27682943E-17 -2.67372283E-17 -4.58268272E-17  7.88917080E-17  3.92027380E-17
 -5.77544205E-18 -1.14256810E-18 -1.58456286E-03 -6.19330238E-18  3.42655409E-18
  3.80748926E-01  2.86086144E-17  7.64011367E-18  7.11402875E-01  5.70156562E-17
 -1.09275111E-17  4.99197683E-02 -4.73676066E-17 -1.54953381E-17 -1.43965857E-02
 -6.43582654E-17 -3.24609829E-18  6.54063555E-04  2.82042191E-17  1.60446291E-17
  2.34864911E-18 -1.10049373E-06 -1.08152427E-18 -1.03799571E-21 -5.47854737E-18
 -6.89002016E-18 -9.84298059E-18  1.51888062E-19 -5.90035224E-07  3.43784307E-18
  4.45034115E-17  9.45233378E-17  4.92522439E-17  1.99557171E-19 -3.36233974E-06
  9.99263994E-18  2.54783492E-04  2.81807236E-04 -3.30067541E-17 -1.51460993E-17
  2.58056646E-03 -5.48460100E-04 -4.89445356E-17 -2.25721928E-17  3.75273514E-03
 -1.64763048E-03 -4.84180787E-17 -2.31017342E-17  4.49094314E-03  7.62938491E-05
 -1.42056438E-17 -6.85376162E-18  1.80269747E-03 -1.93539642E-06 -9.99641964E-19
 -5.22781702E-19  2.11796288E-10 -3.33672488E-21 -1.55418432E-04 -3.51678368E-04
  7.16828658E-04  2.03882276E-03 -5.31216402E-03 -3.55988183E-03  1.85198143E-04
 -6.60997257E-18  2.04864228E-18 -3.25558051E-03 -9.15871445E-17 -1.14082086E-17
  3.79841138E-01 -1.72030506E-16 -2.12176170E-17  7.09945144E-01  3.35103078E-17
 -1.17230200E-17  5.28418448E-02  9.14056871E-17 -2.20385253E-17 -6.19629711E-03
  4.74072936E-17 -1.18528047E-17  7.56372163E-03 -1.11185647E-05 -3.78026740E-18
 -4.03245240E-19 -7.58651358E-07  1.62811874E-21 -3.52790047E-04 -3.69100252E-03
  4.21222072E-04  6.85799128E-20  7.35205125E-20  4.32330677E-06  1.31660884E-03
  2.26525139E-02  4.33638530E-03 -3.47247978E-19 -4.45394174E-20  1.61664711E-05
 -3.34530185E-16 -3.01067989E-16 -2.93116186E-04 -5.14325988E-17 -4.88407115E-17
  8.52484742E-17 -4.09885238E-04 -7.71358661E-17 -7.58956355E-17  3.04754156E-17
 -5.76986524E-04 -7.35050458E-17 -1.88443791E-17  5.91963010E-17 -3.12491304E-04
 -1.66988768E-17  6.49350134E-18 -4.18602561E-18  4.30604049E-07 -3.07447011E-18
 -1.34123565E-18 -1.19588784E-20 -4.50066713E-17 -1.41332447E-16  2.96906013E-16
  4.17397979E-16 -3.42933685E-16 -2.65338083E-16 -4.58755586E-17 -1.58423330E-03
  2.66838489E-18 -2.43517665E-17  3.80749505E-01  1.08972655E-17  1.01752294E-16
  7.11403988E-01  2.18700917E-17  2.01201026E-16  4.99180210E-02 -3.48532555E-17
 -1.01133936E-16 -1.43999778E-02 -7.53759596E-17 -1.20096896E-16  6.51986796E-04
 -2.84940638E-17  1.60531767E-17  4.23055454E-17 -8.23107373E-07 -2.41030306E-18
  1.31890715E-17 -2.26877193E-20 -7.29902556E-18  4.47769823E-17 -2.67654117E-17
 -5.87035123E-07  3.80754914E-19  7.22383423E-18  2.42250247E-17 -1.94688022E-17
  4.39568940E-17 -3.33623252E-06 -2.80140227E-19  4.20493292E-18 -6.77197699E-02
 -1.54217071E-01 -3.10974785E-17  2.30750709E-18 -1.32990011E-01  5.78511952E-01
 -9.55878908E-18  1.45434390E-18 -1.77135857E-01  5.16152265E-01 -3.89311356E-17
 -6.94516623E-18 -2.00749618E-01  5.11592820E-02 -4.23668370E-18  8.25656317E-19
 -2.58862354E-02 -1.61963114E-03 -3.93326588E-19 -1.75983613E-18 -3.87908657E-03
 -8.04057869E-19 -2.23870809E-03 -5.16009923E-03  1.00996551E-02  2.70454383E-02
 -5.42767543E-02 -1.08089631E-02 -7.61364790E-03 -4.19275182E-18 -6.04194341E-19
  9.47788957E-03 -2.80901066E-17  3.78491591E-17  1.44891056E-02 -5.15628281E-17
  7.60266355E-17  2.54380721E-02  8.09874780E-18  6.76484270E-18 -4.12195084E-02
  2.70207461E-17 -4.37190073E-18 -1.05331893E-01  2.50376817E-17  3.51519417E-19
 -9.63949161E-02 -9.16834630E-04 -1.68660868E-18 -3.55535288E-20  1.08871550E-06
 -7.73723677E-19 -2.94754384E-03 -1.20734652E-01 -2.44301173E-02  3.41275518E-19
  1.71775449E-18 -1.92039526E-03 -6.39194387E-03 -5.24025508E-02 -2.97949106E-02
 -9.19907629E-19 -1.60712614E-19 -8.21237644E-04  4.56722497E-03  1.18483046E-02
  1.21555913E-16 -4.90010462E-18  4.27105750E-02 -4.10100437E-02  1.45873782E-16
  2.12285074E-17  7.06873971E-02  7.60516918E-04  1.24247626E-16 -1.90102753E-18
  5.58059925E-02 -3.21658304E-02  3.83140536E-17  4.59690738E-18  6.18204824E-02
  2.18812917E-04  4.30842274E-18  6.33253072E-19  4.23636926E-06  3.18650642E-18
  2.57738730E-02  6.61896821E-02 -1.38727990E-01 -3.14901104E-01  7.41561758E-01
  5.24164124E-01  2.20252668E-02  4.38971224E-18  3.48282099E-18 -2.66224590E-03
  2.11960359E-16 -1.35972506E-17 -2.67714324E-02  3.83992854E-16 -3.93158316E-17
 -5.43137161E-02 -4.69684739E-17 -1.77707658E-17  8.92414342E-02 -1.54742923E-16
 -3.43866394E-17  1.39529497E-01 -6.08519489E-17 -1.71303317E-17  7.80749250E-02
 -2.51424329E-02  4.80206284E-18  1.39211105E-18 -1.51746225E-02  1.46363612E-18
 -9.82310036E-03 -4.31010404E-02 -2.11395424E-02  3.14590487E-18  7.02959757E-19
 -6.57459033E-05  4.65976133E-03 -1.23036686E-01 -4.04612746E-02  9.23060602E-19
 -1.33342712E-18  7.40138360E-03 -2.30149418E-02 -5.56462809E-02  2.10653656E-17
 -1.63720832E-17  2.17940205E-01  2.21064922E-01  8.79825159E-18 -6.21591566E-17
  3.16462966E-01  8.76735428E-02  8.14167289E-17 -2.56393405E-17  2.20978088E-01
 -5.63010938E-02  9.30945081E-18  2.66287029E-17 -3.07183679E-02  1.94099371E-02
  2.53732964E-18 -3.93385520E-18 -1.72147416E-03 -1.39210144E-17  1.85679612E-03
  1.47952574E-03 -1.98321413E-04 -2.71170016E-02  7.18167798E-02 -5.95009100E-02
 -7.36655379E-03  2.87396609E-17 -1.81669962E-18  6.42803513E-03  1.04009950E-17
  1.59173183E-17 -1.15980015E-03  1.75629580E-17  4.42431659E-17 -7.91022711E-03
 -7.39912939E-18 -4.68053173E-18  2.23346699E-02 -4.18525961E-17 -3.96871153E-17
 -5.11304149E-03 -8.30990291E-17 -1.47211507E-17 -4.50011516E-02 -3.52965225E-03
  3.02289648E-18 -8.51792727E-19  4.83153846E-07 -2.48154518E-18  1.88975928E-01
  2.48483905E-01  9.90431496E-02 -4.52536239E-18 -1.20909683E-18 -3.53935881E-02
  5.01181519E-03  1.42229143E-04 -2.21395538E-02 -2.81995677E-19 -1.18850613E-18
 -2.72603238E-03  2.73907445E-03  1.49982163E-02  3.06528234E-17 -5.76391999E-17
  1.65344697E-02 -5.86008701E-02 -2.39319675E-17  1.40379756E-17  4.45207262E-02
  5.69679922E-03  2.01156580E-17 -2.92013656E-17 -3.05409273E-02  4.71945233E-02
 -4.98836819E-18  2.17807748E-17 -5.52889781E-02 -1.14034187E-03  6.54458192E-18
 -8.05923036E-18 -2.12357170E-07 -5.19038128E-18 -3.05887405E-03 -9.05276125E-03
  1.90877763E-02  3.86063043E-02 -1.10051254E-01 -8.21789250E-04  3.08330119E-02
  1.16938154E-17  3.40963167E-17  1.61585301E-02  1.58812293E-17  1.15843023E-16
 -6.62618457E-02  2.10992659E-17  1.54706075E-16 -1.36693700E-01  7.71875692E-19
  1.21762773E-17  2.27910478E-01  5.27908823E-18  5.53578242E-17  3.32527972E-01
 -6.49032794E-18 -4.62521967E-17 -3.70060973E-02 -6.71090653E-02  1.30136777E-18
  5.62582978E-18  7.60660768E-04  3.45341214E-18 -1.36102882E-02  2.78909315E-02
  2.30338817E-02  2.23755087E-19  1.73891682E-19 -6.12664684E-03 -1.70383671E-01
 -3.78044338E-01 -1.86193472E-01 -2.92417412E-18  5.31319193E-19 -3.63722978E-02
 -1.77917999E-17 -1.05599495E-17  3.02279718E-01 -3.40833825E-17 -5.64191648E-17
 -2.08174704E-17  4.41265555E-01 -3.72222164E-17 -8.05248572E-17  5.48867985E-17
  4.22584286E-01 -8.58782802E-17 -8.38932157E-17  1.79726842E-17  1.01052923E-01
 -1.41332306E-16 -2.90479823E-17 -8.21332336E-19  1.65466389E-02  3.32816771E-18
  3.02660310E-19  2.28115675E-18 -9.46031313E-18 -2.18615902E-17  4.27546992E-17
  1.07683119E-16 -2.59988120E-16 -1.51899713E-16  4.46584644E-18 -4.35646584E-03
 -2.32494693E-17  1.48663006E-17  4.60503946E-03 -2.57518742E-17  5.65914092E-17
  9.41638714E-03 -4.31073065E-17  9.69379141E-17 -1.67111242E-02  7.92329909E-17
 -2.98540173E-17 -3.00071551E-02  1.58237130E-16 -9.39885228E-17  1.70102629E-03
  1.24896592E-16 -7.15135201E-17 -4.80969766E-18  1.37219387E-05 -4.67296483E-18
  2.50018768E-18 -1.34468613E-18  3.10482999E-17  3.27142145E-17 -1.83853756E-17
 -2.01261706E-03 -1.27458279E-17  2.13504202E-18 -1.94986276E-17  1.97543028E-17
 -3.07227259E-18  8.06427415E-05  9.07445227E-19 -4.76986457E-18  3.73623866E-17
  2.26217419E-17  1.13350528E-17  2.26298049E-01  5.07706731E-17  5.64150187E-17
  3.75403647E-17  3.38346359E-01  7.39593995E-17  5.55962398E-17 -1.55667378E-17
  3.35357206E-01  7.73888912E-17 -1.26754383E-18 -6.32686784E-17  8.91140892E-02
  3.05932806E-17  9.58078472E-19 -2.50995733E-18  1.00579703E-02  1.64388864E-18
  2.39490933E-18 -6.59594510E-18 -2.16980851E-17  4.11394634E-17  4.40015405E-17
  2.48344131E-17  2.44530437E-17  7.31945357E-19 -4.97295169E-17 -2.44456727E-02
 -1.00805869E-18  7.89332500E-17 -5.42996122E-02  2.34403293E-17  1.67144870E-16
 -1.05006743E-01  4.72528221E-17 -1.08750513E-17  1.54595230E-01  8.40804179E-18
 -1.31263385E-17  3.47791820E-01  4.13210722E-19  1.20441896E-16  1.64599280E-01
  1.43424516E-18 -2.91248673E-18  5.45485373E-18  7.82356261E-03  4.36552243E-19
 -3.41147795E-18 -1.19406295E-17 -1.40512517E-16  2.05619564E-17 -4.17297937E-18
 -1.36562176E-03 -3.08602657E-18  1.16425893E-17 -1.59547730E-17 -2.18761813E-17
 -8.32546101E-19  9.22962866E-04 -3.47905276E-18  1.52545427E-16  1.38071761E-16
 -1.84487791E-02 -1.10642180E-17  3.76110779E-17 -2.69709185E-17 -3.11476657E-02
 -6.09396006E-17  5.37081369E-17 -3.68800449E-17 -2.18813043E-02 -3.03834439E-17
  4.16164524E-17 -1.83462685E-17 -5.54491104E-03 -5.36486574E-18 -9.93015483E-18
  1.94617296E-18 -1.20827779E-04 -4.48308457E-18 -1.18476024E-17 -3.04464754E-18
  1.15733514E-17  1.63670744E-17 -1.54206001E-18 -4.51749048E-17  1.76910335E-16
  7.84032913E-17  5.32870462E-18 -5.07412504E-02 -1.86155458E-17 -9.01332403E-19
 -9.99923373E-02  1.05291475E-17 -6.17519765E-17 -1.92726243E-01  3.58634542E-17
 -1.15094988E-16  2.97179409E-01 -7.10971318E-17  1.76469507E-17  6.05814631E-01
  7.01812708E-17  5.00415562E-17  3.33801526E-01  8.17993426E-17  2.49348358E-17
 -3.14405844E-18 -2.61656836E-02  1.28323671E-17 -7.29268740E-18  5.03023362E-18
  9.83827102E-18  1.73450282E-17  1.67562099E-17 -2.81797044E-04  1.79300356E-17
 -1.96498347E-18  6.06521585E-18  3.15333529E-19 -8.87622223E-18 -2.36319047E-03
  2.43512405E-18  1.69974646E-18 -1.22261126E-17  4.09552321E-17 -1.17892851E-16
 -1.85746101E-01 -1.02882488E-16 -3.41677509E-16 -1.16031611E-16 -2.78951470E-01
  3.39467985E-16  2.25736070E-15 -2.08741483E-16 -2.69265190E-01  1.93037022E-16
  7.60103649E-16 -5.35526427E-18 -6.54950094E-02  9.05590609E-15  1.96068107E-16
 -5.35909989E-17 -7.23419207E-03 -2.23708160E-18  8.97646713E-18 -2.11705018E-17
  7.87658268E-17 -2.63126865E-16  4.85088843E-16 -1.21647045E-15  3.54502056E-15
  1.48588602E-15 -2.21395123E-17 -3.08835372E-02 -1.02243772E-15  4.37208658E-18