Title Card Required                                                     
FOpt      UM062X                                                      6-311+G(d,p)        
Number of atoms                            I                6
Info1-9                                    I   N=           9
          15          15           0           0           0         110
           2          18        -502
Full Title                                 C   N=           2
Title Card Required     
Route                                      C   N=           4
#p opt UM062X/6-311+G** nosymm int=superfine    
Charge                                     I                1
Multiplicity                               I                2
Number of electrons                        I               15
Number of alpha electrons                  I                8
Number of beta electrons                   I                7
Number of basis functions                  I               68
Number of independent functions            I               68
Number of point charges in /Mol/           I                0
Number of translation vectors              I                0
Atomic numbers                             I   N=           6
           6           6           1           1           1           1
Nuclear charges                            R   N=           6
  6.00000000E+00  6.00000000E+00  1.00000000E+00  1.00000000E+00  1.00000000E+00
  1.00000000E+00
Current cartesian coordinates              R   N=          18
 -1.72322364E+00  0.00000000E+00  0.00000000E+00  1.72322364E+00  0.00000000E+00
  0.00000000E+00 -2.64740600E+00 -1.82965654E+00  2.67445772E-08 -2.64746399E+00
  1.82953615E+00  1.24759522E-08  2.64740578E+00  1.82965638E+00 -2.27609476E-08
  2.64746377E+00 -1.82953599E+00 -3.70288197E-08
Number of symbols in /Mol/                 I                0
Force Field                                I                0
Atom Types                                 C   N=           6
                                                            
            
Int Atom Types                             I   N=           6
           0           0           0           0           0           0
MM charges                                 R   N=           6
  0.00000000E+00  0.00000000E+00  0.00000000E+00  0.00000000E+00  0.00000000E+00
  0.00000000E+00
Integer atomic weights                     I   N=           6
          12          12           1           1           1           1
Real atomic weights                        R   N=           6
  1.20000000E+01  1.20000000E+01  1.00782504E+00  1.00782504E+00  1.00782504E+00
  1.00782504E+00
Atom fragment info                         I   N=           6
           0           0           0           0           0           0
Atom residue num                           I   N=           6
           0           0           0           0           0           0
Nuclear spins                              I   N=           6
           0           0           1           1           1           1
Nuclear ZEff                               R   N=           6
 -3.60000000E+00 -3.60000000E+00 -1.00000000E+00 -1.00000000E+00 -1.00000000E+00
 -1.00000000E+00
Nuclear ZNuc                               R   N=           6
  6.00000000E+00  6.00000000E+00  1.00000000E+00  1.00000000E+00  1.00000000E+00
  1.00000000E+00
Nuclear QMom                               R   N=           6
  0.00000000E+00  0.00000000E+00  0.00000000E+00  0.00000000E+00  0.00000000E+00
  0.00000000E+00
Nuclear GFac                               R   N=           6
  0.00000000E+00  0.00000000E+00  2.79284600E+00  2.79284600E+00  2.79284600E+00
  2.79284600E+00
MicOpt                                     I   N=           6
          -2          -2          -1          -1          -1          -1
Number of residues                         I                0
Number of secondary structures             I                0
Redundant internal dimensions              I   N=           4
          20          10           6           4
Redundant internal coordinate indices      I   N=          80
           1          -1           0           0           1          -2
           0           0           1          -3           0           0
           2          -1           0           0           2          -2
           0           0           2          -3           0           0
           1           3           0           0           1           4
           0           0           2           5           0           0
           2           6           0           0           2           1
           3           0           2           1           4           0
           3           1           4           0           1           2
           5           0           1           2           6           0
           5           2           6           0           3           1
           2           5           3           1           2           6
           4           1           2           5           4           1
           2           6
Redundant internal coordinates             R   N=          20
 -1.72322364E+00  0.00000000E+00  0.00000000E+00  1.72322364E+00  0.00000000E+00
  0.00000000E+00  2.04981855E+00  2.04973723E+00  2.04981831E+00  2.04973699E+00
  2.03852555E+00  2.03857729E+00  2.20608247E+00  2.03852549E+00  2.03857723E+00
  2.20608259E+00  3.14159265E+00  3.65002415E-08 -0.00000000E+00 -3.14159264E+00
ZRed-IntVec                                I   N=          20
          -1          -1          -1          -1          -1          -1
           0           0           0           0           0           0
           0           0           0           0           0           0
           0           0
ZRed-FPVec                                 R   N=          20
  0.00000000E+00  0.00000000E+00  0.00000000E+00  0.00000000E+00  0.00000000E+00
  0.00000000E+00  0.00000000E+00  0.00000000E+00  0.00000000E+00  0.00000000E+00
  0.00000000E+00  0.00000000E+00  0.00000000E+00  0.00000000E+00  0.00000000E+00
  0.00000000E+00  0.00000000E+00  0.00000000E+00  0.00000000E+00  0.00000000E+00
ZRed-Constraint1                           R   N=          20
 -1.72322364E+00  0.00000000E+00  0.00000000E+00  1.72322364E+00  0.00000000E+00
  0.00000000E+00  2.22256937E+00  2.22424754E+00  2.22256937E+00  2.22424754E+00
  2.22640030E+00  2.22128673E+00  1.83549828E+00  2.22640030E+00  2.22128673E+00
  1.83549828E+00  3.14159265E+00  0.00000000E+00  0.00000000E+00  3.14159265E+00
ZRed-Constraint2                           R   N=          20
 -1.72322364E+00  0.00000000E+00  0.00000000E+00  1.72322364E+00  0.00000000E+00
  0.00000000E+00  0.00000000E+00  0.00000000E+00  0.00000000E+00  0.00000000E+00
  0.00000000E+00  0.00000000E+00  0.00000000E+00  0.00000000E+00  0.00000000E+00
  0.00000000E+00  0.00000000E+00  0.00000000E+00  0.00000000E+00  0.00000000E+00
Number of contracted shells                I               28
Number of primitive shells                 I               50
Pure/Cartesian d shells                    I                0
Pure/Cartesian f shells                    I                0
Highest angular momentum                   I                2
Largest degree of contraction              I                6
Shell types                                I   N=          28
           0          -1          -1          -1          -1          -2
           0          -1          -1          -1          -1          -2
           0           0           0           1           0           0
           0           1           0           0           0           1
           0           0           0           1
Number of primitives per shell             I   N=          28
           6           3           1           1           1           1
           6           3           1           1           1           1
           3           1           1           1           3           1
           1           1           3           1           1           1
           3           1           1           1
Shell to atom map                          I   N=          28
           1           1           1           1           1           1
           2           2           2           2           2           2
           3           3           3           3           4           4
           4           4           5           5           5           5
           6           6           6           6
Primitive exponents                        R   N=          50
  4.56324000E+03  6.82024000E+02  1.54973000E+02  4.44553000E+01  1.30290000E+01
  1.82773000E+00  2.09642000E+01  4.80331000E+00  1.45933000E+00  4.83456000E-01
  1.45585000E-01  4.38000000E-02  6.26000000E-01  4.56324000E+03  6.82024000E+02
  1.54973000E+02  4.44553000E+01  1.30290000E+01  1.82773000E+00  2.09642000E+01
  4.80331000E+00  1.45933000E+00  4.83456000E-01  1.45585000E-01  4.38000000E-02
  6.26000000E-01  3.38650000E+01  5.09479000E+00  1.15879000E+00  3.25840000E-01
  1.02741000E-01  7.50000000E-01  3.38650000E+01  5.09479000E+00  1.15879000E+00
  3.25840000E-01  1.02741000E-01  7.50000000E-01  3.38650000E+01  5.09479000E+00
  1.15879000E+00  3.25840000E-01  1.02741000E-01  7.50000000E-01  3.38650000E+01
  5.09479000E+00  1.15879000E+00  3.25840000E-01  1.02741000E-01  7.50000000E-01
Contraction coefficients                   R   N=          50
  1.96665025E-03  1.52306019E-02  7.61269097E-02  2.60801033E-01  6.16462078E-01
  2.21006028E-01  1.14660081E-01  9.19999648E-01 -3.03068213E-03  1.00000000E+00
  1.00000000E+00  1.00000000E+00  1.00000000E+00  1.96665025E-03  1.52306019E-02
  7.61269097E-02  2.60801033E-01  6.16462078E-01  2.21006028E-01  1.14660081E-01
  9.19999648E-01 -3.03068213E-03  1.00000000E+00  1.00000000E+00  1.00000000E+00
  1.00000000E+00  2.54938145E-02  1.90373109E-01  8.52161486E-01  1.00000000E+00
  1.00000000E+00  1.00000000E+00  2.54938145E-02  1.90373109E-01  8.52161486E-01
  1.00000000E+00  1.00000000E+00  1.00000000E+00  2.54938145E-02  1.90373109E-01
  8.52161486E-01  1.00000000E+00  1.00000000E+00  1.00000000E+00  2.54938145E-02
  1.90373109E-01  8.52161486E-01  1.00000000E+00  1.00000000E+00  1.00000000E+00
P(S=P) Contraction coefficients            R   N=          50
  0.00000000E+00  0.00000000E+00  0.00000000E+00  0.00000000E+00  0.00000000E+00
  0.00000000E+00  4.02486927E-02  2.37593957E-01  8.15853851E-01  1.00000000E+00
  1.00000000E+00  1.00000000E+00  0.00000000E+00  0.00000000E+00  0.00000000E+00
  0.00000000E+00  0.00000000E+00  0.00000000E+00  0.00000000E+00  4.02486927E-02
  2.37593957E-01  8.15853851E-01  1.00000000E+00  1.00000000E+00  1.00000000E+00
  0.00000000E+00  0.00000000E+00  0.00000000E+00  0.00000000E+00  0.00000000E+00
  0.00000000E+00  0.00000000E+00  0.00000000E+00  0.00000000E+00  0.00000000E+00
  0.00000000E+00  0.00000000E+00  0.00000000E+00  0.00000000E+00  0.00000000E+00
  0.00000000E+00  0.00000000E+00  0.00000000E+00  0.00000000E+00  0.00000000E+00
  0.00000000E+00  0.00000000E+00  0.00000000E+00  0.00000000E+00  0.00000000E+00
Coordinates of each shell                  R   N=          84
 -1.72322364E+00  0.00000000E+00  0.00000000E+00 -1.72322364E+00  0.00000000E+00
  0.00000000E+00 -1.72322364E+00  0.00000000E+00  0.00000000E+00 -1.72322364E+00
  0.00000000E+00  0.00000000E+00 -1.72322364E+00  0.00000000E+00  0.00000000E+00
 -1.72322364E+00  0.00000000E+00  0.00000000E+00  1.72322364E+00  0.00000000E+00
  0.00000000E+00  1.72322364E+00  0.00000000E+00  0.00000000E+00  1.72322364E+00
  0.00000000E+00  0.00000000E+00  1.72322364E+00  0.00000000E+00  0.00000000E+00
  1.72322364E+00  0.00000000E+00  0.00000000E+00  1.72322364E+00  0.00000000E+00
  0.00000000E+00 -2.64740600E+00 -1.82965654E+00  2.67445772E-08 -2.64740600E+00
 -1.82965654E+00  2.67445772E-08 -2.64740600E+00 -1.82965654E+00  2.67445772E-08
 -2.64740600E+00 -1.82965654E+00  2.67445772E-08 -2.64746399E+00  1.82953615E+00
  1.24759522E-08 -2.64746399E+00  1.82953615E+00  1.24759522E-08 -2.64746399E+00
  1.82953615E+00  1.24759522E-08 -2.64746399E+00  1.82953615E+00  1.24759522E-08
  2.64740578E+00  1.82965638E+00 -2.27609476E-08  2.64740578E+00  1.82965638E+00
 -2.27609476E-08  2.64740578E+00  1.82965638E+00 -2.27609476E-08  2.64740578E+00
  1.82965638E+00 -2.27609476E-08  2.64746377E+00 -1.82953599E+00 -3.70288197E-08
  2.64746377E+00 -1.82953599E+00 -3.70288197E-08  2.64746377E+00 -1.82953599E+00
 -3.70288197E-08  2.64746377E+00 -1.82953599E+00 -3.70288197E-08
Num ILSW                                   I              100
ILSW                                       I   N=         100
           1           0           0           1           2           0
           0           0           0           0        4336          -1
           7           0           0           0           2           0
           0           0           0           0           1           0
           1           1           0           0           0           0
           0           0      100000           0          -1           0
           0           0           0           0           0           0
           0           0           0           1           0           0
           0 -2000000000           1           0           0           0
           0           0           4          52           0           0
           0           0          55           0           0           0
           0           0           0           6           0           1
           0           0           0           0           0           0
           0           0           0           0           0           0
           0           0           0           0           0           0
           0           0           0           0           0           0
           0           0           0           0
Num RLSW                                   I               52
RLSW                                       R   N=          52
  1.00000000E+00  1.00000000E+00  1.00000000E+00  1.00000000E+00  5.40000000E-01
  0.00000000E+00  0.00000000E+00  1.00000000E+00  0.00000000E+00  0.00000000E+00
  0.00000000E+00  0.00000000E+00  1.00000000E+00  0.00000000E+00  0.00000000E+00
  0.00000000E+00  0.00000000E+00  1.00000000E+00  0.00000000E+00  0.00000000E+00
  0.00000000E+00  0.00000000E+00  1.00000000E+00  0.00000000E+00  0.00000000E+00
  0.00000000E+00  0.00000000E+00  1.00000000E+00  0.00000000E+00  0.00000000E+00
  0.00000000E+00  0.00000000E+00  1.00000000E+00  0.00000000E+00  0.00000000E+00
  0.00000000E+00  0.00000000E+00  0.00000000E+00  1.00000000E+00  1.00000000E+00
  0.00000000E+00  1.00000000E+00  0.00000000E+00  0.00000000E+00  0.00000000E+00
  0.00000000E+00  0.00000000E+00  0.00000000E+00  0.00000000E+00  0.00000000E+00
  0.00000000E+00  0.00000000E+00
MxBond                                     I                3
NBond                                      I   N=           6
           3           3           1           1           1           1
IBond                                      I   N=          18
           2           3           4           1           5           6
           1           0           0           1           0           0
           2           0           0           2           0           0
RBond                                      R   N=          18
  1.00000000E+00  1.00000000E+00  1.00000000E+00  1.00000000E+00  1.00000000E+00
  1.00000000E+00  1.00000000E+00  0.00000000E+00  0.00000000E+00  1.00000000E+00
  0.00000000E+00  0.00000000E+00  1.00000000E+00  0.00000000E+00  0.00000000E+00
  1.00000000E+00  0.00000000E+00  0.00000000E+00
Virial Ratio                               R      2.009795764947041E+00
SCF Energy                                 R     -7.811186737901281E+01
Total Energy                               R     -7.811186737901281E+01
S**2                                       R      7.522953313062128E-01
S**2 after annihilation                    R      7.500040574580668E-01
RMS Force                                  R      1.611419622790531E-05
RMS Density                                R      7.639937818940389E-09
Job Status                                 I                1
Nuclear derivative order                   I                1
External E-field                           R   N=          35
  0.00000000E+00  0.00000000E+00  0.00000000E+00  0.00000000E+00  0.00000000E+00
  0.00000000E+00  0.00000000E+00  0.00000000E+00  0.00000000E+00  0.00000000E+00
  0.00000000E+00  0.00000000E+00  0.00000000E+00  0.00000000E+00  0.00000000E+00
  0.00000000E+00  0.00000000E+00  0.00000000E+00  0.00000000E+00  0.00000000E+00
  0.00000000E+00  0.00000000E+00  0.00000000E+00  0.00000000E+00  0.00000000E+00
  0.00000000E+00  0.00000000E+00  0.00000000E+00  0.00000000E+00  0.00000000E+00
  0.00000000E+00  0.00000000E+00  0.00000000E+00  0.00000000E+00  0.00000000E+00
IOpCl                                      I                1
IROHF                                      I                0
Alpha Orbital Energies                     R   N=          68
 -1.09173660E+01 -1.09171425E+01 -1.09314752E+00 -9.94547192E-01 -8.15209084E-01
 -7.64742927E-01 -7.11382813E-01 -5.88847368E-01 -3.48377449E-01 -1.83734948E-01
 -1.43463117E-01 -1.12470241E-01 -9.03801070E-02 -8.71980772E-02 -7.35553594E-02
 -7.33838698E-02 -4.71436774E-02 -4.40809452E-02 -1.95748056E-02 -1.24066840E-02
  2.50292944E-02  9.63030758E-02  1.83873226E-01  2.32195801E-01  2.49763953E-01
  3.28379563E-01  3.55557545E-01  3.74313783E-01  4.13553168E-01  4.42760221E-01
  4.62217032E-01  4.69688838E-01  5.38955584E-01  5.64708964E-01  7.88065814E-01
  8.04647729E-01  8.26411373E-01  1.02271565E+00  1.15404802E+00  1.17476083E+00
  1.21485807E+00  1.25145089E+00  1.26951354E+00  1.33869557E+00  1.46841105E+00
  1.56439010E+00  1.61678967E+00  1.66307660E+00  1.67307245E+00  1.72584974E+00
  1.78610394E+00  1.81303746E+00  2.11727759E+00  2.25917022E+00  2.28631896E+00
  2.31894787E+00  2.36765503E+00  2.38031157E+00  2.42907093E+00  2.46397931E+00
  2.47170676E+00  2.49604712E+00  2.52835792E+00  3.40019309E+00  3.43270117E+00
  3.48296413E+00  2.34710078E+01  2.35370426E+01
Beta Orbital Energies                      R   N=          68
 -1.09150729E+01 -1.09149254E+01 -1.06021337E+00 -9.73158737E-01 -8.08460597E-01
 -7.61228734E-01 -6.98236417E-01 -3.71066868E-01 -2.65721141E-01 -1.62712842E-01
 -1.58571593E-01 -1.16186982E-01 -8.50110917E-02 -8.49201829E-02 -7.94409109E-02
 -7.32378100E-02 -4.44056676E-02 -4.01026270E-02 -1.55099707E-02 -6.24745940E-03
  1.83786465E-02  1.02245434E-01  1.81998000E-01  2.30819727E-01  2.55021711E-01
  3.35428725E-01  3.59372572E-01  3.71402982E-01  4.23578368E-01  4.57407367E-01
  4.59216328E-01  4.82625439E-01  5.27567382E-01  5.61414173E-01  8.20417857E-01
  8.40803757E-01  8.54136696E-01  1.05503052E+00  1.16376644E+00  1.19155519E+00
  1.25471959E+00  1.26936081E+00  1.29691860E+00  1.35776058E+00  1.48329001E+00
  1.58635688E+00  1.65001647E+00  1.67710553E+00  1.69249621E+00  1.73837330E+00
  1.80459941E+00  1.83730532E+00  2.15428176E+00  2.27286160E+00  2.31614963E+00
  2.33115500E+00  2.40732497E+00  2.41078180E+00  2.46874987E+00  2.48207434E+00
  2.50777829E+00  2.53733376E+00  2.53934145E+00  3.46024326E+00  3.48103882E+00
  3.53125106E+00  2.34833932E+01  2.35500947E+01
Alpha MO coefficients                      R   N=        4624
  3.99030254E-01  3.28023987E-01  6.19416366E-04 -9.71741699E-09 -1.07058915E-11
  8.09158121E-03 -1.41573843E-03  4.28550321E-07  3.79096891E-11 -2.04358426E-03
 -1.38818952E-05  4.62333474E-08 -2.20181257E-12 -5.47301224E-04  4.51741792E-04
 -2.04392366E-07 -1.27379741E-11 -7.86174173E-04 -9.27643064E-12 -9.49589788E-12
 -9.02669551E-04 -2.29276789E-07  3.99027658E-01  3.28021852E-01 -6.19412660E-04
  9.71750244E-09  2.05495794E-11  8.09153100E-03  1.41572750E-03 -4.28551484E-07
 -5.90676396E-11 -2.04355871E-03  1.38770748E-05 -4.62331318E-08  4.85383955E-12
 -5.47317554E-04 -4.51732657E-04  2.04392604E-07  1.52440409E-11 -7.86170112E-04
 -1.59799587E-11  9.50557614E-12 -9.02663759E-04 -2.29276784E-07  1.49779007E-04
 -2.27910577E-03  1.48783583E-03 -6.76766533E-04 -1.25792284E-03  1.89733959E-11
  1.49688225E-04 -2.27993642E-03  1.48840339E-03 -6.76999708E-04  1.25822085E-03
  9.49724179E-12  1.49777958E-04 -2.27909404E-03  1.48782658E-03  6.76763032E-04
  1.25791537E-03 -1.66325497E-11  1.49687175E-04 -2.27992469E-03  1.48839415E-03
  6.76996207E-04 -1.25821338E-03 -2.61190622E-11 -3.99045270E-01 -3.28100502E-01
 -5.92928050E-04  1.01656928E-08  9.55125062E-12 -8.00372767E-03  1.84762247E-03
 -4.02224922E-07 -3.75365654E-11  3.70708315E-03  6.10845764E-04  1.66675386E-08
  6.82746061E-12 -1.63854347E-03 -1.15913862E-03  5.49081766E-08  3.72735042E-12
  7.13283414E-04  1.07050997E-11  8.32433366E-12  1.01876177E-03  2.08990439E-07
  3.99047866E-01  3.28102636E-01 -5.92932147E-04  1.01659204E-08  1.95636607E-11
  8.00378220E-03  1.84763245E-03 -4.02231495E-07 -5.84154703E-11 -3.70709628E-03
  6.10845760E-04  1.66668554E-08  1.11926477E-11  1.63853942E-03 -1.15914147E-03
  5.49107485E-08  9.47324820E-12 -7.13289014E-04 -1.70187572E-11  8.33391742E-12
 -1.01876824E-03 -2.08993282E-07 -1.22119932E-04  2.07374288E-03 -1.60529658E-03
  5.99364237E-04  1.25863155E-03 -1.92888756E-11 -1.22014697E-04  2.07443141E-03
 -1.60572913E-03  5.99583943E-04 -1.25890993E-03 -9.59505509E-12  1.22120661E-04
 -2.07375903E-03  1.60530692E-03  5.99368936E-04  1.25864035E-03 -1.68889254E-11
  1.22015424E-04 -2.07444757E-03  1.60573948E-03  5.99588645E-04 -1.25891873E-03
 -2.65915531E-11 -8.14416060E-02 -1.32671594E-01  7.09477419E-03  3.34133539E-06
  2.25786318E-10  3.64515403E-01  2.19626128E-02  3.21946615E-06  2.86970286E-10
  2.36931408E-01  1.12540375E-02  9.20898330E-07  9.36437000E-11  5.29071213E-04
 -7.33335333E-03  9.87482538E-07  1.69435590E-10 -5.95495807E-03 -7.88525512E-12
 -2.69740046E-11  3.60762170E-03 -5.83572942E-07 -8.14416394E-02 -1.32671648E-01
 -7.09475068E-03 -3.34137421E-06 -4.41950469E-10  3.64515548E-01 -2.19625820E-02
 -3.21950710E-06 -5.36868328E-10  2.36931499E-01 -1.12540305E-02 -9.20916026E-07
 -2.49191676E-10  5.29081287E-04  7.33335140E-03 -9.87484674E-07 -1.91585786E-10
 -5.95496034E-03 -1.24579405E-11  2.69503175E-11  3.60761516E-03 -5.83573902E-07
  6.35582691E-02  6.96217944E-02 -8.70882827E-03  5.51063927E-03  1.11474178E-02
 -1.45786329E-10  6.35649603E-02  6.96284237E-02 -8.71123444E-03  5.51181980E-03
 -1.11478999E-02 -5.60749353E-11  6.35583132E-02  6.96218366E-02 -8.70883431E-03
 -5.51064031E-03 -1.11474240E-02  1.09486760E-10  6.35650045E-02  6.96284659E-02
 -8.71124050E-03 -5.51182083E-03  1.11479061E-02  1.99086243E-10 -7.65994791E-02
 -1.25245615E-01 -5.47018328E-02  7.17603529E-06  6.91269927E-10  3.50836628E-01
 -8.13184029E-02  8.74848960E-06  9.80254857E-10  2.57856870E-01 -2.18412359E-02
  3.36085182E-06  4.40952446E-10 -3.95868388E-02 -1.63373612E-02  1.13142929E-07
  2.34924113E-11 -2.71027214E-03 -1.33444228E-11 -6.10332634E-11 -1.09769033E-02
 -1.06863314E-06  7.65994457E-02  1.25245560E-01 -5.47018493E-02  7.17608957E-06
  1.00111517E-09 -3.50836472E-01 -8.13184296E-02  8.74855219E-06  1.38667694E-09
 -2.57856744E-01 -2.18412466E-02  3.36087511E-06  6.27990787E-10  3.95868385E-02
 -1.63373557E-02  1.13145844E-07  8.39012809E-11  2.71027084E-03  5.67722561E-11
 -6.11308666E-11  1.09769091E-02  1.06863947E-06  8.30205452E-02  9.61318766E-02
 -2.93798864E-03  3.97755089E-03  1.29924406E-02 -1.53340091E-10  8.30336877E-02
  9.61445004E-02 -2.93912017E-03  3.97897446E-03 -1.29935820E-02 -4.40328321E-11
 -8.30205312E-02 -9.61318523E-02  2.93798651E-03  3.97754680E-03  1.29924367E-02
 -1.04119505E-10 -8.30336738E-02 -9.61444761E-02  2.93911805E-03  3.97897037E-03
 -1.29935781E-02 -2.13687003E-10  3.01077185E-06  5.08042629E-06 -5.90755254E-07
  1.58106425E-01 -4.59103224E-10 -1.48284582E-05  6.47538114E-07  2.33509193E-01
 -6.49493569E-10 -1.85205903E-05 -1.41481418E-06  1.42331488E-01 -4.03244184E-10
  3.75460605E-07  3.23418371E-07  3.89798398E-03 -5.26605095E-11 -2.85014529E-09
  6.34661178E-11  2.98829109E-10  1.02234929E-06 -6.21925714E-03 -3.01078683E-06
 -5.08045215E-06 -5.90827052E-07  1.58106618E-01  4.59157332E-10  1.48285360E-05
  6.47433479E-07  2.33509459E-01  6.49514085E-10  1.85206907E-05 -1.41486738E-06
  1.42331646E-01  4.03226552E-10 -3.75459186E-07  3.23424522E-07  3.89799894E-03
  5.26523316E-11  2.85088772E-09  6.34759115E-11 -4.69327054E-10 -1.02233785E-06
  6.21927952E-03 -1.01238179E-01 -1.27924421E-01 -3.85937815E-03 -7.80629878E-03
 -9.51115388E-03  2.09178987E-10  1.01232441E-01  1.27913254E-01  3.85779703E-03
  7.80673327E-03 -9.50953977E-03 -1.14176398E-10  1.01238312E-01  1.27924583E-01
  3.85937969E-03 -7.80630891E-03 -9.51116601E-03  1.98170125E-10 -1.01232575E-01
 -1.27913416E-01 -3.85779858E-03  7.80674340E-03 -9.50955190E-03 -2.93127665E-10
  1.46059366E-06  2.57994143E-06 -2.84401786E-05  1.62545886E-01 -8.13144617E-10
 -7.63653360E-06 -4.38395749E-05  2.35212942E-01 -1.23115095E-09 -1.28208155E-05
 -2.45682219E-05  1.53602686E-01 -7.94265218E-10  1.91373964E-07  1.20563577E-06
  1.34565295E-02 -8.31077929E-12  1.65608150E-07  1.24164038E-11  3.77322956E-10
 -2.36006703E-06 -2.15673457E-02  1.46060893E-06  2.57996755E-06  2.84401669E-05
 -1.62545718E-01 -8.13734513E-10 -7.63661204E-06  4.38395502E-05 -2.35212678E-01
 -1.23194662E-09 -1.28209281E-05  2.45682083E-05 -1.53602508E-01 -7.94741515E-10
  1.91385342E-07 -1.20564458E-06 -1.34565236E-02 -8.33338040E-12  1.65607097E-07
 -1.24843069E-11  5.44059256E-10 -2.36006843E-06 -2.15673376E-02 -1.10378171E-01
 -1.48664010E-01 -1.25043058E-02 -8.80355369E-03 -9.23076990E-03  1.91729944E-10
  1.10395102E-01  1.48684150E-01  1.25066534E-02  8.80316594E-03 -9.23202133E-03
 -1.33032200E-10 -1.10378065E-01 -1.48663859E-01 -1.25042915E-02  8.80354551E-03
  9.23076111E-03 -2.15332341E-10  1.10394996E-01  1.48683999E-01  1.25066391E-02
 -8.80315776E-03  9.23201254E-03  2.74001310E-10 -5.66251415E-03 -9.89292642E-03
  1.83631748E-01  2.43633151E-05 -1.41700611E-09  2.84509811E-02  2.95295426E-01
  3.70073222E-05 -1.96092321E-09  4.80801114E-02  1.77564012E-01  2.49288660E-05
 -1.42933406E-09 -1.86382772E-03 -9.83058670E-03  1.33439503E-06 -3.43454611E-11
 -1.48009095E-03  1.70388730E-10  6.10784945E-11  2.04492727E-02 -2.47174864E-06
 -5.66251546E-03 -9.89292887E-03 -1.83631747E-01 -2.43633351E-05  2.29000604E-09
  2.84509887E-02 -2.95295424E-01 -3.70073608E-05  3.32712474E-09  4.80801389E-02
 -1.77564002E-01 -2.49289017E-05  2.30040370E-09 -1.86382355E-03  9.83058826E-03
 -1.33439751E-06  2.98983622E-11 -1.48009129E-03  1.63927334E-10 -6.09712208E-11
  2.04492732E-02 -2.47174615E-06 -6.28415385E-02 -9.39898954E-02 -2.19351654E-02
  4.07415246E-03 -9.13751881E-03  5.15323343E-11 -6.28133179E-02 -9.39467277E-02
 -2.19271722E-02  4.07645985E-03  9.13558241E-03 -2.43840224E-11 -6.28415327E-02
 -9.39898819E-02 -2.19351668E-02 -4.07415555E-03  9.13751772E-03  1.95698616E-11
 -6.28133121E-02 -9.39467142E-02 -2.19271736E-02 -4.07646294E-03 -9.13558132E-03
 -5.62748287E-11  7.68708797E-10  1.32294629E-09 -6.50177418E-10  9.47754378E-10
  1.86067011E-01 -4.24789700E-09 -7.97244363E-10  1.46663112E-09  3.04749879E-01
 -4.62652175E-09 -1.12417447E-09  6.79812368E-10  2.80033528E-01  5.22790406E-09
  1.62481245E-09 -2.23386476E-10  3.63486602E-03 -1.65149557E-10  1.84868072E-02
  3.46439743E-07 -4.80075837E-11 -5.61596424E-11 -9.58620625E-10 -1.64780569E-09
  4.59819283E-10 -9.47831691E-10  1.86067029E-01  5.32600105E-09  9.75089920E-10
 -1.46635404E-09  3.04749910E-01  5.57516867E-09  1.67397319E-10 -6.80661622E-10
  2.80033551E-01 -5.33637708E-09  1.67714701E-09  2.22451117E-10  3.63486426E-03
  2.32005062E-10 -1.84868063E-02 -3.46443691E-07  3.48532191E-11 -5.60717098E-11
  6.89026929E-10  6.37852105E-10 -6.50144845E-10  1.44587827E-11  1.46428693E-10
  1.13434950E-02  1.10177197E-09  1.78085712E-09  3.17416234E-10  6.99227552E-11
 -1.20747443E-10  1.13441045E-02 -1.23367487E-09 -1.77589226E-09 -2.16894437E-10
  1.47806801E-10  1.19574953E-10  1.13434980E-02 -8.21081419E-10 -6.31790786E-10
  7.46610879E-10  9.23203645E-11 -1.45158541E-10  1.13441076E-02  3.23579828E-10
  5.75279764E-10  2.33420997E-09  6.50721801E-10  2.08143736E-01 -1.88093156E-09
  3.99624948E-09  1.06851882E-09  3.32319614E-01 -3.79076737E-09  3.89016840E-09
  1.42228302E-09  3.79186108E-01 -1.56825052E-09  2.61538845E-10  2.03573577E-10
  6.69782043E-02 -1.49015958E-10 -1.65206180E-02  3.62903536E-07 -9.93517438E-11
  7.65206822E-11  7.20996799E-10  1.25427306E-09 -2.39907324E-09  6.50517327E-10
 -2.08143723E-01 -3.99895878E-09 -4.15280539E-09  1.06898376E-09 -3.32319594E-01
 -7.20907796E-09 -4.20056789E-09  1.41831550E-09 -3.79186079E-01  2.34802456E-10
 -9.32258024E-10  1.98134892E-10 -6.69781979E-02 -2.62129146E-10 -1.65206204E-02
  3.62907017E-07 -1.40144351E-10 -7.64718924E-11  8.81602061E-10  1.63678995E-09
  1.16531129E-09  1.96448523E-10  1.55083399E-10  1.70752916E-02  4.89915155E-10
  8.43135786E-10  5.11877322E-10  2.00849570E-10 -6.76598380E-12  1.70762053E-02
  1.10411539E-09  1.91961620E-09  1.05451011E-09 -2.32175517E-10 -7.67724841E-11
 -1.70752923E-02  1.49571096E-09  2.71361196E-09  1.69615013E-09 -2.27754908E-10
  2.25198996E-10 -1.70762060E-02 -5.57972436E-02 -9.52382104E-02  1.60906761E-01
  4.63518559E-07  3.89023770E-10  2.82511471E-01  2.51222736E-01  2.75376918E-06
  9.56723164E-10  8.50121003E-01  5.06442488E-01  5.75844296E-06  2.07196390E-09
  1.33910703E+00  7.15292328E-01  7.16204179E-06  4.98641610E-10  1.90623630E-02
  2.53953176E-10  4.76655759E-11 -2.44817944E-02  7.32405168E-07  5.57972285E-02
  9.52381852E-02  1.60906794E-01  4.63490609E-07  9.03882446E-10 -2.82511401E-01
  2.51222784E-01  2.75374463E-06  1.88421392E-09 -8.50120721E-01  5.06442593E-01