 Entering Gaussian System, Link 0=g16
 Initial command:
 /home/szhao/Apps/g16/l1.exe "/home/szhao/tmp/Gau-150414.inp" -scrdir="/home/szhao/tmp/"
 Default is to use a total of  16 processors:
                               16 via shared-memory
                                1 via Linda
 Entering Link 1 = /home/szhao/Apps/g16/l1.exe PID=    150490.
  
 Copyright (c) 1988,1990,1992,1993,1995,1998,2003,2009,2016,
            Gaussian, Inc.  All Rights Reserved.
  
 This is part of the Gaussian(R) 16 program.  It is based on
 the Gaussian(R) 09 system (copyright 2009, Gaussian, Inc.),
 the Gaussian(R) 03 system (copyright 2003, Gaussian, Inc.),
 the Gaussian(R) 98 system (copyright 1998, Gaussian, Inc.),
 the Gaussian(R) 94 system (copyright 1995, Gaussian, Inc.),
 the Gaussian 92(TM) system (copyright 1992, Gaussian, Inc.),
 the Gaussian 90(TM) system (copyright 1990, Gaussian, Inc.),
 the Gaussian 88(TM) system (copyright 1988, Gaussian, Inc.),
 the Gaussian 86(TM) system (copyright 1986, Carnegie Mellon
 University), and the Gaussian 82(TM) system (copyright 1983,
 Carnegie Mellon University). Gaussian is a federally registered
 trademark of Gaussian, Inc.
  
 This software contains proprietary and confidential information,
 including trade secrets, belonging to Gaussian, Inc.
  
 This software is provided under written license and may be
 used, copied, transmitted, or stored only in accord with that
 written license.
  
 The following legend is applicable only to US Government
 contracts under FAR:
  
                    RESTRICTED RIGHTS LEGEND
  
 Use, reproduction and disclosure by the US Government is
 subject to restrictions as set forth in subparagraphs (a)
 and (c) of the Commercial Computer Software - Restricted
 Rights clause in FAR 52.227-19.
  
 Gaussian, Inc.
 340 Quinnipiac St., Bldg. 40, Wallingford CT 06492
  
  
 ---------------------------------------------------------------
 Warning -- This program may not be used in any manner that
 competes with the business of Gaussian, Inc. or will provide
 assistance to any competitor of Gaussian, Inc.  The licensee
 of this program is prohibited from giving any competitor of
 Gaussian, Inc. access to this program.  By using this program,
 the user acknowledges that Gaussian, Inc. is engaged in the
 business of creating and licensing software in the field of
 computational chemistry and represents and warrants to the
 licensee that it is not a competitor of Gaussian, Inc. and that
 it will not use this program in any manner prohibited above.
 ---------------------------------------------------------------
  

 Cite this work as:
 Gaussian 16, Revision A.03,
 M. J. Frisch, G. W. Trucks, H. B. Schlegel, G. E. Scuseria, 
 M. A. Robb, J. R. Cheeseman, G. Scalmani, V. Barone, 
 G. A. Petersson, H. Nakatsuji, X. Li, M. Caricato, A. V. Marenich, 
 J. Bloino, B. G. Janesko, R. Gomperts, B. Mennucci, H. P. Hratchian, 
 J. V. Ortiz, A. F. Izmaylov, J. L. Sonnenberg, D. Williams-Young, 
 F. Ding, F. Lipparini, F. Egidi, J. Goings, B. Peng, A. Petrone, 
 T. Henderson, D. Ranasinghe, V. G. Zakrzewski, J. Gao, N. Rega, 
 G. Zheng, W. Liang, M. Hada, M. Ehara, K. Toyota, R. Fukuda, 
 J. Hasegawa, M. Ishida, T. Nakajima, Y. Honda, O. Kitao, H. Nakai, 
 T. Vreven, K. Throssell, J. A. Montgomery, Jr., J. E. Peralta, 
 F. Ogliaro, M. J. Bearpark, J. J. Heyd, E. N. Brothers, K. N. Kudin, 
 V. N. Staroverov, T. A. Keith, R. Kobayashi, J. Normand, 
 K. Raghavachari, A. P. Rendell, J. C. Burant, S. S. Iyengar, 
 J. Tomasi, M. Cossi, J. M. Millam, M. Klene, C. Adamo, R. Cammi, 
 J. W. Ochterski, R. L. Martin, K. Morokuma, O. Farkas, 
 J. B. Foresman, and D. J. Fox, Gaussian, Inc., Wallingford CT, 2016.
 
 ******************************************
 Gaussian 16:  ES64L-G16RevA.03 25-Dec-2016
                21-Apr-2025 
 ******************************************
 %chk=opt.chk
 %mem=4GB
 %nprocshared=8
 Will use up to    8 processors via shared memory.
 --------------------------------------------
 #p opt UM062X/6-311+G** nosymm int=superfine
 --------------------------------------------
 1/18=20,19=15,26=5,38=1/1,3;
 2/9=110,12=2,15=1,17=6,18=5,40=1/2;
 3/5=4,6=6,7=111,11=2,25=1,30=1,71=1,74=-55,75=-7,116=2/1,2,3;
 4//1;
 5/5=2,38=5/2;
 6/7=2,8=2,9=2,10=2,28=1/1;
 7/30=1/1,2,3,16;
 1/18=20,19=15,26=5/3(2);
 2/9=110,15=1/2;
 99//99;
 2/9=110,15=1/2;
 3/5=4,6=6,7=111,11=2,25=1,30=1,71=1,74=-55,75=-7,116=2/1,2,3;
 4/5=5,16=3,69=1/1;
 5/5=2,38=5/2;
 7/30=1/1,2,3,16;
 1/18=20,19=15,26=5/3(-5);
 2/9=110,15=1/2;
 6/7=2,8=2,9=2,10=2,19=2,28=1/1;
 99/9=1/99;
 Leave Link    1 at Mon Apr 21 20:13:21 2025, MaxMem=   536870912 cpu:               4.0 elap:               0.4
 (Enter /home/szhao/Apps/g16/l101.exe)
 -------------------
 Title Card Required
 -------------------
 Symbolic Z-matrix:
 Charge =  1 Multiplicity = 2
 Si                   -1   -1.62629   0.        0. 
 Si                   -1    1.62629   0.        0. 
 H                    0     1.82437  -1.45402   0. 
 H                    0    -1.82369  -0.72694   1.25938 
 H                    0     1.82431   0.72706  -1.25921 
 H                    0     1.82343   0.72707   1.25935 
 H                    0    -1.8244    1.45402  -0.00003 
 H                    0    -1.82402  -0.7272   -1.25918 
 
 Add virtual bond connecting atoms Si2        and Si1        Dist= 6.15D+00.
 ITRead=  2  2  0  0  0  0  0  0
 MicOpt= -2 -2 -1 -1 -1 -1 -1 -1
 NAtoms=      8 NQM=        6 NQMF=       2 NMMI=      0 NMMIF=      0
                NMic=       0 NMicF=      0.
                    Isotopes and Nuclear Properties:
 (Nuclear quadrupole moments (NQMom) in fm**2, nuclear magnetic moments (NMagM)
  in nuclear magnetons)

  Atom         1           2           3           4           5           6           7           8
 IAtWgt=          28          28           1           1           1           1           1           1
 AtmWgt=  27.9769284  27.9769284   1.0078250   1.0078250   1.0078250   1.0078250   1.0078250   1.0078250
 NucSpn=           0           0           1           1           1           1           1           1
 AtZEff=  -0.0000000  -0.0000000  -0.0000000  -0.0000000  -0.0000000  -0.0000000  -0.0000000  -0.0000000
 NQMom=    0.0000000   0.0000000   0.0000000   0.0000000   0.0000000   0.0000000   0.0000000   0.0000000
 NMagM=    0.0000000   0.0000000   2.7928460   2.7928460   2.7928460   2.7928460   2.7928460   2.7928460
 AtZNuc=  14.0000000  14.0000000   1.0000000   1.0000000   1.0000000   1.0000000   1.0000000   1.0000000
 Leave Link  101 at Mon Apr 21 20:13:23 2025, MaxMem=   536870912 cpu:               3.0 elap:               0.4
 (Enter /home/szhao/Apps/g16/l103.exe)

 GradGradGradGradGradGradGradGradGradGradGradGradGradGradGradGradGradGrad
 Berny optimization.
 Initialization pass.
                           ----------------------------
                           !    Initial Parameters    !
                           ! (Angstroms and Degrees)  !
 --------------------------                            --------------------------
 ! Name  Definition              Value          Derivative Info.                !
 --------------------------------------------------------------------------------
 ! X1    R(1,-1)                -1.6263         Frozen                          !
 ! Y1    R(1,-2)                 0.0            Frozen                          !
 ! Z1    R(1,-3)                 0.0            Frozen                          !
 ! X2    R(2,-1)                 1.6263         Frozen                          !
 ! Y2    R(2,-2)                 0.0            Frozen                          !
 ! Z2    R(2,-3)                 0.0            Frozen                          !
 ! R1    R(1,4)                  1.4675         estimate D2E/DX2                !
 ! R2    R(1,7)                  1.4675         estimate D2E/DX2                !
 ! R3    R(1,8)                  1.4675         estimate D2E/DX2                !
 ! R4    R(2,3)                  1.4675         estimate D2E/DX2                !
 ! R5    R(2,5)                  1.4675         estimate D2E/DX2                !
 ! R6    R(2,6)                  1.4675         estimate D2E/DX2                !
 ! A1    A(2,1,4)               97.7308         estimate D2E/DX2                !
 ! A2    A(2,1,7)               97.7588         estimate D2E/DX2                !
 ! A3    A(2,1,8)               97.7435         estimate D2E/DX2                !
 ! A4    A(4,1,7)              118.2095         estimate D2E/DX2                !
 ! A5    A(4,1,8)              118.2153         estimate D2E/DX2                !
 ! A6    A(7,1,8)              118.2164         estimate D2E/DX2                !
 ! A7    A(1,2,3)               97.7576         estimate D2E/DX2                !
 ! A8    A(1,2,5)               97.755          estimate D2E/DX2                !
 ! A9    A(1,2,6)               97.7205         estimate D2E/DX2                !
 ! A10   A(3,2,5)              118.2102         estimate D2E/DX2                !
 ! A11   A(3,2,6)              118.2156         estimate D2E/DX2                !
 ! A12   A(5,2,6)              118.2155         estimate D2E/DX2                !
 ! D1    D(4,1,2,3)             60.0055         estimate D2E/DX2                !
 ! D2    D(4,1,2,5)           -179.9926         estimate D2E/DX2                !
 ! D3    D(4,1,2,6)            -59.9939         estimate D2E/DX2                !
 ! D4    D(7,1,2,3)           -179.9987         estimate D2E/DX2                !
 ! D5    D(7,1,2,5)            -59.9967         estimate D2E/DX2                !
 ! D6    D(7,1,2,6)             60.002          estimate D2E/DX2                !
 ! D7    D(8,1,2,3)            -59.9927         estimate D2E/DX2                !
 ! D8    D(8,1,2,5)             60.0092         estimate D2E/DX2                !
 ! D9    D(8,1,2,6)           -179.9921         estimate D2E/DX2                !
 --------------------------------------------------------------------------------
 Trust Radius=3.00D-01 FncErr=1.00D-07 GrdErr=1.00D-07 EigMax=2.50D+02 EigMin=1.00D-04
 Number of steps in this run=     43 maximum allowed number of steps=    100.
 GradGradGradGradGradGradGradGradGradGradGradGradGradGradGradGradGradGrad

 Leave Link  103 at Mon Apr 21 20:13:23 2025, MaxMem=   536870912 cpu:               0.3 elap:               0.3
 (Enter /home/szhao/Apps/g16/l202.exe)
                          Input orientation:                          
 ---------------------------------------------------------------------
 Center     Atomic      Atomic             Coordinates (Angstroms)
 Number     Number       Type             X           Y           Z
 ---------------------------------------------------------------------
      1         14           0       -1.626292    0.000000    0.000000
      2         14           0        1.626292    0.000000    0.000000
      3          1           0        1.824372   -1.454024    0.000000
      4          1           0       -1.823694   -0.726942    1.259381
      5          1           0        1.824306    0.727060   -1.259209
      6          1           0        1.823433    0.727070    1.259353
      7          1           0       -1.824404    1.454020   -0.000034
      8          1           0       -1.824016   -0.727201   -1.259181
 ---------------------------------------------------------------------
                    Distance matrix (angstroms):
                    1          2          3          4          5
     1  Si   0.000000
     2  Si   3.252584   0.000000
     3  H    3.744498   1.467454   0.000000
     4  H    1.467464   3.743913   3.927222   0.000000
     5  H    3.744443   1.467458   2.518479   4.665332   0.000000
     6  H    3.743689   1.467470   2.518560   3.926282   2.518563
     7  H    1.467454   3.744526   4.665863   2.518475   3.927731
     8  H    1.467465   3.744193   3.927409   2.518561   3.927484
                    6          7          8
     6  H    0.000000
     7  H    3.926987   0.000000
     8  H    4.664955   2.518566   0.000000
 Symmetry turned off by external request.
 Stoichiometry    H6Si2(1+,2)
 Framework group  C1[X(H6Si2)]
 Deg. of freedom    18
 Full point group                 C1      NOp   1
 Rotational constants (GHZ):          39.5281440           2.8961640           2.8961544
 Leave Link  202 at Mon Apr 21 20:13:24 2025, MaxMem=   536870912 cpu:               1.0 elap:               0.4
 (Enter /home/szhao/Apps/g16/l301.exe)
 Standard basis: 6-311+G(d,p) (5D, 7F)
 Ernie: Thresh=  0.10000D-02 Tol=  0.10000D-05 Strict=F.
    96 basis functions,   148 primitive gaussians,    98 cartesian basis functions
    17 alpha electrons       16 beta electrons
       nuclear repulsion energy        76.4604627288 Hartrees.
 IExCor= 4336 DFT=T Ex+Corr=M062X ExCW=0 ScaHFX=  0.540000
 ScaDFX=  1.000000  1.000000  1.000000  1.000000 ScalE2=  1.000000  1.000000
 IRadAn=      7 IRanWt=     -1 IRanGd=            0 ICorTp=0 IEmpDi=  4
 NAtoms=    8 NActive=    8 NUniq=    8 SFac= 1.00D+00 NAtFMM=   60 NAOKFM=F Big=F
 Integral buffers will be    131072 words long.
 Raffenetti 2 integral format.
 Two-electron integral symmetry is turned off.
 Leave Link  301 at Mon Apr 21 20:13:25 2025, MaxMem=   536870912 cpu:               2.3 elap:               0.7
 (Enter /home/szhao/Apps/g16/l302.exe)
 NPDir=0 NMtPBC=     1 NCelOv=     1 NCel=       1 NClECP=     1 NCelD=      1
         NCelK=      1 NCelE2=     1 NClLst=     1 CellRange=     0.0.
 One-electron integrals computed using PRISM.
 NBasis=    96 RedAO= T EigKep=  3.83D-03  NBF=    96
 NBsUse=    96 1.00D-06 EigRej= -1.00D+00 NBFU=    96
 Precomputing XC quadrature grid using
 IXCGrd= 4 IRadAn=           7 IRanWt=          -1 IRanGd=           0 AccXCQ= 0.00D+00.
 Generated NRdTot=       0 NPtTot=           0 NUsed=           0 NTot=          32
 NSgBfM=    94    94    94    94    94 MxSgAt=     8 MxSgA2=     8.
 Leave Link  302 at Mon Apr 21 20:13:26 2025, MaxMem=   536870912 cpu:               2.4 elap:               0.5
 (Enter /home/szhao/Apps/g16/l303.exe)
 DipDrv:  MaxL=1.
 Leave Link  303 at Mon Apr 21 20:13:27 2025, MaxMem=   536870912 cpu:               1.7 elap:               0.4
 (Enter /home/szhao/Apps/g16/l401.exe)
 ExpMin= 3.31D-02 ExpMax= 6.94D+04 ExpMxC= 2.33D+03 IAcc=3 IRadAn=         7 AccDes= 0.00D+00
 Harris functional with IExCor= 1009 and IRadAn=       7 diagonalized for initial guess.
 HarFok:  IExCor= 1009 AccDes= 0.00D+00 IRadAn=         7 IDoV= 1 UseB2=F ITyADJ=14
 ICtDFT=  3500011 ScaDFX=  1.000000  1.000000  1.000000  1.000000
 FoFCou: FMM=F IPFlag=           0 FMFlag=      100000 FMFlg1=           0
         NFxFlg=           0 DoJE=T BraDBF=F KetDBF=T FulRan=T
         wScrn=  0.000000 ICntrl=       500 IOpCl=  0 I1Cent=   200000004 NGrid=           0
         NMat0=    1 NMatS0=      1 NMatT0=    0 NMatD0=    1 NMtDS0=    0 NMtDT0=    0
 Symmetry not used in FoFCou.
 Harris En= -581.925890526616    
 JPrj=0 DoOrth=F DoCkMO=F.
 Initial guess <Sx>= 0.0000 <Sy>= 0.0000 <Sz>= 0.5000 <S**2>= 0.7500 S= 0.5000
 Leave Link  401 at Mon Apr 21 20:13:28 2025, MaxMem=   536870912 cpu:               4.6 elap:               0.7
 (Enter /home/szhao/Apps/g16/l502.exe)
 Keep R1 and R2 ints in memory in canonical form, NReq=29092346.
 FoFCou: FMM=F IPFlag=           0 FMFlag=           0 FMFlg1=           0
         NFxFlg=           0 DoJE=F BraDBF=F KetDBF=F FulRan=T
         wScrn=  0.000000 ICntrl=       600 IOpCl=  0 I1Cent=           0 NGrid=           0
         NMat0=    1 NMatS0=   4656 NMatT0=    0 NMatD0=    1 NMtDS0=    0 NMtDT0=    0
 Symmetry not used in FoFCou.
 Two-electron integral symmetry not used.
 UHF open shell SCF:
 Using DIIS extrapolation, IDIIS=  1040.
 NGot=   536870912 LenX=   515167018 LenY=   515156973
 Requested convergence on RMS density matrix=1.00D-08 within 128 cycles.
 Requested convergence on MAX density matrix=1.00D-06.
 Requested convergence on             energy=1.00D-06.
 No special actions if energy rises.

 Cycle   1  Pass 1  IDiag  1:
 E= -582.128689616025    
 DIIS: error= 2.85D-02 at cycle   1 NSaved=   1.
 NSaved= 1 IEnMin= 1 EnMin= -582.128689616025     IErMin= 1 ErrMin= 2.85D-02
 ErrMax= 2.85D-02  0.00D+00 EMaxC= 1.00D-01 BMatC= 2.31D-01 BMatP= 2.31D-01
 IDIUse=3 WtCom= 7.15D-01 WtEn= 2.85D-01
 Coeff-Com:  0.100D+01
 Coeff-En:   0.100D+01
 Coeff:      0.100D+01
 Gap=     0.242 Goal=   None    Shift=    0.000
 Gap=     0.279 Goal=   None    Shift=    0.000
 GapD=    0.242 DampG=1.000 DampE=0.500 DampFc=0.5000 IDamp=-1.
 Damping current iteration by 5.00D-01
 RMSDP=2.95D-03 MaxDP=7.86D-02              OVMax= 1.01D-01

 Cycle   2  Pass 1  IDiag  1:
 E= -582.149017618773     Delta-E=       -0.020328002749 Rises=F Damp=T
 DIIS: error= 1.44D-02 at cycle   2 NSaved=   2.
 NSaved= 2 IEnMin= 2 EnMin= -582.149017618773     IErMin= 2 ErrMin= 1.44D-02
 ErrMax= 1.44D-02  0.00D+00 EMaxC= 1.00D-01 BMatC= 4.00D-02 BMatP= 2.31D-01
 IDIUse=3 WtCom= 8.56D-01 WtEn= 1.44D-01
 Coeff-Com: -0.523D+00 0.152D+01
 Coeff-En:   0.000D+00 0.100D+01
 Coeff:     -0.447D+00 0.145D+01
 Gap=     0.233 Goal=   None    Shift=    0.000
 Gap=     0.310 Goal=   None    Shift=    0.000
 RMSDP=1.03D-03 MaxDP=2.63D-02 DE=-2.03D-02 OVMax= 2.96D-02

 Cycle   3  Pass 1  IDiag  1:
 E= -582.166681175755     Delta-E=       -0.017663556982 Rises=F Damp=F
 DIIS: error= 1.20D-03 at cycle   3 NSaved=   3.
 NSaved= 3 IEnMin= 3 EnMin= -582.166681175755     IErMin= 3 ErrMin= 1.20D-03
 ErrMax= 1.20D-03  0.00D+00 EMaxC= 1.00D-01 BMatC= 4.28D-04 BMatP= 4.00D-02
 IDIUse=3 WtCom= 9.88D-01 WtEn= 1.20D-02
 Coeff-Com: -0.834D-01 0.156D+00 0.927D+00
 Coeff-En:   0.000D+00 0.000D+00 0.100D+01
 Coeff:     -0.824D-01 0.154D+00 0.928D+00
 Gap=     0.233 Goal=   None    Shift=    0.000
 Gap=     0.313 Goal=   None    Shift=    0.000
 RMSDP=1.52D-04 MaxDP=4.22D-03 DE=-1.77D-02 OVMax= 5.97D-03

 Cycle   4  Pass 1  IDiag  1:
 E= -582.166773030530     Delta-E=       -0.000091854776 Rises=F Damp=F
 DIIS: error= 4.08D-04 at cycle   4 NSaved=   4.
 NSaved= 4 IEnMin= 4 EnMin= -582.166773030530     IErMin= 4 ErrMin= 4.08D-04
 ErrMax= 4.08D-04  0.00D+00 EMaxC= 1.00D-01 BMatC= 1.44D-05 BMatP= 4.28D-04
 IDIUse=3 WtCom= 9.96D-01 WtEn= 4.08D-03
 Coeff-Com:  0.137D-02-0.537D-02-0.779D-01 0.108D+01
 Coeff-En:   0.000D+00 0.000D+00 0.000D+00 0.100D+01
 Coeff:      0.137D-02-0.534D-02-0.776D-01 0.108D+01
 Gap=     0.233 Goal=   None    Shift=    0.000
 Gap=     0.315 Goal=   None    Shift=    0.000
 RMSDP=6.05D-05 MaxDP=1.55D-03 DE=-9.19D-05 OVMax= 2.73D-03

 Cycle   5  Pass 1  IDiag  1:
 E= -582.166786663503     Delta-E=       -0.000013632972 Rises=F Damp=F
 DIIS: error= 1.93D-04 at cycle   5 NSaved=   5.
 NSaved= 5 IEnMin= 5 EnMin= -582.166786663503     IErMin= 5 ErrMin= 1.93D-04
 ErrMax= 1.93D-04  0.00D+00 EMaxC= 1.00D-01 BMatC= 2.03D-06 BMatP= 1.44D-05
 IDIUse=3 WtCom= 9.98D-01 WtEn= 1.93D-03
 Coeff-Com:  0.103D-01-0.190D-01-0.768D-01-0.241D+00 0.133D+01
 Coeff-En:   0.000D+00 0.000D+00 0.000D+00 0.000D+00 0.100D+01
 Coeff:      0.102D-01-0.189D-01-0.767D-01-0.241D+00 0.133D+01
 Gap=     0.233 Goal=   None    Shift=    0.000
 Gap=     0.315 Goal=   None    Shift=    0.000
 RMSDP=2.97D-05 MaxDP=8.28D-04 DE=-1.36D-05 OVMax= 1.80D-03

 Cycle   6  Pass 1  IDiag  1:
 E= -582.166789221859     Delta-E=       -0.000002558356 Rises=F Damp=F
 DIIS: error= 1.97D-05 at cycle   6 NSaved=   6.
 NSaved= 6 IEnMin= 6 EnMin= -582.166789221859     IErMin= 6 ErrMin= 1.97D-05
 ErrMax= 1.97D-05  0.00D+00 EMaxC= 1.00D-01 BMatC= 7.52D-08 BMatP= 2.03D-06
 IDIUse=1 WtCom= 1.00D+00 WtEn= 0.00D+00
 Coeff-Com: -0.229D-02 0.431D-02 0.202D-01-0.199D-01-0.221D+00 0.122D+01
 Coeff:     -0.229D-02 0.431D-02 0.202D-01-0.199D-01-0.221D+00 0.122D+01
 Gap=     0.233 Goal=   None    Shift=    0.000
 Gap=     0.315 Goal=   None    Shift=    0.000
 RMSDP=3.63D-06 MaxDP=1.02D-04 DE=-2.56D-06 OVMax= 2.09D-04

 Cycle   7  Pass 1  IDiag  1:
 E= -582.166789302666     Delta-E=       -0.000000080807 Rises=F Damp=F
 DIIS: error= 3.70D-06 at cycle   7 NSaved=   7.
 NSaved= 7 IEnMin= 7 EnMin= -582.166789302666     IErMin= 7 ErrMin= 3.70D-06
 ErrMax= 3.70D-06  0.00D+00 EMaxC= 1.00D-01 BMatC= 2.72D-09 BMatP= 7.52D-08
 IDIUse=1 WtCom= 1.00D+00 WtEn= 0.00D+00
 Coeff-Com: -0.171D-03 0.314D-03 0.867D-03 0.178D-01-0.443D-01-0.158D+00
 Coeff-Com:  0.118D+01
 Coeff:     -0.171D-03 0.314D-03 0.867D-03 0.178D-01-0.443D-01-0.158D+00
 Coeff:      0.118D+01
 Gap=     0.233 Goal=   None    Shift=    0.000
 Gap=     0.315 Goal=   None    Shift=    0.000
 RMSDP=7.46D-07 MaxDP=1.85D-05 DE=-8.08D-08 OVMax= 4.06D-05

 Cycle   8  Pass 1  IDiag  1:
 E= -582.166789305306     Delta-E=       -0.000000002640 Rises=F Damp=F
 DIIS: error= 4.46D-07 at cycle   8 NSaved=   8.
 NSaved= 8 IEnMin= 8 EnMin= -582.166789305306     IErMin= 8 ErrMin= 4.46D-07
 ErrMax= 4.46D-07  0.00D+00 EMaxC= 1.00D-01 BMatC= 3.27D-11 BMatP= 2.72D-09
 IDIUse=1 WtCom= 1.00D+00 WtEn= 0.00D+00
 Coeff-Com:  0.212D-04-0.372D-04-0.221D-03-0.781D-03 0.436D-02 0.194D-02
 Coeff-Com: -0.123D+00 0.112D+01
 Coeff:      0.212D-04-0.372D-04-0.221D-03-0.781D-03 0.436D-02 0.194D-02
 Coeff:     -0.123D+00 0.112D+01
 Gap=     0.233 Goal=   None    Shift=    0.000
 Gap=     0.315 Goal=   None    Shift=    0.000
 RMSDP=6.38D-08 MaxDP=1.01D-06 DE=-2.64D-09 OVMax= 2.53D-06

 Cycle   9  Pass 1  IDiag  1:
 E= -582.166789305328     Delta-E=       -0.000000000022 Rises=F Damp=F
 DIIS: error= 1.23D-07 at cycle   9 NSaved=   9.
 NSaved= 9 IEnMin= 9 EnMin= -582.166789305328     IErMin= 9 ErrMin= 1.23D-07
 ErrMax= 1.23D-07  0.00D+00 EMaxC= 1.00D-01 BMatC= 1.39D-12 BMatP= 3.27D-11
 IDIUse=1 WtCom= 1.00D+00 WtEn= 0.00D+00
 Coeff-Com:  0.102D-04-0.191D-04-0.604D-04-0.527D-03 0.176D-02 0.226D-02
 Coeff-Com: -0.369D-01 0.141D+00 0.893D+00
 Coeff:      0.102D-04-0.191D-04-0.604D-04-0.527D-03 0.176D-02 0.226D-02
 Coeff:     -0.369D-01 0.141D+00 0.893D+00
 Gap=     0.233 Goal=   None    Shift=    0.000
 Gap=     0.315 Goal=   None    Shift=    0.000
 RMSDP=1.68D-08 MaxDP=5.61D-07 DE=-2.19D-11 OVMax= 7.61D-07

 Cycle  10  Pass 1  IDiag  1:
 E= -582.166789305329     Delta-E=       -0.000000000001 Rises=F Damp=F
 DIIS: error= 2.28D-08 at cycle  10 NSaved=  10.
 NSaved=10 IEnMin=10 EnMin= -582.166789305329     IErMin=10 ErrMin= 2.28D-08
 ErrMax= 2.28D-08  0.00D+00 EMaxC= 1.00D-01 BMatC= 7.34D-14 BMatP= 1.39D-12
 IDIUse=1 WtCom= 1.00D+00 WtEn= 0.00D+00
 Coeff-Com: -0.215D-05 0.380D-05 0.200D-04 0.884D-04-0.395D-03-0.248D-03
 Coeff-Com:  0.927D-02-0.702D-01-0.167D-01 0.108D+01
 Coeff:     -0.215D-05 0.380D-05 0.200D-04 0.884D-04-0.395D-03-0.248D-03
 Coeff:      0.927D-02-0.702D-01-0.167D-01 0.108D+01
 Gap=     0.233 Goal=   None    Shift=    0.000
 Gap=     0.315 Goal=   None    Shift=    0.000
 RMSDP=3.60D-09 MaxDP=1.09D-07 DE=-1.25D-12 OVMax= 1.26D-07

 SCF Done:  E(UM062X) =  -582.166789305     A.U. after   10 cycles
            NFock= 10  Conv=0.36D-08     -V/T= 2.0017
 <Sx>= 0.0000 <Sy>= 0.0000 <Sz>= 0.5000 <S**2>= 0.7531 S= 0.5016
 <L.S>=  0.00000000000    
 KE= 5.812009975922D+02 PE=-1.531661097951D+03 EE= 2.918328483247D+02
 Annihilation of the first spin contaminant:
 S**2 before annihilation     0.7531,   after     0.7500
 Leave Link  502 at Mon Apr 21 20:13:43 2025, MaxMem=   536870912 cpu:             103.8 elap:              13.9
 (Enter /home/szhao/Apps/g16/l601.exe)
 Copying SCF densities to generalized density rwf, IOpCl= 1 IROHF=0.

 **********************************************************************

            Population analysis using the SCF density.

 **********************************************************************

 Alpha  occ. eigenvalues --  -67.23847 -67.23847  -5.78681  -5.78681  -4.10371
 Alpha  occ. eigenvalues --   -4.10369  -4.09559  -4.09559  -4.09559  -4.09559
 Alpha  occ. eigenvalues --   -0.83761  -0.81322  -0.63169  -0.63168  -0.62250
 Alpha  occ. eigenvalues --   -0.62250  -0.48722
 Alpha virt. eigenvalues --   -0.25384  -0.14706  -0.11762  -0.11727  -0.11724
 Alpha virt. eigenvalues --   -0.10295  -0.10293  -0.09785  -0.08697  -0.08697
 Alpha virt. eigenvalues --   -0.07687  -0.06485  -0.06485  -0.03586   0.00879
 Alpha virt. eigenvalues --    0.11951   0.11951   0.12745   0.14196   0.14196
 Alpha virt. eigenvalues --    0.15882   0.17816   0.21385   0.21388   0.25576
 Alpha virt. eigenvalues --    0.25577   0.29674   0.33996   0.35678   0.35679
 Alpha virt. eigenvalues --    0.36683   0.38477   0.38478   0.53777   0.58631
 Alpha virt. eigenvalues --    0.67287   0.67290   0.69411   0.69413   0.94970
 Alpha virt. eigenvalues --    0.98686   0.98688   1.03335   1.03336   1.06638
 Alpha virt. eigenvalues --    1.11592   1.11594   1.27930   1.28075   1.28076
 Alpha virt. eigenvalues --    1.28301   1.28304   1.38088   1.41906   1.41910
 Alpha virt. eigenvalues --    1.42657   1.42659   1.69335   1.69934   1.92949
 Alpha virt. eigenvalues --    1.92952   1.93158   1.93161   2.39748   2.39750
 Alpha virt. eigenvalues --    2.44474   2.44478   2.45848   2.52527   5.37510
 Alpha virt. eigenvalues --    5.44167  11.19098  11.29525  11.38421  11.38421
 Alpha virt. eigenvalues --   11.38976  11.38977 140.96361 141.04807
  Beta  occ. eigenvalues --  -67.23587 -67.23587  -5.78610  -5.78609  -4.09729
  Beta  occ. eigenvalues --   -4.09729  -4.09473  -4.09473  -4.09473  -4.09473
  Beta  occ. eigenvalues --   -0.81310  -0.79861  -0.62782  -0.62781  -0.61996
  Beta  occ. eigenvalues --   -0.61995
  Beta virt. eigenvalues --   -0.30447  -0.20365  -0.14630  -0.11784  -0.11781
  Beta virt. eigenvalues --   -0.10866  -0.10380  -0.10378  -0.09571  -0.08079
  Beta virt. eigenvalues --   -0.08079  -0.06283  -0.06282  -0.06184  -0.03206
  Beta virt. eigenvalues --    0.01364   0.11090   0.11091   0.12176   0.14320
  Beta virt. eigenvalues --    0.14320   0.15495   0.18077   0.21670   0.21673
  Beta virt. eigenvalues --    0.25506   0.25507   0.29433   0.34373   0.36853
  Beta virt. eigenvalues --    0.38938   0.38940   0.41133   0.41135   0.57609
  Beta virt. eigenvalues --    0.62422   0.68193   0.68197   0.70260   0.70261
  Beta virt. eigenvalues --    0.97309   0.99343   0.99346   1.04189   1.04190
  Beta virt. eigenvalues --    1.07887   1.11803   1.11805   1.28509   1.28948
  Beta virt. eigenvalues --    1.28949   1.29229   1.29232   1.38747   1.42443
  Beta virt. eigenvalues --    1.42447   1.43148   1.43151   1.70236   1.70845
  Beta virt. eigenvalues --    1.94018   1.94021   1.94212   1.94215   2.40443
  Beta virt. eigenvalues --    2.40445   2.45097   2.45101   2.46207   2.52938
  Beta virt. eigenvalues --    5.38973   5.45535  11.21199  11.31486  11.39067
  Beta virt. eigenvalues --   11.39068  11.39630  11.39630 140.96836 141.05279
          Condensed to atoms (all electrons):
               1          2          3          4          5          6
     1  Si  12.283793   0.159745  -0.008967   0.361418  -0.008963  -0.008969
     2  Si   0.159745  12.283793   0.361443  -0.008971   0.361431   0.361403
     3  H   -0.008967   0.361443   0.678377   0.000221  -0.015994  -0.015991
     4  H    0.361418  -0.008971   0.000221   0.678427   0.000372   0.000222
     5  H   -0.008963   0.361431  -0.015994   0.000372   0.678393  -0.015990
     6  H   -0.008969   0.361403  -0.015991   0.000222  -0.015990   0.678443
     7  H    0.361444  -0.008966   0.000371  -0.015995   0.000221   0.000221
     8  H    0.361415  -0.008962   0.000221  -0.015990   0.000221   0.000372
               7          8
     1  Si   0.361444   0.361415
     2  Si  -0.008966  -0.008962
     3  H    0.000371   0.000221
     4  H   -0.015995  -0.015990
     5  H    0.000221   0.000221
     6  H    0.000221   0.000372
     7  H    0.678376  -0.015990
     8  H   -0.015990   0.678411
          Atomic-Atomic Spin Densities.
               1          2          3          4          5          6
     1  Si   0.472828   0.159201  -0.009536  -0.019964  -0.009539  -0.009551
     2  Si   0.159201   0.472828  -0.019955  -0.009546  -0.019960  -0.019967
     3  H   -0.009536  -0.019955   0.004609   0.000623   0.004485   0.004486
     4  H   -0.019964  -0.009546   0.000623   0.004645   0.000146   0.000624
     5  H   -0.009539  -0.019960   0.004485   0.000146   0.004621   0.004487
     6  H   -0.009551  -0.019967   0.004486   0.000624   0.004487   0.004662
     7  H   -0.019955  -0.009536   0.000146   0.004486   0.000622   0.000623
     8  H   -0.019963  -0.009543   0.000623   0.004487   0.000623   0.000146
               7          8
     1  Si  -0.019955  -0.019963
     2  Si  -0.009536  -0.009543
     3  H    0.000146   0.000623
     4  H    0.004486   0.004487
     5  H    0.000622   0.000623
     6  H    0.000623   0.000146
     7  H    0.004608   0.004486
     8  H    0.004486   0.004639
 Mulliken charges and spin densities:
               1          2
     1  Si   0.499084   0.543522
     2  Si   0.499084   0.543522
     3  H    0.000317  -0.014519
     4  H    0.000296  -0.014500
     5  H    0.000310  -0.014514
     6  H    0.000289  -0.014489
     7  H    0.000318  -0.014520
     8  H    0.000302  -0.014502
 Sum of Mulliken charges =   1.00000   1.00000
 Mulliken charges and spin densities with hydrogens summed into heavy atoms:
               1          2
     1  Si   0.500000   0.500000
     2  Si   0.500000   0.500000
 Electronic spatial extent (au):  <R**2>=            425.9644
 Charge=              1.0000 electrons
 Dipole moment (field-independent basis, Debye):
    X=              0.0000    Y=              0.0000    Z=             -0.0001  Tot=              0.0001
 Quadrupole moment (field-independent basis, Debye-Ang):
   XX=             -8.6394   YY=            -25.8885   ZZ=            -25.8886
   XY=             -0.0000   XZ=              0.0002   YZ=              0.0001
 Traceless Quadrupole moment (field-independent basis, Debye-Ang):
   XX=             11.4995   YY=             -5.7497   ZZ=             -5.7497
   XY=             -0.0000   XZ=              0.0002   YZ=              0.0001
 Octapole moment (field-independent basis, Debye-Ang**2):
  XXX=              0.0000  YYY=              0.0000  ZZZ=             -0.0007  XYY=             -0.0000
  XXY=             -0.0000  XXZ=              0.0003  XZZ=              0.0000  YZZ=              0.0000
  YYZ=             -0.0004  XYZ=             -0.0004
 Hexadecapole moment (field-independent basis, Debye-Ang**3):
 XXXX=           -379.7954 YYYY=            -66.2509 ZZZZ=            -66.2523 XXXY=              0.0046
 XXXZ=              0.0037 YYYX=             -2.3055 YYYZ=             -0.0002 ZZZX=              0.0014
 ZZZY=             -0.0004 XXYY=            -86.8134 XXZZ=            -86.8169 YYZZ=            -22.0837
 XXYZ=             -0.0005 YYXZ=              0.0008 ZZXY=              2.3073
 N-N= 7.646046272877D+01 E-N=-1.531661098054D+03  KE= 5.812009975922D+02
                          Isotropic Fermi Contact Couplings
        Atom                 a.u.       MegaHertz       Gauss      10(-4) cm-1
     1  Si(29)             0.04775     -42.44082     -15.14394     -14.15673
     2  Si(29)             0.04775     -42.44069     -15.14389     -14.15669
     3  H(1)              -0.00086      -3.83903      -1.36986      -1.28056
     4  H(1)              -0.00085      -3.80418      -1.35743      -1.26894
     5  H(1)              -0.00086      -3.82808      -1.36596      -1.27691
     6  H(1)              -0.00085      -3.78608      -1.35097      -1.26290
     7  H(1)              -0.00086      -3.84008      -1.37024      -1.28091
     8  H(1)              -0.00085      -3.80863      -1.35901      -1.27042
 --------------------------------------------------------
       Center         ----  Spin Dipole Couplings  ----
                      3XX-RR        3YY-RR        3ZZ-RR
 --------------------------------------------------------
     1   Atom        0.880882     -0.440389     -0.440492
     2   Atom        0.880881     -0.440389     -0.440492
     3   Atom        0.005336      0.008032     -0.013369
     4   Atom        0.005334     -0.008023      0.002689
     5   Atom        0.005336     -0.008021      0.002684
     6   Atom        0.005334     -0.008021      0.002687
     7   Atom        0.005336      0.008032     -0.013369
     8   Atom        0.005336     -0.008019      0.002683
 --------------------------------------------------------
                        XY            XZ            YZ
 --------------------------------------------------------
     1   Atom        0.000407     -0.000184     -0.000001
     2   Atom        0.000376      0.000518     -0.000008
     3   Atom       -0.004758      0.000004      0.000001
     4   Atom        0.002376     -0.004115     -0.009268
     5   Atom        0.002381     -0.004117     -0.009266
     6   Atom        0.002374      0.004113      0.009270
     7   Atom       -0.004759     -0.000002     -0.000000
     8   Atom        0.002380      0.004114      0.009269
 --------------------------------------------------------


 ---------------------------------------------------------------------------------
              Anisotropic Spin Dipole Couplings in Principal Axis System
 ---------------------------------------------------------------------------------

       Atom             a.u.   MegaHertz   Gauss  10(-4) cm-1        Axes

              Baa    -0.4405    46.729    16.674    15.587  0.0001  0.0088  1.0000
     1 Si(29) Bbb    -0.4404    46.718    16.670    15.584 -0.0003  1.0000 -0.0088
              Bcc     0.8809   -93.448   -33.344   -31.171  1.0000  0.0003 -0.0001
 
              Baa    -0.4405    46.729    16.674    15.587 -0.0004  0.0816  0.9967
     2 Si(29) Bbb    -0.4404    46.718    16.670    15.584 -0.0003  0.9967 -0.0816
              Bcc     0.8809   -93.447   -33.344   -31.171  1.0000  0.0003  0.0004
 
              Baa    -0.0134    -7.133    -2.545    -2.379 -0.0003 -0.0001  1.0000
     3 H(1)   Bbb     0.0017     0.928     0.331     0.309  0.7977  0.6031  0.0003
              Bcc     0.0116     6.205     2.214     2.070 -0.6031  0.7977 -0.0001
 
              Baa    -0.0134    -7.134    -2.546    -2.380 -0.0001  0.8661  0.4998
     4 H(1)   Bbb     0.0017     0.931     0.332     0.311  0.7980 -0.3012  0.5221
              Bcc     0.0116     6.203     2.213     2.069 -0.6027 -0.3989  0.6911
 
              Baa    -0.0134    -7.133    -2.545    -2.379 -0.0003  0.8661  0.4999
     5 H(1)   Bbb     0.0017     0.929     0.332     0.310  0.7977 -0.3012  0.5224
              Bcc     0.0116     6.204     2.214     2.069 -0.6030 -0.3989  0.6908
 
              Baa    -0.0134    -7.135    -2.546    -2.380  0.0000  0.8661 -0.4999
     6 H(1)   Bbb     0.0017     0.933     0.333     0.311  0.7981 -0.3012 -0.5219
              Bcc     0.0116     6.202     2.213     2.069  0.6026  0.3990  0.6912
 
              Baa    -0.0134    -7.133    -2.545    -2.379  0.0001  0.0001  1.0000
     7 H(1)   Bbb     0.0017     0.928     0.331     0.309  0.7977  0.6031 -0.0001
              Bcc     0.0116     6.205     2.214     2.070 -0.6031  0.7977  0.0000
 
              Baa    -0.0134    -7.134    -2.546    -2.380 -0.0002  0.8660 -0.5000
     8 H(1)   Bbb     0.0017     0.931     0.332     0.310  0.7978 -0.3013 -0.5222
              Bcc     0.0116     6.203     2.213     2.069  0.6029  0.3990  0.6909
 

 ---------------------------------------------------------------------------------

 No NMR shielding tensors so no spin-rotation constants.
 Leave Link  601 at Mon Apr 21 20:13:43 2025, MaxMem=   536870912 cpu:               2.2 elap:               0.3
 (Enter /home/szhao/Apps/g16/l701.exe)
 ... and contract with generalized density number  0.
 Compute integral first derivatives.
 Leave Link  701 at Mon Apr 21 20:13:44 2025, MaxMem=   536870912 cpu:               1.6 elap:               0.3
 (Enter /home/szhao/Apps/g16/l702.exe)
 L702 exits ... SP integral derivatives will be done elsewhere.
 Leave Link  702 at Mon Apr 21 20:13:44 2025, MaxMem=   536870912 cpu:               0.3 elap:               0.1
 (Enter /home/szhao/Apps/g16/l703.exe)
 Integral derivatives from FoFJK, PRISM(SPDF).
 Compute integral first derivatives, UseDBF=F ICtDFT=           0.
 Calling FoFJK, ICntrl=      2127 FMM=F ISym2X=0 I1Cent= 0 IOpClX= 1 NMat=1 NMatS=1 NMatT=0.
 FoFJK:  IHMeth= 1 ICntrl=    2127 DoSepK=F KAlg= 0 I1Cent=           0 FoldK=F
 IRaf=         0 NMat=       1 IRICut=       1 DoRegI=T DoRafI=F ISym2E= 0 IDoP0=0 IntGTp=1.
 FoFCou: FMM=F IPFlag=           0 FMFlag=      100000 FMFlg1=         800
         NFxFlg=           0 DoJE=F BraDBF=F KetDBF=F FulRan=T
         wScrn=  0.000000 ICntrl=      2127 IOpCl=  1 I1Cent=           0 NGrid=           0
         NMat0=    1 NMatS0=      1 NMatT0=    0 NMatD0=    1 NMtDS0=    0 NMtDT0=    0
 Symmetry not used in FoFCou.
 Leave Link  703 at Mon Apr 21 20:13:46 2025, MaxMem=   536870912 cpu:              13.3 elap:               2.0
 (Enter /home/szhao/Apps/g16/l716.exe)
 Dipole        = 1.71477693D-06 1.83326182D-06-2.07828827D-05
 -------------------------------------------------------------------
 Center     Atomic                   Forces (Hartrees/Bohr)
 Number     Number              X              Y              Z
 -------------------------------------------------------------------
      1       14          -0.000000000   -0.000000000   -0.000000000
      2       14          -0.000000000   -0.000000000   -0.000000000
      3        1          -0.001109817    0.000620983    0.000002738
      4        1           0.001100515    0.000310421   -0.000548270
      5        1          -0.001102581   -0.000309531    0.000546130
      6        1          -0.001097810   -0.000314509   -0.000549283
      7        1           0.001109931   -0.000620824   -0.000003432
      8        1           0.001099867    0.000313973    0.000547294
 -------------------------------------------------------------------
 Cartesian Forces:  Max     0.001109931 RMS     0.000634632
 Leave Link  716 at Mon Apr 21 20:13:47 2025, MaxMem=   536870912 cpu:               1.3 elap:               0.3
 (Enter /home/szhao/Apps/g16/l103.exe)

 GradGradGradGradGradGradGradGradGradGradGradGradGradGradGradGradGradGrad
 Berny optimization.
 FormGI is forming the generalized inverse of G from B-inverse, IUseBI=4.
 Internal  Forces:  Max     0.003310314 RMS     0.001396899
 Search for a local minimum.
 Step number   1 out of a maximum of   43
 All quantities printed in internal units (Hartrees-Bohrs-Radians)
 RMS Force = .12543D-02 SwitMx=.10000D-02 MixMth= 1
 Mixed Optimization -- RFO/linear search
 Second derivative matrix not updated -- first step.
 ITU=  0
     Eigenvalues ---    0.00230   0.07635   0.07635   0.07636   0.07637
     Eigenvalues ---    0.16000   0.16000   0.16000   0.16000   0.16000
     Eigenvalues ---    0.16000   0.18377   0.18377   0.18377   0.18378
     Eigenvalues ---    0.18378   0.183781000.000001000.000001000.00000
     Eigenvalues --- 1000.000001000.000001000.000001000.000001000.00000
     Eigenvalues --- 1000.000001000.000001000.000001000.000001000.00000
     Eigenvalues --- 1000.000001000.000001000.00000
 RFO step:  Lambda=-2.62182373D-04 EMin= 2.30000000D-03
 Linear search not attempted -- first point.
 Iteration  1 RMS(Cart)=  0.01719949 RMS(Int)=  0.00018619
 Iteration  2 RMS(Cart)=  0.00016790 RMS(Int)=  0.00013175
 Iteration  3 RMS(Cart)=  0.00000010 RMS(Int)=  0.00013175
 ITry= 1 IFail=0 DXMaxC= 4.09D-02 DCOld= 1.00D+10 DXMaxT= 3.00D-01 DXLimC= 3.00D+00 Rises=F
 Variable       Old X    -DE/DX   Delta X   Delta X   Delta X     New X
                                 (Linear)    (Quad)   (Total)
    X1       -3.07325   0.00331   0.00000   0.00000   0.00000  -3.07325
    Y1        0.00000   0.00001   0.00000   0.00000   0.00000   0.00000
    Z1        0.00000  -0.00000   0.00000   0.00000   0.00000   0.00000
    X2        3.07325  -0.00331   0.00000   0.00000   0.00000   3.07325
    Y2        0.00000  -0.00001   0.00000   0.00000   0.00000   0.00000
    Z2        0.00000  -0.00000   0.00000   0.00000   0.00000   0.00000
    R1        2.77311  -0.00077   0.00000  -0.00420  -0.00420   2.76891
    R2        2.77309  -0.00076   0.00000  -0.00416  -0.00416   2.76893
    R3        2.77311  -0.00077   0.00000  -0.00420  -0.00420   2.76890
    R4        2.77309  -0.00077   0.00000  -0.00416  -0.00416   2.76893
    R5        2.77309  -0.00077   0.00000  -0.00419  -0.00419   2.76891
    R6        2.77312  -0.00077   0.00000  -0.00421  -0.00421   2.76891
    A1        1.70572  -0.00231   0.00000  -0.01441  -0.01453   1.69120
    A2        1.70621  -0.00234   0.00000  -0.01458  -0.01470   1.69152
    A3        1.70595  -0.00231   0.00000  -0.01441  -0.01453   1.69142
    A4        2.06315   0.00106   0.00000   0.00663   0.00634   2.06949
    A5        2.06325   0.00105   0.00000   0.00653   0.00625   2.06950
    A6        2.06326   0.00105   0.00000   0.00657   0.00628   2.06955
    A7        1.70619  -0.00234   0.00000  -0.01458  -0.01470   1.69150
    A8        1.70615  -0.00232   0.00000  -0.01445  -0.01456   1.69158
    A9        1.70554  -0.00230   0.00000  -0.01437  -0.01449   1.69105
   A10        2.06316   0.00106   0.00000   0.00662   0.00634   2.06949
   A11        2.06325   0.00105   0.00000   0.00657   0.00629   2.06954
   A12        2.06325   0.00105   0.00000   0.00653   0.00625   2.06950
    D1        1.04729  -0.00000   0.00000  -0.00002  -0.00002   1.04727
    D2       -3.14146  -0.00000   0.00000  -0.00000  -0.00000  -3.14147
    D3       -1.04709  -0.00000   0.00000  -0.00002  -0.00002  -1.04711
    D4       -3.14157   0.00000   0.00000   0.00002   0.00002  -3.14155
    D5       -1.04714   0.00000   0.00000   0.00004   0.00004  -1.04711
    D6        1.04723   0.00000   0.00000   0.00002   0.00002   1.04725
    D7       -1.04707  -0.00000   0.00000  -0.00001  -0.00001  -1.04708
    D8        1.04736   0.00000   0.00000   0.00001   0.00001   1.04737
    D9       -3.14146  -0.00000   0.00000  -0.00001  -0.00001  -3.14146
         Item               Value     Threshold  Converged?
 Maximum Force            0.002337     0.000450     NO 
 RMS     Force            0.001254     0.000300     NO 
 Maximum Displacement     0.040924     0.001800     NO 
 RMS     Displacement     0.017324     0.001200     NO 
 Predicted change in Energy=-1.312578D-04
 Lowest energy point so far.  Saving SCF results.
 GradGradGradGradGradGradGradGradGradGradGradGradGradGradGradGradGradGrad

 Leave Link  103 at Mon Apr 21 20:13:48 2025, MaxMem=   536870912 cpu:               2.6 elap:               0.5
 (Enter /home/szhao/Apps/g16/l202.exe)
                          Input orientation:                          
 ---------------------------------------------------------------------
 Center     Atomic      Atomic             Coordinates (Angstroms)
 Number     Number       Type             X           Y           Z
 ---------------------------------------------------------------------
      1         14           0       -1.626292    0.000000    0.000000
      2         14           0        1.626292    0.000000    0.000000
      3          1           0        1.802719   -1.454594    0.000008
      4          1           0       -1.802281   -0.727216    1.259811
      5          1           0        1.802841    0.727340   -1.259660
      6          1           0        1.802075    0.727320    1.259778
      7          1           0       -1.802748    1.454591   -0.000070
      8          1           0       -1.802607   -0.727452   -1.259625
 ---------------------------------------------------------------------
                    Distance matrix (angstroms):
                    1          2          3          4          5
     1  Si   0.000000
     2  Si   3.252584   0.000000
     3  H    3.724777   1.465254   0.000000
     4  H    1.465243   3.724390   3.887442   0.000000
     5  H    3.724878   1.465242   2.519444   4.632534   0.000000
     6  H    3.724209   1.465242   2.519478   3.886780   2.519437
     7  H    1.465254   3.724802   4.632790   2.519440   3.887895
     8  H    1.465241   3.724674   3.887646   2.519436   3.887888
                    6          7          8
     6  H    0.000000
     7  H    3.887272   0.000000
     8  H    4.632223   2.519483   0.000000
 Symmetry turned off by external request.
 Stoichiometry    H6Si2(1+,2)
 Framework group  C1[X(H6Si2)]
 Deg. of freedom    18
 Full point group                 C1      NOp   1
 Rotational constants (GHZ):          39.4993137           2.9039273           2.9039227
 Leave Link  202 at Mon Apr 21 20:13:48 2025, MaxMem=   536870912 cpu:               0.2 elap:               0.1
 (Enter /home/szhao/Apps/g16/l301.exe)
 Standard basis: 6-311+G(d,p) (5D, 7F)
 Ernie: Thresh=  0.10000D-02 Tol=  0.10000D-05 Strict=F.
    96 basis functions,   148 primitive gaussians,    98 cartesian basis functions
    17 alpha electrons       16 beta electrons
       nuclear repulsion energy        76.5788942760 Hartrees.
 IExCor= 4336 DFT=T Ex+Corr=M062X ExCW=0 ScaHFX=  0.540000
 ScaDFX=  1.000000  1.000000  1.000000  1.000000 ScalE2=  1.000000  1.000000
 IRadAn=      7 IRanWt=     -1 IRanGd=            0 ICorTp=0 IEmpDi=  4
 NAtoms=    8 NActive=    8 NUniq=    8 SFac= 1.00D+00 NAtFMM=   60 NAOKFM=F Big=F
 Integral buffers will be    131072 words long.
 Raffenetti 2 integral format.
 Two-electron integral symmetry is turned off.
 Leave Link  301 at Mon Apr 21 20:13:48 2025, MaxMem=   536870912 cpu:               0.6 elap:               0.3
 (Enter /home/szhao/Apps/g16/l302.exe)
 NPDir=0 NMtPBC=     1 NCelOv=     1 NCel=       1 NClECP=     1 NCelD=      1
         NCelK=      1 NCelE2=     1 NClLst=     1 CellRange=     0.0.
 One-electron integrals computed using PRISM.
 NBasis=    96 RedAO= T EigKep=  3.86D-03  NBF=    96
 NBsUse=    96 1.00D-06 EigRej= -1.00D+00 NBFU=    96
 Precomputing XC quadrature grid using
 IXCGrd= 4 IRadAn=           7 IRanWt=          -1 IRanGd=           0 AccXCQ= 0.00D+00.
 Generated NRdTot=       0 NPtTot=           0 NUsed=           0 NTot=          32
 NSgBfM=    94    94    94    94    94 MxSgAt=     8 MxSgA2=     8.
 Leave Link  302 at Mon Apr 21 20:13:49 2025, MaxMem=   536870912 cpu:               1.7 elap:               0.4
 (Enter /home/szhao/Apps/g16/l303.exe)
 DipDrv:  MaxL=1.
 Leave Link  303 at Mon Apr 21 20:13:50 2025, MaxMem=   536870912 cpu:               1.0 elap:               0.4
 (Enter /home/szhao/Apps/g16/l401.exe)
 Initial guess from the checkpoint file:  "opt.chk"
 B after Tr=     0.000000    0.000000   -0.000004
         Rot=    1.000000    0.000000   -0.000000    0.000004 Ang=   0.00 deg.
 Guess basis will be translated and rotated to current coordinates.
 JPrj=2 DoOrth=T DoCkMO=T.
 Initial guess <Sx>= 0.0000 <Sy>= 0.0000 <Sz>= 0.5000 <S**2>= 0.7532 S= 0.5016
 Generating alternative initial guess.
 ExpMin= 3.31D-02 ExpMax= 6.94D+04 ExpMxC= 2.33D+03 IAcc=3 IRadAn=         5 AccDes= 0.00D+00
 Harris functional with IExCor= 1009 and IRadAn=       5 diagonalized for initial guess.
 HarFok:  IExCor= 1009 AccDes= 0.00D+00 IRadAn=         5 IDoV= 1 UseB2=F ITyADJ=14
 ICtDFT=  3500011 ScaDFX=  1.000000  1.000000  1.000000  1.000000
 FoFCou: FMM=F IPFlag=           0 FMFlag=      100000 FMFlg1=           0
         NFxFlg=           0 DoJE=T BraDBF=F KetDBF=T FulRan=T
         wScrn=  0.000000 ICntrl=       500 IOpCl=  0 I1Cent=   200000004 NGrid=           0
         NMat0=    1 NMatS0=      1 NMatT0=    0 NMatD0=    1 NMtDS0=    0 NMtDT0=    0
 Symmetry not used in FoFCou.
 Harris En= -581.924840050172    
 Leave Link  401 at Mon Apr 21 20:13:51 2025, MaxMem=   536870912 cpu:               5.6 elap:               1.3
 (Enter /home/szhao/Apps/g16/l502.exe)
 Keep R1 and R2 ints in memory in canonical form, NReq=29092346.
 FoFCou: FMM=F IPFlag=           0 FMFlag=           0 FMFlg1=           0
         NFxFlg=           0 DoJE=F BraDBF=F KetDBF=F FulRan=T
         wScrn=  0.000000 ICntrl=       600 IOpCl=  0 I1Cent=           0 NGrid=           0
         NMat0=    1 NMatS0=   4656 NMatT0=    0 NMatD0=    1 NMtDS0=    0 NMtDT0=    0
 Symmetry not used in FoFCou.
 Two-electron integral symmetry not used.
 UHF open shell SCF:
 Using DIIS extrapolation, IDIIS=  1040.
 NGot=   536870912 LenX=   515167018 LenY=   515156973
 Requested convergence on RMS density matrix=1.00D-08 within 128 cycles.
 Requested convergence on MAX density matrix=1.00D-06.
 Requested convergence on             energy=1.00D-06.
 No special actions if energy rises.

 Cycle   1  Pass 1  IDiag  1:
 E= -582.166892314766    
 DIIS: error= 8.32D-04 at cycle   1 NSaved=   1.
 NSaved= 1 IEnMin= 1 EnMin= -582.166892314766     IErMin= 1 ErrMin= 8.32D-04
 ErrMax= 8.32D-04  0.00D+00 EMaxC= 1.00D-01 BMatC= 1.06D-04 BMatP= 1.06D-04
 IDIUse=3 WtCom= 9.92D-01 WtEn= 8.32D-03
 Coeff-Com:  0.100D+01
 Coeff-En:   0.100D+01
 Coeff:      0.100D+01
 Gap=     0.452 Goal=   None    Shift=    0.000
 Gap=     0.491 Goal=   None    Shift=    0.000
 RMSDP=8.59D-05 MaxDP=2.01D-03              OVMax= 6.23D-03

 Cycle   2  Pass 1  IDiag  1:
 E= -582.166945254520     Delta-E=       -0.000052939754 Rises=F Damp=F
 DIIS: error= 3.10D-04 at cycle   2 NSaved=   2.
 NSaved= 2 IEnMin= 2 EnMin= -582.166945254520     IErMin= 2 ErrMin= 3.10D-04
 ErrMax= 3.10D-04  0.00D+00 EMaxC= 1.00D-01 BMatC= 3.88D-06 BMatP= 1.06D-04
 IDIUse=3 WtCom= 9.97D-01 WtEn= 3.10D-03
 Coeff-Com: -0.975D-01 0.110D+01
 Coeff-En:   0.000D+00 0.100D+01
 Coeff:     -0.972D-01 0.110D+01
 Gap=     0.231 Goal=   None    Shift=    0.000
 Gap=     0.318 Goal=   None    Shift=    0.000
 RMSDP=4.44D-05 MaxDP=1.28D-03 DE=-5.29D-05 OVMax= 2.92D-03

 Cycle   3  Pass 1  IDiag  1:
 E= -582.166949700994     Delta-E=       -0.000004446474 Rises=F Damp=F
 DIIS: error= 7.19D-05 at cycle   3 NSaved=   3.
 NSaved= 3 IEnMin= 3 EnMin= -582.166949700994     IErMin= 3 ErrMin= 7.19D-05
 ErrMax= 7.19D-05  0.00D+00 EMaxC= 1.00D-01 BMatC= 6.49D-07 BMatP= 3.88D-06
 IDIUse=1 WtCom= 1.00D+00 WtEn= 0.00D+00
 Coeff-Com: -0.354D-01 0.104D+00 0.931D+00
 Coeff:     -0.354D-01 0.104D+00 0.931D+00
 Gap=     0.231 Goal=   None    Shift=    0.000
 Gap=     0.318 Goal=   None    Shift=    0.000
 RMSDP=1.22D-05 MaxDP=3.63D-04 DE=-4.45D-06 OVMax= 7.06D-04

 Cycle   4  Pass 1  IDiag  1:
 E= -582.166950270528     Delta-E=       -0.000000569534 Rises=F Damp=F
 DIIS: error= 3.61D-05 at cycle   4 NSaved=   4.
 NSaved= 4 IEnMin= 4 EnMin= -582.166950270528     IErMin= 4 ErrMin= 3.61D-05
 ErrMax= 3.61D-05  0.00D+00 EMaxC= 1.00D-01 BMatC= 9.42D-08 BMatP= 6.49D-07
 IDIUse=1 WtCom= 1.00D+00 WtEn= 0.00D+00
 Coeff-Com:  0.136D-01-0.154D+00-0.166D+00 0.131D+01
 Coeff:      0.136D-01-0.154D+00-0.166D+00 0.131D+01
 Gap=     0.231 Goal=   None    Shift=    0.000
 Gap=     0.318 Goal=   None    Shift=    0.000
 RMSDP=9.84D-06 MaxDP=2.91D-04 DE=-5.70D-07 OVMax= 5.49D-04

 Cycle   5  Pass 1  IDiag  1:
 E= -582.166950413789     Delta-E=       -0.000000143261 Rises=F Damp=F
 DIIS: error= 8.59D-06 at cycle   5 NSaved=   5.
 NSaved= 5 IEnMin= 5 EnMin= -582.166950413789     IErMin= 5 ErrMin= 8.59D-06
 ErrMax= 8.59D-06  0.00D+00 EMaxC= 1.00D-01 BMatC= 4.99D-09 BMatP= 9.42D-08
 IDIUse=1 WtCom= 1.00D+00 WtEn= 0.00D+00
 Coeff-Com:  0.102D-02 0.765D-02-0.410D-01-0.120D+00 0.115D+01
 Coeff:      0.102D-02 0.765D-02-0.410D-01-0.120D+00 0.115D+01
 Gap=     0.231 Goal=   None    Shift=    0.000
 Gap=     0.318 Goal=   None    Shift=    0.000
 RMSDP=1.22D-06 MaxDP=2.70D-05 DE=-1.43D-07 OVMax= 6.72D-05

 Cycle   6  Pass 1  IDiag  1:
 E= -582.166950419166     Delta-E=       -0.000000005377 Rises=F Damp=F
 DIIS: error= 1.85D-06 at cycle   6 NSaved=   6.
 NSaved= 6 IEnMin= 6 EnMin= -582.166950419166     IErMin= 6 ErrMin= 1.85D-06
 ErrMax= 1.85D-06  0.00D+00 EMaxC= 1.00D-01 BMatC= 2.65D-10 BMatP= 4.99D-09
 IDIUse=1 WtCom= 1.00D+00 WtEn= 0.00D+00
 Coeff-Com: -0.748D-03 0.892D-02 0.160D-01-0.852D-01-0.641D-01 0.113D+01
 Coeff:     -0.748D-03 0.892D-02 0.160D-01-0.852D-01-0.641D-01 0.113D+01
 Gap=     0.231 Goal=   None    Shift=    0.000
 Gap=     0.318 Goal=   None    Shift=    0.000
 RMSDP=2.18D-07 MaxDP=5.15D-06 DE=-5.38D-09 OVMax= 1.59D-05

 Cycle   7  Pass 1  IDiag  1:
 E= -582.166950419407     Delta-E=       -0.000000000241 Rises=F Damp=F
 DIIS: error= 2.29D-07 at cycle   7 NSaved=   7.
 NSaved= 7 IEnMin= 7 EnMin= -582.166950419407     IErMin= 7 ErrMin= 2.29D-07
 ErrMax= 2.29D-07  0.00D+00 EMaxC= 1.00D-01 BMatC= 8.47D-12 BMatP= 2.65D-10
 IDIUse=1 WtCom= 1.00D+00 WtEn= 0.00D+00
 Coeff-Com:  0.319D-04-0.119D-02 0.365D-02 0.550D-02-0.393D-01-0.382D-01
 Coeff-Com:  0.107D+01
 Coeff:      0.319D-04-0.119D-02 0.365D-02 0.550D-02-0.393D-01-0.382D-01
 Coeff:      0.107D+01
 Gap=     0.231 Goal=   None    Shift=    0.000
 Gap=     0.318 Goal=   None    Shift=    0.000
 RMSDP=4.16D-08 MaxDP=1.16D-06 DE=-2.41D-10 OVMax= 1.88D-06

 Cycle   8  Pass 1  IDiag  1:
 E= -582.166950419411     Delta-E=       -0.000000000004 Rises=F Damp=F
 DIIS: error= 2.07D-08 at cycle   8 NSaved=   8.
 NSaved= 8 IEnMin= 8 EnMin= -582.166950419411     IErMin= 8 ErrMin= 2.07D-08
 ErrMax= 2.07D-08  0.00D+00 EMaxC= 1.00D-01 BMatC= 9.68D-14 BMatP= 8.47D-12
 IDIUse=1 WtCom= 1.00D+00 WtEn= 0.00D+00
 Coeff-Com:  0.156D-04-0.568D-04-0.901D-03 0.135D-02 0.642D-02-0.184D-01
 Coeff-Com: -0.130D+00 0.114D+01
 Coeff:      0.156D-04-0.568D-04-0.901D-03 0.135D-02 0.642D-02-0.184D-01
 Coeff:     -0.130D+00 0.114D+01
 Gap=     0.231 Goal=   None    Shift=    0.000
 Gap=     0.318 Goal=   None    Shift=    0.000
 RMSDP=4.14D-09 MaxDP=6.38D-08 DE=-4.21D-12 OVMax= 1.73D-07

 SCF Done:  E(UM062X) =  -582.166950419     A.U. after    8 cycles
            NFock=  8  Conv=0.41D-08     -V/T= 2.0016
 <Sx>= 0.0000 <Sy>= 0.0000 <Sz>= 0.5000 <S**2>= 0.7533 S= 0.5017
 <L.S>=  0.00000000000    
 KE= 5.812140718699D+02 PE=-1.531919380389D+03 EE= 2.919594638240D+02
 Annihilation of the first spin contaminant:
 S**2 before annihilation     0.7533,   after     0.7500
 Leave Link  502 at Mon Apr 21 20:14:03 2025, MaxMem=   536870912 cpu:              81.8 elap:              11.1
 (Enter /home/szhao/Apps/g16/l701.exe)
 ... and contract with generalized density number  0.
 Compute integral first derivatives.
 Leave Link  701 at Mon Apr 21 20:14:03 2025, MaxMem=   536870912 cpu:               2.5 elap:               0.4
 (Enter /home/szhao/Apps/g16/l702.exe)
 L702 exits ... SP integral derivatives will be done elsewhere.
 Leave Link  702 at Mon Apr 21 20:14:04 2025, MaxMem=   536870912 cpu:               0.5 elap:               0.1
 (Enter /home/szhao/Apps/g16/l703.exe)
 Integral derivatives from FoFJK, PRISM(SPDF).
 Compute integral first derivatives, UseDBF=F ICtDFT=           0.
 Calling FoFJK, ICntrl=      2127 FMM=F ISym2X=0 I1Cent= 0 IOpClX= 1 NMat=1 NMatS=1 NMatT=0.
 FoFJK:  IHMeth= 1 ICntrl=    2127 DoSepK=F KAlg= 0 I1Cent=           0 FoldK=F
 IRaf=         0 NMat=       1 IRICut=       1 DoRegI=T DoRafI=F ISym2E= 0 IDoP0=0 IntGTp=1.
 FoFCou: FMM=F IPFlag=           0 FMFlag=      100000 FMFlg1=         800
         NFxFlg=           0 DoJE=F BraDBF=F KetDBF=F FulRan=T
         wScrn=  0.000000 ICntrl=      2127 IOpCl=  1 I1Cent=           0 NGrid=           0
         NMat0=    1 NMatS0=      1 NMatT0=    0 NMatD0=    1 NMtDS0=    0 NMtDT0=    0
 Symmetry not used in FoFCou.
 Leave Link  703 at Mon Apr 21 20:14:05 2025, MaxMem=   536870912 cpu:              14.0 elap:               1.8
 (Enter /home/szhao/Apps/g16/l716.exe)
 Dipole        = 6.90292331D-07 8.84275110D-07-1.03705139D-05
 -------------------------------------------------------------------
 Center     Atomic                   Forces (Hartrees/Bohr)
 Number     Number              X              Y              Z
 -------------------------------------------------------------------
      1       14          -0.000000000   -0.000000000   -0.000000000
      2       14          -0.000000000   -0.000000000   -0.000000000
      3        1          -0.000249172   -0.000010877    0.000001539
      4        1           0.000242292   -0.000006383    0.000009009
      5        1          -0.000244247    0.000006551   -0.000009178
      6        1          -0.000240125    0.000005163    0.000009947
      7        1           0.000249282    0.000010889   -0.000001583
      8        1           0.000242009   -0.000005257   -0.000010166
 -------------------------------------------------------------------
 Cartesian Forces:  Max     0.000249282 RMS     0.000122401
 Leave Link  716 at Mon Apr 21 20:14:06 2025, MaxMem=   536870912 cpu:               0.3 elap:               0.1
 (Enter /home/szhao/Apps/g16/l103.exe)

 GradGradGradGradGradGradGradGradGradGradGradGradGradGradGradGradGradGrad
 Berny optimization.
 Using GEDIIS/GDIIS optimizer.
 FormGI is forming the generalized inverse of G from B-inverse, IUseBI=4.
 Internal  Forces:  Max     0.000733582 RMS     0.000322323
 Search for a local minimum.
 Step number   2 out of a maximum of   43
 All quantities printed in internal units (Hartrees-Bohrs-Radians)
 RMS Force = .29515D-03 SwitMx=.10000D-02 MixMth= 2
 Mixed Optimization -- En-DIIS/RFO-DIIS
 Update second derivatives using D2CorX and points    1    2
 DE= -1.61D-04 DEPred=-1.31D-04 R= 1.23D+00
 TightC=F SS=  1.41D+00  RLast= 4.02D-02 DXNew= 5.0454D-01 1.2070D-01
 Trust test= 1.23D+00 RLast= 4.02D-02 DXMaxT set to 3.00D-01
 ITU=  1  0
 Use linear search instead of GDIIS.
     Eigenvalues ---    0.00230   0.07729   0.07729   0.07730   0.07730
     Eigenvalues ---    0.12125   0.16000   0.16000   0.16000   0.16000
     Eigenvalues ---    0.16000   0.18377   0.18377   0.18378   0.18378
     Eigenvalues ---    0.18378   0.187061000.000001000.000001000.00000
     Eigenvalues --- 1000.000001000.000001000.000001000.000001000.00000
     Eigenvalues --- 1000.000001000.000001000.000001000.000001000.00000
     Eigenvalues --- 1000.000001000.000001000.00000
 RFO step:  Lambda=-1.49072817D-06 EMin= 2.29999999D-03
 Quartic linear search produced a step of  0.29678.
 Iteration  1 RMS(Cart)=  0.00562604 RMS(Int)=  0.00005637
 Iteration  2 RMS(Cart)=  0.00001875 RMS(Int)=  0.00005452
 Iteration  3 RMS(Cart)=  0.00000000 RMS(Int)=  0.00005452
 ITry= 1 IFail=0 DXMaxC= 1.34D-02 DCOld= 1.00D+10 DXMaxT= 3.00D-01 DXLimC= 3.00D+00 Rises=F
 Variable       Old X    -DE/DX   Delta X   Delta X   Delta X     New X
                                 (Linear)    (Quad)   (Total)
    X1       -3.07325   0.00073   0.00000   0.00000   0.00000  -3.07325
    Y1        0.00000   0.00001   0.00000   0.00000   0.00000   0.00000
    Z1        0.00000  -0.00000   0.00000   0.00000   0.00000   0.00000
    X2        3.07325  -0.00073   0.00000   0.00000   0.00000   3.07325
    Y2        0.00000  -0.00001   0.00000   0.00000   0.00000   0.00000
    Z2        0.00000   0.00000   0.00000   0.00000   0.00000   0.00000
    R1        2.76891  -0.00002  -0.00125   0.00110  -0.00015   2.76876
    R2        2.76893  -0.00002  -0.00123   0.00108  -0.00016   2.76877
    R3        2.76890  -0.00002  -0.00125   0.00110  -0.00015   2.76876
    R4        2.76893  -0.00002  -0.00123   0.00108  -0.00016   2.76877
    R5        2.76891  -0.00002  -0.00124   0.00109  -0.00015   2.76876
    R6        2.76891  -0.00002  -0.00125   0.00110  -0.00014   2.76876
    A1        1.69120  -0.00057  -0.00431  -0.00036  -0.00472   1.68647
    A2        1.69152  -0.00059  -0.00436  -0.00047  -0.00488   1.68664
    A3        1.69142  -0.00057  -0.00431  -0.00037  -0.00472   1.68670
    A4        2.06949   0.00024   0.00188   0.00017   0.00193   2.07142
    A5        2.06950   0.00023   0.00185   0.00017   0.00191   2.07140
    A6        2.06955   0.00024   0.00186   0.00015   0.00189   2.07144
    A7        1.69150  -0.00059  -0.00436  -0.00047  -0.00488   1.68662
    A8        1.69158  -0.00058  -0.00432  -0.00040  -0.00477   1.68681
    A9        1.69105  -0.00057  -0.00430  -0.00033  -0.00468   1.68637
   A10        2.06949   0.00024   0.00188   0.00017   0.00193   2.07142
   A11        2.06954   0.00024   0.00187   0.00015   0.00190   2.07143
   A12        2.06950   0.00023   0.00185   0.00017   0.00191   2.07141
    D1        1.04727  -0.00000  -0.00001   0.00001   0.00000   1.04728
    D2       -3.14147  -0.00000  -0.00000   0.00000   0.00000  -3.14146
    D3       -1.04711   0.00000  -0.00001   0.00003   0.00002  -1.04709
    D4       -3.14155   0.00000   0.00001   0.00001   0.00001  -3.14154
    D5       -1.04711   0.00000   0.00001   0.00000   0.00001  -1.04709
    D6        1.04725   0.00000   0.00001   0.00002   0.00003   1.04728
    D7       -1.04708  -0.00000  -0.00000  -0.00001  -0.00001  -1.04709
    D8        1.04737  -0.00000   0.00000  -0.00002  -0.00002   1.04735
    D9       -3.14146  -0.00000  -0.00000   0.00000   0.00000  -3.14146
         Item               Value     Threshold  Converged?
 Maximum Force            0.000592     0.000450     NO 
 RMS     Force            0.000295     0.000300     YES
 Maximum Displacement     0.013438     0.001800     NO 
 RMS     Displacement     0.005639     0.001200     NO 
 Predicted change in Energy=-9.701703D-06
 Lowest energy point so far.  Saving SCF results.
 GradGradGradGradGradGradGradGradGradGradGradGradGradGradGradGradGradGrad

 Leave Link  103 at Mon Apr 21 20:14:06 2025, MaxMem=   536870912 cpu:               0.8 elap:               0.2
 (Enter /home/szhao/Apps/g16/l202.exe)
                          Input orientation:                          
 ---------------------------------------------------------------------
 Center     Atomic      Atomic             Coordinates (Angstroms)
 Number     Number       Type             X           Y           Z
 ---------------------------------------------------------------------
      1         14           0       -1.626292    0.000000    0.000000
      2         14           0        1.626292    0.000000    0.000000
      3          1           0        1.795612   -1.455356    0.000011
      4          1           0       -1.795401   -0.727576    1.260454
      5          1           0        1.795897    0.727708   -1.260309
      6          1           0        1.795254    0.727668    1.260421
      7          1           0       -1.795637    1.455353   -0.000094
      8          1           0       -1.795725   -0.727807   -1.260276
 ---------------------------------------------------------------------
                    Distance matrix (angstroms):
                    1          2          3          4          5
     1  Si   0.000000
     2  Si   3.252584   0.000000
     3  H    3.718533   1.465172   0.000000
     4  H    1.465165   3.718346   3.874759   0.000000
     5  H    3.718779   1.465163   2.520749   4.622718   0.000000
     6  H    3.718217   1.465165   2.520759   3.874344   2.520730
     7  H    1.465172   3.718555   4.622693   2.520746   3.875142
     8  H    1.465164   3.718628   3.874964   2.520730   3.875341
                    6          7          8
     6  H    0.000000
     7  H    3.874651   0.000000
     8  H    4.622494   2.520763   0.000000
 Symmetry turned off by external request.
 Stoichiometry    H6Si2(1+,2)
 Framework group  C1[X(H6Si2)]
 Deg. of freedom    18
 Full point group                 C1      NOp   1
 Rotational constants (GHZ):          39.4588017           2.9063449           2.9063419
 Leave Link  202 at Mon Apr 21 20:14:06 2025, MaxMem=   536870912 cpu:               0.2 elap:               0.1
 (Enter /home/szhao/Apps/g16/l301.exe)
 Standard basis: 6-311+G(d,p) (5D, 7F)
 Ernie: Thresh=  0.10000D-02 Tol=  0.10000D-05 Strict=F.
    96 basis functions,   148 primitive gaussians,    98 cartesian basis functions
    17 alpha electrons       16 beta electrons
       nuclear repulsion energy        76.6028947370 Hartrees.
 IExCor= 4336 DFT=T Ex+Corr=M062X ExCW=0 ScaHFX=  0.540000
 ScaDFX=  1.000000  1.000000  1.000000  1.000000 ScalE2=  1.000000  1.000000
 IRadAn=      7 IRanWt=     -1 IRanGd=            0 ICorTp=0 IEmpDi=  4
 NAtoms=    8 NActive=    8 NUniq=    8 SFac= 1.00D+00 NAtFMM=   60 NAOKFM=F Big=F
 Integral buffers will be    131072 words long.
 Raffenetti 2 integral format.
 Two-electron integral symmetry is turned off.
 Leave Link  301 at Mon Apr 21 20:14:07 2025, MaxMem=   536870912 cpu:               1.7 elap:               0.3
 (Enter /home/szhao/Apps/g16/l302.exe)
 NPDir=0 NMtPBC=     1 NCelOv=     1 NCel=       1 NClECP=     1 NCelD=      1
         NCelK=      1 NCelE2=     1 NClLst=     1 CellRange=     0.0.
 One-electron integrals computed using PRISM.
 NBasis=    96 RedAO= T EigKep=  3.87D-03  NBF=    96
 NBsUse=    96 1.00D-06 EigRej= -1.00D+00 NBFU=    96
 Precomputing XC quadrature grid using
 IXCGrd= 4 IRadAn=           7 IRanWt=          -1 IRanGd=           0 AccXCQ= 0.00D+00.
 Generated NRdTot=       0 NPtTot=           0 NUsed=           0 NTot=          32
 NSgBfM=    94    94    94    94    94 MxSgAt=     8 MxSgA2=     8.
 Leave Link  302 at Mon Apr 21 20:14:08 2025, MaxMem=   536870912 cpu:               2.3 elap:               0.4
 (Enter /home/szhao/Apps/g16/l303.exe)
 DipDrv:  MaxL=1.
 Leave Link  303 at Mon Apr 21 20:14:08 2025, MaxMem=   536870912 cpu:               0.6 elap:               0.2
 (Enter /home/szhao/Apps/g16/l401.exe)
 Initial guess from the checkpoint file:  "opt.chk"
 B after Tr=     0.000000    0.000000   -0.000002
         Rot=    1.000000    0.000000   -0.000001    0.000004 Ang=   0.00 deg.
 Guess basis will be translated and rotated to current coordinates.
 JPrj=2 DoOrth=T DoCkMO=T.
 Initial guess <Sx>= 0.0000 <Sy>= 0.0000 <Sz>= 0.5000 <S**2>= 0.7533 S= 0.5017
 Leave Link  401 at Mon Apr 21 20:14:09 2025, MaxMem=   536870912 cpu:               1.2 elap:               0.2
 (Enter /home/szhao/Apps/g16/l502.exe)
 Keep R1 and R2 ints in memory in canonical form, NReq=29092346.
 FoFCou: FMM=F IPFlag=           0 FMFlag=           0 FMFlg1=           0
         NFxFlg=           0 DoJE=F BraDBF=F KetDBF=F FulRan=T
         wScrn=  0.000000 ICntrl=       600 IOpCl=  0 I1Cent=           0 NGrid=           0
         NMat0=    1 NMatS0=   4656 NMatT0=    0 NMatD0=    1 NMtDS0=    0 NMtDT0=    0
 Symmetry not used in FoFCou.
 Two-electron integral symmetry not used.
 UHF open shell SCF:
 Using DIIS extrapolation, IDIIS=  1040.
 NGot=   536870912 LenX=   515167018 LenY=   515156973
 Requested convergence on RMS density matrix=1.00D-08 within 128 cycles.
 Requested convergence on MAX density matrix=1.00D-06.
 Requested convergence on             energy=1.00D-06.
 No special actions if energy rises.

 Cycle   1  Pass 1  IDiag  1:
 E= -582.166953826327    
 DIIS: error= 2.91D-04 at cycle   1 NSaved=   1.
 NSaved= 1 IEnMin= 1 EnMin= -582.166953826327     IErMin= 1 ErrMin= 2.91D-04
 ErrMax= 2.91D-04  0.00D+00 EMaxC= 1.00D-01 BMatC= 1.07D-05 BMatP= 1.07D-05
 IDIUse=3 WtCom= 9.97D-01 WtEn= 2.91D-03
 Coeff-Com:  0.100D+01
 Coeff-En:   0.100D+01
 Coeff:      0.100D+01
 Gap=     0.452 Goal=   None    Shift=    0.000
 Gap=     0.491 Goal=   None    Shift=    0.000
 RMSDP=2.93D-05 MaxDP=7.15D-04              OVMax= 2.13D-03

 Cycle   2  Pass 1  IDiag  1:
 E= -582.166959432514     Delta-E=       -0.000005606188 Rises=F Damp=F
 DIIS: error= 1.06D-04 at cycle   2 NSaved=   2.
 NSaved= 2 IEnMin= 2 EnMin= -582.166959432514     IErMin= 2 ErrMin= 1.06D-04
 ErrMax= 1.06D-04  0.00D+00 EMaxC= 1.00D-01 BMatC= 4.33D-07 BMatP= 1.07D-05
 IDIUse=3 WtCom= 9.99D-01 WtEn= 1.06D-03
 Coeff-Com: -0.108D+00 0.111D+01
 Coeff-En:   0.000D+00 0.100D+01
 Coeff:     -0.108D+00 0.111D+01
 Gap=     0.230 Goal=   None    Shift=    0.000
 Gap=     0.319 Goal=   None    Shift=    0.000
 RMSDP=1.59D-05 MaxDP=4.68D-04 DE=-5.61D-06 OVMax= 1.01D-03

 Cycle   3  Pass 1  IDiag  1:
 E= -582.166959953599     Delta-E=       -0.000000521085 Rises=F Damp=F
 DIIS: error= 2.63D-05 at cycle   3 NSaved=   3.
 NSaved= 3 IEnMin= 3 EnMin= -582.166959953599     IErMin= 3 ErrMin= 2.63D-05
 ErrMax= 2.63D-05  0.00D+00 EMaxC= 1.00D-01 BMatC= 7.59D-08 BMatP= 4.33D-07
 IDIUse=1 WtCom= 1.00D+00 WtEn= 0.00D+00
 Coeff-Com: -0.381D-01 0.109D+00 0.929D+00
 Coeff:     -0.381D-01 0.109D+00 0.929D+00
 Gap=     0.230 Goal=   None    Shift=    0.000
 Gap=     0.319 Goal=   None    Shift=    0.000
 RMSDP=4.19D-06 MaxDP=1.25D-04 DE=-5.21D-07 OVMax= 2.38D-04

 Cycle   4  Pass 1  IDiag  1:
 E= -582.166960021058     Delta-E=       -0.000000067459 Rises=F Damp=F
 DIIS: error= 1.24D-05 at cycle   4 NSaved=   4.
 NSaved= 4 IEnMin= 4 EnMin= -582.166960021058     IErMin= 4 ErrMin= 1.24D-05
 ErrMax= 1.24D-05  0.00D+00 EMaxC= 1.00D-01 BMatC= 1.11D-08 BMatP= 7.59D-08
 IDIUse=1 WtCom= 1.00D+00 WtEn= 0.00D+00
 Coeff-Com:  0.165D-01-0.169D+00-0.170D+00 0.132D+01
 Coeff:      0.165D-01-0.169D+00-0.170D+00 0.132D+01
 Gap=     0.230 Goal=   None    Shift=    0.000
 Gap=     0.319 Goal=   None    Shift=    0.000
 RMSDP=3.47D-06 MaxDP=1.02D-04 DE=-6.75D-08 OVMax= 1.93D-04

 Cycle   5  Pass 1  IDiag  1:
 E= -582.166960038199     Delta-E=       -0.000000017140 Rises=F Damp=F
 DIIS: error= 2.70D-06 at cycle   5 NSaved=   5.
 NSaved= 5 IEnMin= 5 EnMin= -582.166960038199     IErMin= 5 ErrMin= 2.70D-06
 ErrMax= 2.70D-06  0.00D+00 EMaxC= 1.00D-01 BMatC= 5.20D-10 BMatP= 1.11D-08
 IDIUse=1 WtCom= 1.00D+00 WtEn= 0.00D+00
 Coeff-Com:  0.120D-02 0.424D-02-0.282D-01-0.107D+00 0.113D+01
 Coeff:      0.120D-02 0.424D-02-0.282D-01-0.107D+00 0.113D+01
 Gap=     0.230 Goal=   None    Shift=    0.000
 Gap=     0.319 Goal=   None    Shift=    0.000
 RMSDP=3.54D-07 MaxDP=7.43D-06 DE=-1.71D-08 OVMax= 2.11D-05

 Cycle   6  Pass 1  IDiag  1:
 E= -582.166960038733     Delta-E=       -0.000000000535 Rises=F Damp=F
 DIIS: error= 6.09D-07 at cycle   6 NSaved=   6.
 NSaved= 6 IEnMin= 6 EnMin= -582.166960038733     IErMin= 6 ErrMin= 6.09D-07
 ErrMax= 6.09D-07  0.00D+00 EMaxC= 1.00D-01 BMatC= 3.18D-11 BMatP= 5.20D-10
 IDIUse=1 WtCom= 1.00D+00 WtEn= 0.00D+00
 Coeff-Com: -0.110D-02 0.120D-01 0.171D-01-0.102D+00-0.469D-01 0.112D+01
 Coeff:     -0.110D-02 0.120D-01 0.171D-01-0.102D+00-0.469D-01 0.112D+01
 Gap=     0.230 Goal=   None    Shift=    0.000
 Gap=     0.319 Goal=   None    Shift=    0.000
 RMSDP=7.67D-08 MaxDP=1.82D-06 DE=-5.35D-10 OVMax= 5.36D-06

 Cycle   7  Pass 1  IDiag  1:
 E= -582.166960038764     Delta-E=       -0.000000000031 Rises=F Damp=F
 DIIS: error= 6.00D-08 at cycle   7 NSaved=   7.
 NSaved= 7 IEnMin= 7 EnMin= -582.166960038764     IErMin= 7 ErrMin= 6.00D-08
 ErrMax= 6.00D-08  0.00D+00 EMaxC= 1.00D-01 BMatC= 6.66D-13 BMatP= 3.18D-11
 IDIUse=1 WtCom= 1.00D+00 WtEn= 0.00D+00
 Coeff-Com:  0.119D-03-0.179D-02 0.154D-02 0.105D-01-0.227D-01-0.112D+00
 Coeff-Com:  0.112D+01
 Coeff:      0.119D-03-0.179D-02 0.154D-02 0.105D-01-0.227D-01-0.112D+00
 Coeff:      0.112D+01
 Gap=     0.230 Goal=   None    Shift=    0.000
 Gap=     0.319 Goal=   None    Shift=    0.000
 RMSDP=1.29D-08 MaxDP=3.64D-07 DE=-3.06D-11 OVMax= 5.87D-07

 Cycle   8  Pass 1  IDiag  1:
 E= -582.166960038764     Delta-E=       -0.000000000000 Rises=F Damp=F
 DIIS: error= 6.63D-09 at cycle   8 NSaved=   8.
 NSaved= 8 IEnMin= 8 EnMin= -582.166960038764     IErMin= 8 ErrMin= 6.63D-09
 ErrMax= 6.63D-09  0.00D+00 EMaxC= 1.00D-01 BMatC= 9.89D-15 BMatP= 6.66D-13
 IDIUse=1 WtCom= 1.00D+00 WtEn= 0.00D+00
 Coeff-Com: -0.724D-06 0.774D-04-0.621D-03 0.439D-03 0.289D-02 0.129D-02
 Coeff-Com: -0.164D+00 0.116D+01
 Coeff:     -0.724D-06 0.774D-04-0.621D-03 0.439D-03 0.289D-02 0.129D-02
 Coeff:     -0.164D+00 0.116D+01
 Gap=     0.230 Goal=   None    Shift=    0.000
 Gap=     0.319 Goal=   None    Shift=    0.000
 RMSDP=1.20D-09 MaxDP=3.37D-08 DE=-1.14D-13 OVMax= 4.68D-08

 SCF Done:  E(UM062X) =  -582.166960039     A.U. after    8 cycles
            NFock=  8  Conv=0.12D-08     -V/T= 2.0016
 <Sx>= 0.0000 <Sy>= 0.0000 <Sz>= 0.5000 <S**2>= 0.7534 S= 0.5017
 <L.S>=  0.00000000000    
 KE= 5.812143131099D+02 PE=-1.531970451233D+03 EE= 2.919862833473D+02
 Annihilation of the first spin contaminant:
 S**2 before annihilation     0.7534,   after     0.7500
 Leave Link  502 at Mon Apr 21 20:14:20 2025, MaxMem=   536870912 cpu:              80.4 elap:              10.8
 (Enter /home/szhao/Apps/g16/l701.exe)
 ... and contract with generalized density number  0.
 Compute integral first derivatives.
 Leave Link  701 at Mon Apr 21 20:14:20 2025, MaxMem=   536870912 cpu:               1.7 elap:               0.3
 (Enter /home/szhao/Apps/g16/l702.exe)
 L702 exits ... SP integral derivatives will be done elsewhere.
 Leave Link  702 at Mon Apr 21 20:14:20 2025, MaxMem=   536870912 cpu:               0.4 elap:               0.1
 (Enter /home/szhao/Apps/g16/l703.exe)
 Integral derivatives from FoFJK, PRISM(SPDF).
 Compute integral first derivatives, UseDBF=F ICtDFT=           0.
 Calling FoFJK, ICntrl=      2127 FMM=F ISym2X=0 I1Cent= 0 IOpClX= 1 NMat=1 NMatS=1 NMatT=0.
 FoFJK:  IHMeth= 1 ICntrl=    2127 DoSepK=F KAlg= 0 I1Cent=           0 FoldK=F
 IRaf=         0 NMat=       1 IRICut=       1 DoRegI=T DoRafI=F ISym2E= 0 IDoP0=0 IntGTp=1.
 FoFCou: FMM=F IPFlag=           0 FMFlag=      100000 FMFlg1=         800
         NFxFlg=           0 DoJE=F BraDBF=F KetDBF=F FulRan=T
         wScrn=  0.000000 ICntrl=      2127 IOpCl=  1 I1Cent=           0 NGrid=           0
         NMat0=    1 NMatS0=      1 NMatT0=    0 NMatD0=    1 NMtDS0=    0 NMtDT0=    0
 Symmetry not used in FoFCou.
 Leave Link  703 at Mon Apr 21 20:14:22 2025, MaxMem=   536870912 cpu:              14.1 elap:               1.8
 (Enter /home/szhao/Apps/g16/l716.exe)
 Dipole        = 7.08249095D-08 4.70609015D-07-7.83450046D-06
 -------------------------------------------------------------------
 Center     Atomic                   Forces (Hartrees/Bohr)
 Number     Number              X              Y              Z
 -------------------------------------------------------------------
      1       14          -0.000000000   -0.000000000   -0.000000000
      2       14          -0.000000000   -0.000000000   -0.000000000
      3        1          -0.000003617    0.000022291    0.000000562
      4        1          -0.000000130    0.000011754   -0.000019692
      5        1          -0.000001608   -0.000011544    0.000019443
      6        1           0.000001513   -0.000012356   -0.000019658
      7        1           0.000003710   -0.000022272   -0.000000520
      8        1           0.000000142    0.000012181    0.000019422
 -------------------------------------------------------------------
 Cartesian Forces:  Max     0.000022291 RMS     0.000011415
 Leave Link  716 at Mon Apr 21 20:14:23 2025, MaxMem=   536870912 cpu:               0.5 elap:               0.1
 (Enter /home/szhao/Apps/g16/l103.exe)

 GradGradGradGradGradGradGradGradGradGradGradGradGradGradGradGradGradGrad
 Berny optimization.
 Using GEDIIS/GDIIS optimizer.
 FormGI is forming the generalized inverse of G from B-inverse, IUseBI=4.
 Internal  Forces:  Max     0.000022873 RMS     0.000010190
 Search for a local minimum.
 Step number   3 out of a maximum of   43
 All quantities printed in internal units (Hartrees-Bohrs-Radians)
 RMS Force = .11134D-04 SwitMx=.10000D-02 MixMth= 2
 Mixed Optimization -- En-DIIS/RFO-DIIS
 Swapping is turned off.
 Update second derivatives using D2CorX and points    1    2    3
 DE= -9.62D-06 DEPred=-9.70D-06 R= 9.92D-01
 TightC=F SS=  1.41D+00  RLast= 1.26D-02 DXNew= 5.0454D-01 3.7819D-02
 Trust test= 9.92D-01 RLast= 1.26D-02 DXMaxT set to 3.00D-01
 ITU=  1  1  0
     Eigenvalues ---    0.00230   0.07758   0.07758   0.07759   0.07759
     Eigenvalues ---    0.12188   0.16000   0.16000   0.16000   0.16000
     Eigenvalues ---    0.16005   0.18377   0.18377   0.18378   0.18378
     Eigenvalues ---    0.18378   0.186971000.000001000.000001000.00000
     Eigenvalues --- 1000.000001000.000001000.000001000.000001000.00000
     Eigenvalues --- 1000.000001000.000001000.000001000.000001000.00000
     Eigenvalues --- 1000.000001000.000001000.00000
 En-DIIS/RFO-DIIS/Sim-DIIS IScMMF=       -3 using points:     3    2
 RFO step:  Lambda=-1.44100659D-08.
 NNeg= 0 NGDIIS= 2 SimSw=  2.50D-03 Rises=F DC= -9.62D-06 SmlDif=  1.00D-05
 NRisDI= 0 DoIntr=F SqrtH=F CThrHd= 10.0 CDAdj=  3.0
 RMS Error=  0.5485587429D-04 NUsed= 2 OKEnD=F EnDIS=F
 InvSVX:  RCond= 1.79D-04 Info=           0 Equed=N FErr=  8.92D-16 BErr=  5.12D-17
 DidBck=F Rises=F RFO-DIIS coefs:    0.99640    0.00360
 Iteration  1 RMS(Cart)=  0.00007078 RMS(Int)=  0.00000005
 Iteration  2 RMS(Cart)=  0.00000000 RMS(Int)=  0.00000005
 ITry= 1 IFail=0 DXMaxC= 1.75D-04 DCOld= 1.00D+10 DXMaxT= 3.00D-01 DXLimC= 3.00D+00 Rises=F
 Variable       Old X    -DE/DX   Delta X   Delta X   Delta X     New X
                                 (Linear)    (Quad)   (Total)
    X1       -3.07325   0.00000   0.00000   0.00000   0.00000  -3.07325
    Y1        0.00000   0.00001   0.00000   0.00000   0.00000   0.00000
    Z1        0.00000   0.00000   0.00000   0.00000   0.00000   0.00000
    X2        3.07325  -0.00000   0.00000   0.00000   0.00000   3.07325
    Y2        0.00000  -0.00001   0.00000   0.00000   0.00000   0.00000
    Z2        0.00000  -0.00000   0.00000   0.00000   0.00000   0.00000
    R1        2.76876  -0.00002   0.00000  -0.00012  -0.00012   2.76864
    R2        2.76877  -0.00002   0.00000  -0.00012  -0.00012   2.76865
    R3        2.76876  -0.00002   0.00000  -0.00012  -0.00012   2.76864
    R4        2.76877  -0.00002   0.00000  -0.00012  -0.00012   2.76865
    R5        2.76876  -0.00002   0.00000  -0.00012  -0.00012   2.76864
    R6        2.76876  -0.00002   0.00000  -0.00012  -0.00012   2.76864
    A1        1.68647   0.00001   0.00002   0.00003   0.00005   1.68652
    A2        1.68664  -0.00000   0.00002  -0.00004  -0.00002   1.68661
    A3        1.68670   0.00001   0.00002   0.00002   0.00004   1.68674
    A4        2.07142  -0.00000  -0.00001  -0.00000  -0.00001   2.07141
    A5        2.07140  -0.00000  -0.00001   0.00001  -0.00000   2.07140
    A6        2.07144  -0.00000  -0.00001  -0.00001  -0.00002   2.07142
    A7        1.68662  -0.00000   0.00002  -0.00004  -0.00002   1.68660
    A8        1.68681   0.00000   0.00002  -0.00000   0.00002   1.68683
    A9        1.68637   0.00001   0.00002   0.00005   0.00007   1.68644
   A10        2.07142  -0.00000  -0.00001   0.00000  -0.00001   2.07142
   A11        2.07143  -0.00000  -0.00001  -0.00001  -0.00002   2.07142
   A12        2.07141  -0.00000  -0.00001   0.00000  -0.00000   2.07140
    D1        1.04728   0.00000  -0.00000   0.00001   0.00001   1.04729
    D2       -3.14146  -0.00000  -0.00000   0.00000   0.00000  -3.14146
    D3       -1.04709   0.00000  -0.00000   0.00002   0.00002  -1.04707
    D4       -3.14154   0.00000  -0.00000   0.00001   0.00001  -3.14153
    D5       -1.04709  -0.00000  -0.00000  -0.00000  -0.00000  -1.04709
    D6        1.04728   0.00000  -0.00000   0.00001   0.00001   1.04730
    D7       -1.04709  -0.00000   0.00000  -0.00001  -0.00001  -1.04710
    D8        1.04735  -0.00000   0.00000  -0.00001  -0.00001   1.04734
    D9       -3.14146  -0.00000  -0.00000   0.00000   0.00000  -3.14146
         Item               Value     Threshold  Converged?
 Maximum Force            0.000023     0.000450     YES
 RMS     Force            0.000011     0.000300     YES
 Maximum Displacement     0.000175     0.001800     YES
 RMS     Displacement     0.000071     0.001200     YES
 Predicted change in Energy=-9.078003D-09
 Optimization completed.
    -- Stationary point found.
                           ----------------------------
                           !   Optimized Parameters   !
                           ! (Angstroms and Degrees)  !
 --------------------------                            --------------------------
 ! Name  Definition              Value          Derivative Info.                !
 --------------------------------------------------------------------------------
 ! X1    R(1,-1)                -1.6263         -DE/DX =    0.0                 !
 ! Y1    R(1,-2)                 0.0            -DE/DX =    0.0                 !
 ! Z1    R(1,-3)                 0.0            -DE/DX =    0.0                 !
 ! X2    R(2,-1)                 1.6263         -DE/DX =    0.0                 !
 ! Y2    R(2,-2)                 0.0            -DE/DX =    0.0                 !
 ! Z2    R(2,-3)                 0.0            -DE/DX =    0.0                 !
 ! R1    R(1,4)                  1.4652         -DE/DX =    0.0                 !
 ! R2    R(1,7)                  1.4652         -DE/DX =    0.0                 !
 ! R3    R(1,8)                  1.4652         -DE/DX =    0.0                 !
 ! R4    R(2,3)                  1.4652         -DE/DX =    0.0                 !
 ! R5    R(2,5)                  1.4652         -DE/DX =    0.0                 !
 ! R6    R(2,6)                  1.4652         -DE/DX =    0.0                 !
 ! A1    A(2,1,4)               96.6279         -DE/DX =    0.0                 !
 ! A2    A(2,1,7)               96.6371         -DE/DX =    0.0                 !
 ! A3    A(2,1,8)               96.6406         -DE/DX =    0.0                 !
 ! A4    A(4,1,7)              118.6834         -DE/DX =    0.0                 !
 ! A5    A(4,1,8)              118.6827         -DE/DX =    0.0                 !
 ! A6    A(7,1,8)              118.6848         -DE/DX =    0.0                 !
 ! A7    A(1,2,3)               96.6361         -DE/DX =    0.0                 !
 ! A8    A(1,2,5)               96.6474         -DE/DX =    0.0                 !
 ! A9    A(1,2,6)               96.6221         -DE/DX =    0.0                 !
 ! A10   A(3,2,5)              118.6838         -DE/DX =    0.0                 !
 ! A11   A(3,2,6)              118.6844         -DE/DX =    0.0                 !
 ! A12   A(5,2,6)              118.6828         -DE/DX =    0.0                 !
 ! D1    D(4,1,2,3)             60.0046         -DE/DX =    0.0                 !
 ! D2    D(4,1,2,5)           -179.9926         -DE/DX =    0.0                 !
 ! D3    D(4,1,2,6)            -59.9937         -DE/DX =    0.0                 !
 ! D4    D(7,1,2,3)           -179.9968         -DE/DX =    0.0                 !
 ! D5    D(7,1,2,5)            -59.994          -DE/DX =    0.0                 !
 ! D6    D(7,1,2,6)             60.0049         -DE/DX =    0.0                 !
 ! D7    D(8,1,2,3)            -59.9941         -DE/DX =    0.0                 !
 ! D8    D(8,1,2,5)             60.0087         -DE/DX =    0.0                 !
 ! D9    D(8,1,2,6)           -179.9924         -DE/DX =    0.0                 !
 --------------------------------------------------------------------------------
 Lowest energy point so far.  Saving SCF results.
 Largest change from initial coordinates is atom    7       0.028 Angstoms.
 GradGradGradGradGradGradGradGradGradGradGradGradGradGradGradGradGradGrad

 Leave Link  103 at Mon Apr 21 20:14:23 2025, MaxMem=   536870912 cpu:               0.8 elap:               0.3
 (Enter /home/szhao/Apps/g16/l202.exe)
                          Input orientation:                          
 ---------------------------------------------------------------------
 Center     Atomic      Atomic             Coordinates (Angstroms)
 Number     Number       Type             X           Y           Z
 ---------------------------------------------------------------------
      1         14           0       -1.626292    0.000000    0.000000
      2         14           0        1.626292    0.000000    0.000000
      3          1           0        1.795612   -1.455356    0.000011
      4          1           0       -1.795401   -0.727576    1.260454
      5          1           0        1.795897    0.727708   -1.260309
      6          1           0        1.795254    0.727668    1.260421
      7          1           0       -1.795637    1.455353   -0.000094
      8          1           0       -1.795725   -0.727807   -1.260276
 ---------------------------------------------------------------------
                    Distance matrix (angstroms):
                    1          2          3          4          5
     1  Si   0.000000
     2  Si   3.252584   0.000000
     3  H    3.718533   1.465172   0.000000
     4  H    1.465165   3.718346   3.874759   0.000000
     5  H    3.718779   1.465163   2.520749   4.622718   0.000000
     6  H    3.718217   1.465165   2.520759   3.874344   2.520730
     7  H    1.465172   3.718555   4.622693   2.520746   3.875142
     8  H    1.465164   3.718628   3.874964   2.520730   3.875341
                    6          7          8
     6  H    0.000000
     7  H    3.874651   0.000000
     8  H    4.622494   2.520763   0.000000
 Symmetry turned off by external request.
 Stoichiometry    H6Si2(1+,2)
 Framework group  C1[X(H6Si2)]
 Deg. of freedom    18
 Full point group                 C1      NOp   1
 Rotational constants (GHZ):          39.4588017           2.9063449           2.9063419
 Leave Link  202 at Mon Apr 21 20:14:23 2025, MaxMem=   536870912 cpu:               0.2 elap:               0.2
 (Enter /home/szhao/Apps/g16/l601.exe)
 Copying SCF densities to generalized density rwf, IOpCl= 1 IROHF=0.

 **********************************************************************

            Population analysis using the SCF density.

 **********************************************************************

 Alpha  occ. eigenvalues --  -67.23759 -67.23759  -5.78609  -5.78608  -4.10302
 Alpha  occ. eigenvalues --   -4.10300  -4.09487  -4.09487  -4.09487  -4.09487
 Alpha  occ. eigenvalues --   -0.83794  -0.81335  -0.63247  -0.63247  -0.62297
 Alpha  occ. eigenvalues --   -0.62297  -0.48336
 Alpha virt. eigenvalues --   -0.25320  -0.14894  -0.11847  -0.11452  -0.11451
 Alpha virt. eigenvalues --   -0.10352  -0.10352  -0.09868  -0.08633  -0.08633
 Alpha virt. eigenvalues --   -0.07638  -0.06466  -0.06465  -0.03697   0.00778
 Alpha virt. eigenvalues --    0.11899   0.11899   0.12801   0.14226   0.14227
 Alpha virt. eigenvalues --    0.15843   0.17808   0.21622   0.21622   0.25639
 Alpha virt. eigenvalues --    0.25639   0.29551   0.34151   0.35694   0.35695
 Alpha virt. eigenvalues --    0.36926   0.38416   0.38416   0.54316   0.58785
 Alpha virt. eigenvalues --    0.67114   0.67115   0.69463   0.69465   0.95087
 Alpha virt. eigenvalues --    0.98501   0.98502   1.03458   1.03459   1.06387
 Alpha virt. eigenvalues --    1.11496   1.11498   1.27557   1.28602   1.28602
 Alpha virt. eigenvalues --    1.28945   1.28946   1.38084   1.41841   1.41842
 Alpha virt. eigenvalues --    1.42412   1.42413   1.69676   1.70235   1.93275
 Alpha virt. eigenvalues --    1.93276   1.93504   1.93505   2.39835   2.39836
 Alpha virt. eigenvalues --    2.44711   2.44712   2.45790   2.52624   5.37640
 Alpha virt. eigenvalues --    5.44407  11.19062  11.29498  11.38774  11.38775
 Alpha virt. eigenvalues --   11.39309  11.39309 140.96610 141.05145
  Beta  occ. eigenvalues --  -67.23496 -67.23496  -5.78537  -5.78536  -4.09656
  Beta  occ. eigenvalues --   -4.09655  -4.09399  -4.09399  -4.09399  -4.09399
  Beta  occ. eigenvalues --   -0.81352  -0.79863  -0.62886  -0.62885  -0.62071
  Beta  occ. eigenvalues --   -0.62070
  Beta virt. eigenvalues --   -0.30154  -0.20377  -0.14673  -0.11586  -0.11585
  Beta virt. eigenvalues --   -0.10882  -0.10477  -0.10477  -0.09644  -0.07979
  Beta virt. eigenvalues --   -0.07979  -0.06248  -0.06248  -0.05995  -0.03236
  Beta virt. eigenvalues --    0.01305   0.11066   0.11066   0.12138   0.14316
  Beta virt. eigenvalues --    0.14316   0.15521   0.18030   0.21882   0.21882
  Beta virt. eigenvalues --    0.25620   0.25620   0.29327   0.34517   0.37065
  Beta virt. eigenvalues --    0.39035   0.39035   0.41162   0.41163   0.58209
  Beta virt. eigenvalues --    0.62658   0.68011   0.68012   0.70288   0.70289
  Beta virt. eigenvalues --    0.97444   0.99186   0.99187   1.04324   1.04325
  Beta virt. eigenvalues --    1.07621   1.11716   1.11719   1.28144   1.29534
  Beta virt. eigenvalues --    1.29534   1.29925   1.29926   1.38784   1.42372
  Beta virt. eigenvalues --    1.42373   1.42907   1.42908   1.70568   1.71127
  Beta virt. eigenvalues --    1.94339   1.94340   1.94550   1.94551   2.40546
  Beta virt. eigenvalues --    2.40547   2.45358   2.45359   2.46142   2.53040
  Beta virt. eigenvalues --    5.39122   5.45795  11.21181  11.31474  11.39437
  Beta virt. eigenvalues --   11.39437  11.39977  11.39977 140.97090 141.05622
          Condensed to atoms (all electrons):
               1          2          3          4          5          6
     1  Si  12.280790   0.160229  -0.009273   0.362432  -0.009270  -0.009276
     2  Si   0.160229  12.280790   0.362434  -0.009276   0.362443   0.362425
     3  H   -0.009273   0.362434   0.678175   0.000230  -0.016176  -0.016176
     4  H    0.362432  -0.009276   0.000230   0.678185   0.000388   0.000230
     5  H   -0.009270   0.362443  -0.016176   0.000388   0.678157  -0.016177
     6  H   -0.009276   0.362425  -0.016176   0.000230  -0.016177   0.678197
     7  H    0.362435  -0.009272   0.000388  -0.016177   0.000230   0.000230
     8  H    0.362434  -0.009269   0.000230  -0.016177   0.000229   0.000388
               7          8
     1  Si   0.362435   0.362434
     2  Si  -0.009272  -0.009269
     3  H    0.000388   0.000230
     4  H   -0.016177  -0.016177
     5  H    0.000230   0.000229
     6  H    0.000230   0.000388
     7  H    0.678173  -0.016175
     8  H   -0.016175   0.678170
          Atomic-Atomic Spin Densities.
               1          2          3          4          5          6
     1  Si   0.478071   0.160276  -0.009795  -0.019438  -0.009791  -0.009800
     2  Si   0.160276   0.478071  -0.019434  -0.009797  -0.019434  -0.019440
     3  H   -0.009795  -0.019434   0.002271   0.000656   0.004301   0.004302
     4  H   -0.019438  -0.009797   0.000656   0.002288   0.000151   0.000657
     5  H   -0.009791  -0.019434   0.004301   0.000151   0.002270   0.004302
     6  H   -0.009800  -0.019440   0.004302   0.000657   0.004302   0.002297
     7  H   -0.019434  -0.009794   0.000151   0.004302   0.000656   0.000656
     8  H   -0.019436  -0.009794   0.000656   0.004302   0.000656   0.000151
               7          8
     1  Si  -0.019434  -0.019436
     2  Si  -0.009794  -0.009794
     3  H    0.000151   0.000656
     4  H    0.004302   0.004302
     5  H    0.000656   0.000656
     6  H    0.000656   0.000151
     7  H    0.002270   0.004302
     8  H    0.004302   0.002279
 Mulliken charges and spin densities:
               1          2
     1  Si   0.499497   0.550654
     2  Si   0.499497   0.550654
     3  H    0.000168  -0.016891
     4  H    0.000164  -0.016879
     5  H    0.000176  -0.016889
     6  H    0.000159  -0.016874
     7  H    0.000168  -0.016891
     8  H    0.000170  -0.016884
 Sum of Mulliken charges =   1.00000   1.00000
 Mulliken charges and spin densities with hydrogens summed into heavy atoms:
               1          2
     1  Si   0.500000   0.500000
     2  Si   0.500000   0.500000
 Electronic spatial extent (au):  <R**2>=            423.6732
 Charge=              1.0000 electrons
 Dipole moment (field-independent basis, Debye):
    X=              0.0000    Y=              0.0000    Z=             -0.0000  Tot=              0.0000
 Quadrupole moment (field-independent basis, Debye-Ang):
   XX=             -8.4652   YY=            -25.8651   ZZ=            -25.8651
   XY=             -0.0001   XZ=              0.0000   YZ=              0.0000
 Traceless Quadrupole moment (field-independent basis, Debye-Ang):
   XX=             11.6000   YY=             -5.7999   ZZ=             -5.8000
   XY=             -0.0001   XZ=              0.0000   YZ=              0.0000
 Octapole moment (field-independent basis, Debye-Ang**2):
  XXX=              0.0000  YYY=              0.0000  ZZZ=             -0.0004  XYY=             -0.0000
  XXY=             -0.0000  XXZ=              0.0003  XZZ=              0.0000  YZZ=              0.0000
  YYZ=             -0.0004  XYZ=             -0.0003
 Hexadecapole moment (field-independent basis, Debye-Ang**3):
 XXXX=           -375.4478 YYYY=            -66.1766 ZZZZ=            -66.1761 XXXY=              0.0005
 XXXZ=              0.0015 YYYX=             -2.2095 YYYZ=             -0.0001 ZZZX=              0.0003
 ZZZY=             -0.0001 XXYY=            -86.4115 XXZZ=            -86.4119 YYZZ=            -22.0587
 XXYZ=             -0.0004 YYXZ=              0.0004 ZZXY=              2.2094
 N-N= 7.660289473701D+01 E-N=-1.531970450708D+03  KE= 5.812143131099D+02
                          Isotropic Fermi Contact Couplings
        Atom                 a.u.       MegaHertz       Gauss      10(-4) cm-1
     1  Si(29)             0.04703     -41.79786     -14.91452     -13.94227
     2  Si(29)             0.04703     -41.79784     -14.91451     -13.94226
     3  H(1)              -0.00163      -7.27719      -2.59668      -2.42741
     4  H(1)              -0.00162      -7.25943      -2.59035      -2.42149
     5  H(1)              -0.00163      -7.27722      -2.59669      -2.42742
     6  H(1)              -0.00162      -7.25064      -2.58721      -2.41855
     7  H(1)              -0.00163      -7.27808      -2.59700      -2.42771
     8  H(1)              -0.00163      -7.26753      -2.59323      -2.42419
 --------------------------------------------------------
       Center         ----  Spin Dipole Couplings  ----
                      3XX-RR        3YY-RR        3ZZ-RR
 --------------------------------------------------------
     1   Atom        0.889268     -0.444618     -0.444650
     2   Atom        0.889268     -0.444619     -0.444650
     3   Atom        0.005594      0.008109     -0.013703
     4   Atom        0.005592     -0.008251      0.002659
     5   Atom        0.005594     -0.008249      0.002656
     6   Atom        0.005592     -0.008250      0.002658
     7   Atom        0.005594      0.008109     -0.013702
     8   Atom        0.005594     -0.008248      0.002654
 --------------------------------------------------------
                        XY            XZ            YZ
 --------------------------------------------------------
     1   Atom        0.000089     -0.000186      0.000001
     2   Atom        0.000063      0.000386     -0.000005
     3   Atom       -0.004573      0.000004      0.000001
     4   Atom        0.002284     -0.003958     -0.009444
     5   Atom        0.002288     -0.003959     -0.009444
     6   Atom        0.002283      0.003958      0.009446
     7   Atom       -0.004573     -0.000002     -0.000002
     8   Atom        0.002288      0.003958      0.009445
 --------------------------------------------------------


 ---------------------------------------------------------------------------------
              Anisotropic Spin Dipole Couplings in Principal Axis System
 ---------------------------------------------------------------------------------

       Atom             a.u.   MegaHertz   Gauss  10(-4) cm-1        Axes

              Baa    -0.4447    47.170    16.832    15.734  0.0001 -0.0459  0.9989
     1 Si(29) Bbb    -0.4446    47.167    16.830    15.733 -0.0001  0.9989  0.0459
              Bcc     0.8893   -94.337   -33.662   -31.468  1.0000  0.0001 -0.0001
 
              Baa    -0.4447    47.170    16.832    15.734 -0.0003  0.1500  0.9887
     2 Si(29) Bbb    -0.4446    47.167    16.830    15.733 -0.0000  0.9887 -0.1500
              Bcc     0.8893   -94.337   -33.662   -31.467  1.0000  0.0000  0.0003
 
              Baa    -0.0137    -7.311    -2.609    -2.439 -0.0002 -0.0001  1.0000
     3 H(1)   Bbb     0.0021     1.125     0.401     0.375  0.7953  0.6062  0.0002
              Bcc     0.0116     6.186     2.207     2.063 -0.6062  0.7953 -0.0001
 
              Baa    -0.0137    -7.311    -2.609    -2.439  0.0000  0.8661  0.4999
     4 H(1)   Bbb     0.0021     1.126     0.402     0.376  0.7955 -0.3029  0.5248
              Bcc     0.0116     6.185     2.207     2.063 -0.6060 -0.3977  0.6890
 
              Baa    -0.0137    -7.311    -2.609    -2.439 -0.0001  0.8660  0.5000
     5 H(1)   Bbb     0.0021     1.125     0.401     0.375  0.7953 -0.3030  0.5250
              Bcc     0.0116     6.186     2.207     2.063 -0.6062 -0.3977  0.6887
 
              Baa    -0.0137    -7.312    -2.609    -2.439  0.0001  0.8660 -0.5000
     6 H(1)   Bbb     0.0021     1.127     0.402     0.376  0.7955 -0.3030 -0.5247
              Bcc     0.0116     6.184     2.207     2.063  0.6059  0.3977  0.6890
 
              Baa    -0.0137    -7.311    -2.609    -2.439  0.0001  0.0001  1.0000
     7 H(1)   Bbb     0.0021     1.125     0.401     0.375  0.7953  0.6062 -0.0002
              Bcc     0.0116     6.186     2.207     2.063 -0.6062  0.7953 -0.0000
 
              Baa    -0.0137    -7.311    -2.609    -2.439 -0.0001  0.8660 -0.5001
     8 H(1)   Bbb     0.0021     1.126     0.402     0.375  0.7954 -0.3030 -0.5249
              Bcc     0.0116     6.185     2.207     2.063  0.6061  0.3978  0.6888
 

 ---------------------------------------------------------------------------------

 No NMR shielding tensors so no spin-rotation constants.
 Leave Link  601 at Mon Apr 21 20:14:24 2025, MaxMem=   536870912 cpu:               1.9 elap:               0.5
 (Enter /home/szhao/Apps/g16/l9999.exe)
 1\1\GINC-NODE05\FOpt\UM062X\6-311+G(d,p)\H6Si2(1+,2)\SZHAO\21-Apr-2025
 \0\\#p opt UM062X/6-311+G** nosymm int=superfine\\Title Card Required\
 \1,2\Si,-1.62629201,0.,0.\Si,1.62629201,0.,0.\H,1.7956116476,-1.455355
 9179,0.0000114121\H,-1.7954014772,-0.7275760367,1.2604537623\H,1.79589
 67976,0.7277081817,-1.2603090009\H,1.7952544075,0.7276678293,1.2604209
 282\H,-1.7956366821,1.4553529195,-0.0000936329\H,-1.7957248185,-0.7278
 066403,-1.2602758495\\Version=ES64L-G16RevA.03\HF=-582.16696\S2=0.7534
 13\S2-1=0.\S2A=0.750009\RMSD=1.195e-09\RMSF=1.141e-05\Dipole=0.,0.0000
 01,-0.0000194\Quadrupole=8.6242798,-4.3121108,-4.312169,-0.0000374,0.0
 00017,0.0000016\PG=C01 [X(H6Si2)]\\@


 KNIGHT- SIRE, I'VE JUST RETURNED FROM THE FRONT
 KING-   HOW GOES THE BATTLE                    
 KNIGHT- THE SITUATION IS QUITE FLUID           
 KING-   WHAT DOES *THAT* MEAN                  
 KNIGHT- WE'RE UP THE CREEK                     
                THE WIZARD OF ID                
 Job cpu time:       0 days  0 hours  6 minutes  2.4 seconds.
 Elapsed time:       0 days  0 hours  0 minutes 53.3 seconds.
 File lengths (MBytes):  RWF=     22 Int=      0 D2E=      0 Chk=      3 Scr=      2
 Normal termination of Gaussian 16 at Mon Apr 21 20:14:25 2025.
