Title Card Required                                                     
FOpt      UM062X                                                      6-311+G(d,p)        
Number of atoms                            I                4
Info1-9                                    I   N=           9
          13          13           0           0           0         110
           2          18        -502
Full Title                                 C   N=           2
Title Card Required     
Route                                      C   N=           5
#p opt UM062X/6-311+G** nosymm int=superfine SCF=NoVarAcc   
Charge                                     I                1
Multiplicity                               I                2
Number of electrons                        I               13
Number of alpha electrons                  I                7
Number of beta electrons                   I                6
Number of basis functions                  I               56
Number of independent functions            I               56
Number of point charges in /Mol/           I                0
Number of translation vectors              I                0
Atomic numbers                             I   N=           4
           6           6           1           1
Nuclear charges                            R   N=           4
  6.00000000E+00  6.00000000E+00  1.00000000E+00  1.00000000E+00
Current cartesian coordinates              R   N=          12
 -1.01708084E+01  0.00000000E+00  0.00000000E+00  1.01708084E+01  0.00000000E+00
  0.00000000E+00 -1.22834337E+01 -1.49227369E-13 -1.02963080E-12  1.22834319E+01
 -2.07559591E-13 -1.03714719E-12
Number of symbols in /Mol/                 I                0
Force Field                                I                0
Atom Types                                 C   N=           4
                                                
Int Atom Types                             I   N=           4
           0           0           0           0
MM charges                                 R   N=           4
  0.00000000E+00  0.00000000E+00  0.00000000E+00  0.00000000E+00
Integer atomic weights                     I   N=           4
          12          12           1           1
Real atomic weights                        R   N=           4
  1.20000000E+01  1.20000000E+01  1.00782504E+00  1.00782504E+00
Atom fragment info                         I   N=           4
           0           0           0           0
Atom residue num                           I   N=           4
           0           0           0           0
Nuclear spins                              I   N=           4
           0           0           1           1
Nuclear ZEff                               R   N=           4
 -3.60000000E+00 -3.60000000E+00 -1.00000000E+00 -1.00000000E+00
Nuclear ZNuc                               R   N=           4
  6.00000000E+00  6.00000000E+00  1.00000000E+00  1.00000000E+00
Nuclear QMom                               R   N=           4
  0.00000000E+00  0.00000000E+00  0.00000000E+00  0.00000000E+00
Nuclear GFac                               R   N=           4
  0.00000000E+00  0.00000000E+00  2.79284600E+00  2.79284600E+00
MicOpt                                     I   N=           4
          -2          -2          -1          -1
Number of residues                         I                0
Number of secondary structures             I                0
Redundant internal dimensions              I   N=           4
          12           8           4           0
Redundant internal coordinate indices      I   N=          48
           1          -1           0           0           1          -2
           0           0           1          -3           0           0
           2          -1           0           0           2          -2
           0           0           2          -3           0           0
           1           3           0           0           2           4
           0           0           2           1           3          -4
           1           2           4          -4           2           1
           3          -8           1           2           4          -8
Redundant internal coordinates             R   N=          12
 -1.01708084E+01  0.00000000E+00  0.00000000E+00  1.01708084E+01  0.00000000E+00
  0.00000000E+00  2.11262534E+00  2.11262356E+00  3.14159265E+00  3.14159265E+00
  3.14159265E+00  3.14159265E+00
ZRed-IntVec                                I   N=          12
          -1          -1          -1          -1          -1          -1
           0           0           0           0           0           0
ZRed-FPVec                                 R   N=          12
  0.00000000E+00  0.00000000E+00  0.00000000E+00  0.00000000E+00  0.00000000E+00
  0.00000000E+00  0.00000000E+00  0.00000000E+00  0.00000000E+00  0.00000000E+00
  0.00000000E+00  0.00000000E+00
ZRed-Constraint1                           R   N=          12
 -1.01708084E+01  0.00000000E+00  0.00000000E+00  1.01708084E+01  0.00000000E+00
  0.00000000E+00  2.08057524E+00  2.08053366E+00  3.14159265E+00  3.14159265E+00
  3.14159265E+00  3.14159265E+00
ZRed-Constraint2                           R   N=          12
 -1.01708084E+01  0.00000000E+00  0.00000000E+00  1.01708084E+01  0.00000000E+00
  0.00000000E+00  0.00000000E+00  0.00000000E+00  0.00000000E+00  0.00000000E+00
  0.00000000E+00  0.00000000E+00
Number of contracted shells                I               20
Number of primitive shells                 I               38
Pure/Cartesian d shells                    I                0
Pure/Cartesian f shells                    I                0
Highest angular momentum                   I                2
Largest degree of contraction              I                6
Shell types                                I   N=          20
           0          -1          -1          -1          -1          -2
           0          -1          -1          -1          -1          -2
           0           0           0           1           0           0
           0           1
Number of primitives per shell             I   N=          20
           6           3           1           1           1           1
           6           3           1           1           1           1
           3           1           1           1           3           1
           1           1
Shell to atom map                          I   N=          20
           1           1           1           1           1           1
           2           2           2           2           2           2
           3           3           3           3           4           4
           4           4
Primitive exponents                        R   N=          38
  4.56324000E+03  6.82024000E+02  1.54973000E+02  4.44553000E+01  1.30290000E+01
  1.82773000E+00  2.09642000E+01  4.80331000E+00  1.45933000E+00  4.83456000E-01
  1.45585000E-01  4.38000000E-02  6.26000000E-01  4.56324000E+03  6.82024000E+02
  1.54973000E+02  4.44553000E+01  1.30290000E+01  1.82773000E+00  2.09642000E+01
  4.80331000E+00  1.45933000E+00  4.83456000E-01  1.45585000E-01  4.38000000E-02
  6.26000000E-01  3.38650000E+01  5.09479000E+00  1.15879000E+00  3.25840000E-01
  1.02741000E-01  7.50000000E-01  3.38650000E+01  5.09479000E+00  1.15879000E+00
  3.25840000E-01  1.02741000E-01  7.50000000E-01
Contraction coefficients                   R   N=          38
  1.96665025E-03  1.52306019E-02  7.61269097E-02  2.60801033E-01  6.16462078E-01
  2.21006028E-01  1.14660081E-01  9.19999648E-01 -3.03068213E-03  1.00000000E+00
  1.00000000E+00  1.00000000E+00  1.00000000E+00  1.96665025E-03  1.52306019E-02
  7.61269097E-02  2.60801033E-01  6.16462078E-01  2.21006028E-01  1.14660081E-01
  9.19999648E-01 -3.03068213E-03  1.00000000E+00  1.00000000E+00  1.00000000E+00
  1.00000000E+00  2.54938145E-02  1.90373109E-01  8.52161486E-01  1.00000000E+00
  1.00000000E+00  1.00000000E+00  2.54938145E-02  1.90373109E-01  8.52161486E-01
  1.00000000E+00  1.00000000E+00  1.00000000E+00
P(S=P) Contraction coefficients            R   N=          38
  0.00000000E+00  0.00000000E+00  0.00000000E+00  0.00000000E+00  0.00000000E+00
  0.00000000E+00  4.02486927E-02  2.37593957E-01  8.15853851E-01  1.00000000E+00
  1.00000000E+00  1.00000000E+00  0.00000000E+00  0.00000000E+00  0.00000000E+00
  0.00000000E+00  0.00000000E+00  0.00000000E+00  0.00000000E+00  4.02486927E-02
  2.37593957E-01  8.15853851E-01  1.00000000E+00  1.00000000E+00  1.00000000E+00
  0.00000000E+00  0.00000000E+00  0.00000000E+00  0.00000000E+00  0.00000000E+00
  0.00000000E+00  0.00000000E+00  0.00000000E+00  0.00000000E+00  0.00000000E+00
  0.00000000E+00  0.00000000E+00  0.00000000E+00
Coordinates of each shell                  R   N=          60
 -1.01708084E+01  0.00000000E+00  0.00000000E+00 -1.01708084E+01  0.00000000E+00
  0.00000000E+00 -1.01708084E+01  0.00000000E+00  0.00000000E+00 -1.01708084E+01
  0.00000000E+00  0.00000000E+00 -1.01708084E+01  0.00000000E+00  0.00000000E+00
 -1.01708084E+01  0.00000000E+00  0.00000000E+00  1.01708084E+01  0.00000000E+00
  0.00000000E+00  1.01708084E+01  0.00000000E+00  0.00000000E+00  1.01708084E+01
  0.00000000E+00  0.00000000E+00  1.01708084E+01  0.00000000E+00  0.00000000E+00
  1.01708084E+01  0.00000000E+00  0.00000000E+00  1.01708084E+01  0.00000000E+00
  0.00000000E+00 -1.22834337E+01 -1.49227369E-13 -1.02963080E-12 -1.22834337E+01
 -1.49227369E-13 -1.02963080E-12 -1.22834337E+01 -1.49227369E-13 -1.02963080E-12
 -1.22834337E+01 -1.49227369E-13 -1.02963080E-12  1.22834319E+01 -2.07559591E-13
 -1.03714719E-12  1.22834319E+01 -2.07559591E-13 -1.03714719E-12  1.22834319E+01
 -2.07559591E-13 -1.03714719E-12  1.22834319E+01 -2.07559591E-13 -1.03714719E-12
Num ILSW                                   I              100
ILSW                                       I   N=         100
           1           0           0           0           2           0
           0           0           0           0        4336          -1
           7           0           0           0           2           0
           0           0           0           0           1           0
           1           1           0           0           0           0
           0           0      100000           0          -1           0
           0           0           0           0           0           0
           0           0           0           1           0           0
           0 -2000000000           1           0           0           0
           0           0           4          52           0           0
           0           0          55           0           0           0
           0           0           0           4           0           1
           0           0           0           0           0           0
           0           0           0           0           0           0
           0           0           0           0           0           0
           0           0           0           0           0           0
           0           0           0           0
Num RLSW                                   I               52
RLSW                                       R   N=          52
  1.00000000E+00  1.00000000E+00  1.00000000E+00  1.00000000E+00  5.40000000E-01
  0.00000000E+00  0.00000000E+00  1.00000000E+00  0.00000000E+00  0.00000000E+00
  0.00000000E+00  0.00000000E+00  1.00000000E+00  0.00000000E+00  0.00000000E+00
  0.00000000E+00  0.00000000E+00  1.00000000E+00  0.00000000E+00  0.00000000E+00
  0.00000000E+00  0.00000000E+00  1.00000000E+00  0.00000000E+00  0.00000000E+00
  0.00000000E+00  0.00000000E+00  1.00000000E+00  0.00000000E+00  0.00000000E+00
  0.00000000E+00  0.00000000E+00  1.00000000E+00  0.00000000E+00  0.00000000E+00
  0.00000000E+00  0.00000000E+00  0.00000000E+00  1.00000000E+00  1.00000000E+00
  0.00000000E+00  1.00000000E+00  0.00000000E+00  0.00000000E+00  0.00000000E+00
  0.00000000E+00  0.00000000E+00  0.00000000E+00  0.00000000E+00  0.00000000E+00
  0.00000000E+00  0.00000000E+00
MxBond                                     I                2
NBond                                      I   N=           4
           2           2           1           1
IBond                                      I   N=           8
           2           3           1           4           1           0
           2           0
RBond                                      R   N=           8
  1.00000000E-01  1.00000000E+00  1.00000000E-01  1.00000000E+00  1.00000000E+00
  0.00000000E+00  1.00000000E+00  0.00000000E+00
Virial Ratio                               R      2.002700852472061E+00
SCF Energy                                 R     -7.658417527686413E+01
Total Energy                               R     -7.658417527686413E+01
S**2                                       R      7.513028389347118E-01
S**2 after annihilation                    R      7.500012212663159E-01
RMS Force                                  R      1.393773209140472E-04
RMS Density                                R      3.764270360445943E-09
Job Status                                 I                1
Nuclear derivative order                   I                1
External E-field                           R   N=          35
  0.00000000E+00  0.00000000E+00  0.00000000E+00  0.00000000E+00  0.00000000E+00
  0.00000000E+00  0.00000000E+00  0.00000000E+00  0.00000000E+00  0.00000000E+00
  0.00000000E+00  0.00000000E+00  0.00000000E+00  0.00000000E+00  0.00000000E+00
  0.00000000E+00  0.00000000E+00  0.00000000E+00  0.00000000E+00  0.00000000E+00
  0.00000000E+00  0.00000000E+00  0.00000000E+00  0.00000000E+00  0.00000000E+00
  0.00000000E+00  0.00000000E+00  0.00000000E+00  0.00000000E+00  0.00000000E+00
  0.00000000E+00  0.00000000E+00  0.00000000E+00  0.00000000E+00  0.00000000E+00
IOpCl                                      I                1
IROHF                                      I                0
Alpha Orbital Energies                     R   N=          56
 -1.09141116E+01 -1.09141112E+01 -9.51996736E-01 -9.51960266E-01 -6.02406625E-01
 -6.02390414E-01 -4.26676035E-01 -4.00359918E-01 -3.01479199E-01 -3.01478741E-01
 -9.11210523E-02 -9.11073233E-02 -3.85352530E-02 -3.84253146E-02 -3.82432500E-02
 -3.68563800E-02 -3.67440164E-02 -3.63956588E-02  2.26908299E-02  2.30345232E-02
  3.04648833E-01  3.05774156E-01  3.97831611E-01  3.97921061E-01  4.06898417E-01
  4.06990042E-01  4.33300887E-01  4.33410275E-01  4.99446408E-01  5.00539158E-01
  9.23511186E-01  9.23511798E-01  9.25432791E-01  9.25484555E-01  1.10798172E+00
  1.10800791E+00  1.11834397E+00  1.11836970E+00  1.38337603E+00  1.38372873E+00
  1.65654074E+00  1.65654385E+00  1.65933248E+00  1.65934067E+00  2.18726604E+00
  2.18736188E+00  2.30713699E+00  2.30757839E+00  2.46946228E+00  2.46951208E+00
  2.48378079E+00  2.48383087E+00  2.96311000E+00  2.96355414E+00  2.32691214E+01
  2.32693533E+01
Beta Orbital Energies                      R   N=          56
 -1.09099642E+01 -1.09099641E+01 -9.28356663E-01 -9.28356422E-01 -5.88490521E-01
 -5.88490488E-01 -2.82642879E-01 -2.82642561E-01 -2.66314946E-01 -2.66314451E-01
 -9.31982812E-02 -9.31855059E-02 -3.82882561E-02 -3.64722561E-02 -3.05869417E-02
 -3.04776919E-02 -2.13404323E-02 -2.12321276E-02  4.07353757E-02  4.11131547E-02
  2.97943441E-01  2.99167530E-01  4.02450738E-01  4.02554746E-01  4.05020273E-01
  4.05118206E-01  4.62847755E-01  4.63171325E-01  5.21213104E-01  5.22069552E-01
  9.94765756E-01  9.94766511E-01  1.00379766E+00  1.00379839E+00  1.14063180E+00
  1.14063208E+00  1.14073379E+00  1.14073383E+00  1.38739201E+00  1.38775207E+00
  1.67375754E+00  1.67376064E+00  1.68052141E+00  1.68052447E+00  2.34579837E+00
  2.34617197E+00  2.35482105E+00  2.35489512E+00  2.49556372E+00  2.49561380E+00
  2.51911760E+00  2.51916678E+00  3.05701174E+00  3.05754148E+00  2.32822576E+01
  2.32824894E+01
Alpha MO coefficients                      R   N=        3136
  4.53982584E-01  3.74023281E-01 -1.63049862E-03  2.60609031E-16 -2.13968096E-16
  7.52352521E-03 -9.55148659E-04  2.18980874E-16 -7.66303391E-16 -3.18855241E-03
 -5.75288385E-05 -5.36698756E-17  8.88377486E-16  3.49169441E-04  5.17274357E-04
 -6.84975196E-17 -1.49311940E-16 -3.91473491E-04  1.60554735E-16  1.61646826E-05
  6.71403059E-04 -6.15630155E-17  3.34692898E-01  2.75743970E-01  1.20198842E-03
  7.99818705E-16 -3.92082899E-16  5.54623252E-03  7.04380879E-04 -4.57818974E-16
 -1.65272933E-16 -2.34963839E-03  4.17717635E-05  3.16069958E-16  4.76225001E-16
  2.57919880E-04 -3.79764231E-04 -1.46102421E-16 -7.63851334E-17 -2.88553732E-04
  2.10770963E-16  1.18684649E-05  4.94908158E-04 -1.75502495E-16  2.96251639E-04
 -2.11528580E-03  1.75721617E-03 -1.48850531E-03 -6.23027276E-16 -2.35059647E-15
  2.18202791E-04 -1.55852202E-03  1.29339625E-03  1.09739288E-03 -3.04543450E-16
 -2.06696822E-15 -3.34692936E-01 -2.75743765E-01  1.20232176E-03 -5.55407212E-16
  9.16963796E-16 -5.54796759E-03  7.03487944E-04  2.75529150E-16 -4.53081965E-16
  2.35437265E-03  4.45781510E-05 -3.22213793E-16  1.96051736E-16 -2.55723970E-04
 -3.86732959E-04  1.21654937E-16 -3.69308286E-16  2.88801483E-04  3.55387976E-17
 -1.20819995E-05 -4.95249153E-04 -1.34484302E-16  4.53982612E-01  3.74023128E-01
  1.63074452E-03  1.10942883E-15 -1.17127260E-15  7.52481773E-03  9.54506175E-04
 -7.58008653E-16  6.17617056E-16 -3.19204020E-03  5.95975038E-05  6.07486972E-16
 -8.01619320E-17  3.47544945E-04 -5.22414161E-04 -2.31412805E-16  2.42203480E-16
 -3.91659964E-04  7.89711964E-17  1.63220941E-05  6.71661481E-04 -1.20825115E-16
 -2.19096950E-04  1.56270068E-03 -1.30256923E-03  1.09736361E-03  1.98033224E-16
  1.88088179E-15  2.96908425E-04 -2.11838847E-03  1.76399116E-03  1.48849601E-03
 -5.36194041E-16 -2.59703026E-15 -7.95167478E-02 -1.29816039E-01 -5.61844148E-02
 -4.94934073E-15 -1.91303076E-14  3.82818751E-01 -8.61827396E-02  5.65784320E-14
 -1.52391353E-14  2.41917438E-01 -3.20506006E-02 -6.30492102E-15  9.79404824E-15
 -5.41813857E-03 -2.28524216E-03  5.78106878E-15 -6.15123194E-15 -4.18906862E-03
 -1.34398865E-14 -3.70209608E-04  7.40810762E-03 -3.09815862E-14 -8.00078325E-02
 -1.30617762E-01  5.65315795E-02 -6.59575272E-15 -1.91793931E-14  3.85182978E-01
  8.67152116E-02  7.98315934E-14 -1.52687527E-14  2.43411206E-01  3.22484744E-02
 -9.16677951E-15  9.80041912E-15 -5.45174903E-03  2.29951261E-03  8.45977134E-15
 -5.86638762E-15 -4.21498009E-03  1.41364381E-14 -3.72433532E-04  7.45389737E-03
  3.94746937E-14  9.81785412E-02  1.22011922E-01 -2.16346052E-03  1.68221906E-02
 -6.64023664E-14 -2.10457699E-14  9.87850834E-02  1.22765802E-01 -2.17687602E-03
 -1.69261121E-02 -9.27102777E-14 -2.12524388E-14 -8.00064858E-02 -1.30615711E-01
 -5.65409576E-02 -5.26119582E-15 -1.92411523E-14  3.85184877E-01 -8.67299449E-02
  5.72879857E-14 -1.52145023E-14  2.43386155E-01 -3.22351237E-02 -7.31602827E-15
  1.01420714E-14 -5.47714527E-03 -2.32448917E-03  6.41158445E-15 -6.28066375E-15
 -4.21908370E-03 -1.35376669E-14 -3.61907617E-04  7.45667653E-03 -3.10953811E-14
  7.95153553E-02  1.29813905E-01 -5.61940496E-02  7.13031920E-15  1.89954053E-14
 -3.82820358E-01 -8.61977592E-02 -7.97164311E-14  1.48348947E-14 -2.41891815E-01
 -3.20371781E-02  9.27107988E-15 -9.89926031E-15  5.44367096E-03 -2.31037612E-03
 -8.38510976E-15  5.95001328E-15  4.19322440E-03 -1.42271047E-14  3.59623932E-04
 -7.41094075E-03 -3.92668832E-14  9.87908826E-02  1.22801178E-01 -2.18256959E-03
  1.69285416E-02 -6.67506351E-14 -2.12247932E-14 -9.81846450E-02 -1.22047695E-01
  2.16922549E-03  1.68246532E-02  9.22115889E-14  2.12878000E-14 -4.26157900E-02
 -7.10478783E-02  1.66171279E-01 -2.86254249E-14  3.67454533E-14  2.20176317E-01
  2.45837390E-01 -1.30541472E-13  3.97921095E-14  2.62921623E-01  1.41256470E-01
 -3.16843955E-14 -8.76245921E-15  1.80172419E-02 -1.95002549E-03 -1.79279457E-15
  2.19889352E-15  1.48671673E-02  3.15819741E-15 -9.31157709E-06 -2.57468911E-02
  4.27288267E-14 -4.26882381E-02 -7.11686637E-02 -1.66453635E-01 -3.88715708E-14
  2.87995161E-14  2.20550632E-01 -2.46255065E-01 -1.81528989E-13  2.90551424E-14
  2.63368673E-01 -1.41496413E-01 -4.40569323E-14 -1.71179373E-14  1.80478220E-02
  1.95335769E-03 -2.20982899E-15  3.14525791E-15  1.48924280E-02 -2.58143728E-15
 -9.31386803E-06 -2.57906433E-02 -5.81386023E-14 -9.53281161E-02 -1.71475977E-01
 -7.78349687E-02 -7.89565411E-03  1.94808484E-14  1.94442778E-14 -9.54900449E-02
 -1.71767213E-01 -7.79672029E-02  7.90905350E-03  3.22353424E-14  1.94158580E-14
 -4.26953604E-02 -7.11806825E-02  1.66451382E-01 -2.93064979E-14  3.72081499E-14
  2.20595561E-01  2.46252091E-01 -1.32642049E-13  4.17285064E-14  2.63373102E-01
  1.41511354E-01 -3.26354844E-14 -7.96742394E-15  1.80121929E-02 -1.96039569E-03
 -2.06129218E-15  2.63360006E-15  1.48893998E-02  2.98324504E-15 -8.69118309E-07
 -2.57888755E-02  4.27310923E-14  4.26229793E-02  7.10600122E-02  1.66169059E-01
  3.96071130E-14 -2.98057802E-14 -2.20221596E-01  2.45834366E-01  1.82214518E-13
 -3.00020986E-14 -2.62926683E-01  1.41271254E-01  4.49883174E-14  1.56349973E-14
 -1.79816073E-02 -1.95708930E-03  2.24098343E-15 -2.92158096E-15 -1.48641441E-02
  2.82446686E-15  8.54144491E-07  2.57451376E-02  5.78998762E-14 -9.54826403E-02
 -1.71744521E-01 -7.79554101E-02 -7.90627930E-03  1.95002325E-14  1.95355085E-14
  9.53206377E-02  1.71453087E-01  7.78231655E-02 -7.89285244E-03 -3.23216163E-14
 -1.95309393E-14 -1.33902770E-16  8.37061345E-15 -1.09494528E-13 -1.31555184E-01
  1.61401746E-01 -1.03391901E-13  4.02687956E-15 -2.07104222E-01  2.54090776E-01
  4.65084309E-13 -4.90715677E-13 -1.87348664E-01  2.29853178E-01  5.92706730E-13
 -3.47349525E-13 -1.54593436E-02  1.89666667E-02  1.83058566E-14 -1.45692679E-02
  8.48992069E-15 -3.07437636E-14  1.18751013E-02 -9.39861307E-16  9.00761087E-15
  1.32493252E-13 -1.31555813E-01  1.61401248E-01 -1.42710147E-13  3.07512509E-15
 -2.07105221E-01  2.54090001E-01  7.71315267E-13  7.38732854E-13 -1.87349569E-01
  2.29852480E-01  8.77670969E-13  5.11594265E-13 -1.54594169E-02  1.89666073E-02
  1.22903269E-14  1.45692370E-02  9.33465130E-15 -1.95173995E-14 -1.18751696E-02
 -6.26962609E-15  1.74675319E-13 -1.31984935E-12  9.04574184E-14 -1.02890633E-02
  1.26233883E-02 -6.98382624E-15  1.48743193E-13 -1.97302835E-12 -8.88883815E-14
 -1.02891215E-02  1.26233603E-02  2.06606718E-16  8.98216514E-15 -1.10785040E-13
 -1.31537447E-01  1.61380012E-01 -1.05926874E-13  2.51665848E-15 -2.07069867E-01
  2.54048671E-01  4.66051746E-13 -4.93835291E-13 -1.87327348E-01  2.29827067E-01
  5.97940691E-13 -3.48122189E-13 -1.55103797E-02  1.90292880E-02  1.80565080E-14
 -1.48452203E-02  8.88238935E-15 -3.04213756E-14  1.21000227E-02  5.96322438E-16
 -9.51407099E-15 -1.33943836E-13  1.31538049E-01 -1.61379480E-01  1.44874358E-13
 -6.27464356E-15  2.07070823E-01 -2.54047843E-01 -7.73918453E-13 -7.42674119E-13
  1.87328214E-01 -2.29826321E-01 -8.81500457E-13 -5.11552234E-13  1.55104500E-02
 -1.90292244E-02 -1.18352060E-14 -1.48451855E-02 -9.49353638E-15  1.87738103E-14
  1.21000895E-02 -5.97654309E-15  1.75329006E-13 -1.32622980E-12  9.03888405E-14
 -1.03965102E-02  1.27552143E-02  6.47702040E-15 -1.47262216E-13  1.97976903E-12
  8.85517506E-14  1.03965667E-02 -1.27551833E-02 -1.30575089E-15 -3.89180715E-15
  5.19274831E-14  1.55488208E-01  1.26735336E-01  1.48036099E-13  1.03324101E-13
  2.51231445E-01  2.04773593E-01 -1.33419304E-12  1.03357119E-12  2.39991967E-01
  1.95612498E-01 -1.19895125E-12  6.99819666E-13  4.54749935E-02  3.70657516E-02
  4.62376192E-14 -1.14543557E-02  1.52320206E-15 -9.86592122E-14 -1.40530398E-02
 -2.09289243E-15 -7.46273821E-15 -8.32582223E-14  1.47548075E-01  1.20264440E-01
  1.98581711E-13 -1.14602562E-13  2.38402158E-01  1.94318235E-01 -1.65083332E-12
 -1.31383467E-12  2.27736469E-01  1.85624757E-01 -1.53708212E-12 -8.99369266E-13
  4.31531032E-02  3.51735025E-02  5.16661570E-14  1.08695234E-02  1.87814091E-15
 -1.08937327E-13  1.33354197E-02 -1.09634232E-14  2.74764219E-13  2.70982991E-12
  1.24409476E-13  1.36914338E-02  1.11596105E-02 -1.23278129E-14  2.73600246E-13
  3.45853056E-12 -1.21541316E-13  1.29922838E-02  1.05898309E-02  1.18702333E-15
  3.56914694E-15 -4.93902890E-14 -1.47549181E-01 -1.20264372E-01 -1.39947148E-13
 -9.79601538E-14 -2.38402969E-01 -1.94317330E-01  1.26681883E-12 -9.81687554E-13
 -2.27740777E-01 -1.85626774E-01  1.13855363E-12 -6.64310360E-13 -4.31469951E-02
 -3.51682443E-02 -4.41186646E-14  1.08695176E-02 -1.38817452E-15  9.35128843E-14
  1.33355204E-02 -2.22026327E-15 -7.97960245E-15 -8.79265481E-14  1.55488312E-01
  1.26736396E-01  2.10101339E-13 -1.21375113E-13  2.51230694E-01  2.04774556E-01
 -1.74229676E-12 -1.38520291E-12  2.39994631E-01  1.95616177E-01 -1.61871153E-12
 -9.47854467E-13  4.54689363E-02  3.70611035E-02  5.45023361E-14  1.14544689E-02
  1.94437637E-15 -1.15051128E-13  1.40530707E-02  1.04413201E-14 -2.60081672E-13
 -2.57471358E-12 -1.17985681E-13 -1.29922962E-02 -1.05897557E-02 -1.30909383E-14
  2.89279827E-13  3.64564757E-12 -1.28317194E-13  1.36913834E-02  1.11596554E-02
  2.57312086E-02  4.31155567E-02  4.87193501E-02 -2.35278918E-14  1.90098775E-14
 -1.26313248E-01  1.03317441E-01  5.58186853E-14  5.15700127E-14 -5.17377989E-01
  1.23580177E-01 -1.99582371E-13  9.13432102E-14  9.57455420E-01 -3.72411057E-01
  1.75413154E-13 -1.68120030E-13  6.68891600E-03 -3.01823948E-14 -1.84798202E-03
 -1.08245500E-02 -5.81791483E-15  2.56629373E-02  4.30011826E-02 -4.85903809E-02
 -3.51917991E-14  2.19769763E-14 -1.25978503E-01 -1.03043591E-01  7.32989812E-14
  5.57608542E-14 -5.16003487E-01 -1.23253659E-01 -2.84355183E-13  9.90719878E-14
  9.54917735E-01  3.71431473E-01  2.65046729E-13 -1.85373140E-13  6.67126305E-03
  3.04779011E-14 -1.84311123E-03 -1.07960095E-02  8.92328790E-15 -3.99003017E-04
  1.31940299E-01 -8.98017906E-02 -4.38084840E-03  6.32863670E-14 -1.01283530E-13
 -3.98282713E-04  1.31590961E-01 -8.95685976E-02  4.36925046E-03  9.11493184E-14
 -1.01798386E-13 -2.56945888E-02 -4.30481373E-02 -4.84843865E-02  2.42435532E-14
 -1.94422192E-14  1.26015599E-01 -1.03034154E-01 -5.48160114E-14 -5.20048068E-14
  5.17232022E-01 -1.22674310E-01  2.00151814E-13 -9.22270393E-14 -9.55671670E-01
  3.68968392E-01 -1.77984304E-13  1.72892374E-13 -6.65185084E-03  2.99438130E-14
  1.83480929E-03  1.07657756E-02  5.37706355E-15  2.57627386E-02  4.31623364E-02
 -4.86132781E-02 -3.50210552E-14  2.09528809E-14 -1.26350227E-01 -1.03307710E-01
  7.35165368E-14  5.45536931E-14 -5.18602106E-01 -1.23001055E-01 -2.82131509E-13
  9.65568221E-14  9.58209095E-01  3.69955551E-01  2.56957975E-13 -1.77895808E-13
  6.66958826E-03  3.05674439E-14 -1.83970819E-03 -1.07945101E-02  9.00629066E-15
  3.25793175E-04 -1.31466736E-01  8.83763174E-02  4.34394316E-03 -6.33934136E-14
  1.00605920E-13 -3.26996607E-04  1.31816160E-01 -8.86158075E-02  4.35549018E-03
  9.13996502E-14 -1.02041266E-13  4.44998778E-14  7.99892889E-14 -6.34662082E-13
 -6.67931997E-02 -5.44475800E-02 -3.88371844E-13 -5.78763454E-13 -7.51627574E-02
 -6.12690058E-02  1.04936703E-12 -3.69045962E-12 -2.39120507E-01 -1.94924205E-01
  6.04363906E-12  2.63977985E-12  6.54087475E-01  5.33195384E-01 -1.03418064E-14
  4.45109088E-03 -6.68679458E-15  2.70715632E-14  5.46036600E-03  3.77730319E-14
  7.25177293E-14  7.89443766E-13 -6.67845723E-02 -5.44409494E-02 -4.33677777E-13
  7.02284593E-13 -7.51530405E-02 -6.12615427E-02  1.92871715E-12  4.71189899E-12
 -2.39089669E-01 -1.94900500E-01  7.67579805E-12 -2.34650005E-12  6.54003053E-01
  5.33130478E-01  3.73753472E-16 -4.45055586E-03 -8.59261509E-15  1.13141795E-14
 -5.45966922E-03 -1.12583179E-13 -3.63396462E-13 -6.60931345E-12  6.22316245E-14
  2.20230539E-03  1.79538153E-03 -1.85617128E-13 -4.14620942E-13 -9.37056698E-12
 -9.35712504E-14  2.20201121E-03  1.79515435E-03  2.48114978E-14  3.45078822E-14
  3.16025050E-13  6.68046449E-02  5.44568986E-02  6.43310559E-14  3.07324482E-13
  7.52378909E-02  6.13302430E-02 -2.38641458E-12  2.30566991E-12  2.38988649E-01
  1.94816670E-01 -3.70000860E-12  1.39923128E-12 -6.54054468E-01 -5.33168340E-01
 -1.38782331E-14 -4.45116265E-03  1.75697036E-15  1.69776396E-14 -5.46045491E-03
 -2.10636140E-15  6.64672960E-15  6.07685983E-13 -6.68128446E-02 -5.44640369E-02
 -2.47572508E-13  5.47883218E-13 -7.52471221E-02 -6.13382744E-02  2.70268050E-12
  3.92321045E-12 -2.39018024E-01 -1.94842247E-01  6.34117296E-12 -2.47676253E-14
  6.54134787E-01  5.33238285E-01  1.43073536E-14 -4.45175305E-03 -5.77776805E-15
 -1.41361476E-14 -5.46113374E-03  1.85540622E-13  2.50329539E-13  6.73245185E-12
 -1.20067385E-14 -2.20026157E-03 -1.79371456E-03 -2.28100869E-13 -3.50467217E-13
 -9.46046238E-12 -6.49317861E-14  2.20052130E-03  1.79394187E-03  1.31381777E-02
  2.17132020E-02 -6.09887299E-02  2.54380916E-13  3.61890621E-13 -6.16211841E-02
 -5.22296290E-02  2.75606306E-13  3.95165775E-13 -2.51667633E-01 -2.64995669E-01
  9.32872234E-13  1.29302458E-12  4.48661648E-01  7.66713049E-01 -2.42574234E-12
 -3.59000541E-12 -4.58564800E-03 -2.63182740E-14 -9.30251624E-04  8.32566202E-03
 -2.34978985E-14  1.31380635E-02  2.17130137E-02  6.09880997E-02  4.14383113E-13
  5.61266286E-13 -6.16206288E-02  5.22290212E-02  4.54004717E-13  6.11921560E-13
 -2.51665598E-01  2.64992991E-01  1.51275888E-12  2.01291676E-12  4.48657319E-01
 -7.66706011E-01 -3.96682258E-12 -5.58428034E-12 -4.58561321E-03  4.25929766E-14
 -9.30243989E-04  8.32558373E-03  3.43301013E-14  1.36711650E-02 -2.15318603E-02
  1.68158526E-02  9.61928310E-03 -1.18542984E-14 -6.28643218E-15  1.36710956E-02
 -2.15315371E-02  1.68161393E-02 -9.61920025E-03 -2.05778636E-14 -1.35306550E-14
  8.54386541E-14  1.31964114E-13  3.43751349E-14  5.01070239E-02 -6.14673277E-02
 -2.35074990E-13 -3.15182291E-14  4.73907105E-02 -5.81336540E-02 -3.19063582E-12
  8.36831474E-13  1.88859552E-01 -2.31679490E-01 -1.19778868E-12  4.52039823E-12
 -5.35793682E-01  6.57276102E-01 -5.47205456E-14  4.80600330E-03 -4.65476042E-15