Title Card Required                                                     
Force     UM062X                                                      6-311+G(d,p)        
Number of atoms                            I                6
Info1-9                                    I   N=           9
          15          15           0           0           0         100
           5          18        -502
Full Title                                 C   N=           2
Title Card Required     
Route                                      C   N=           4
#p UM062X/6-311+G** force int=superfine         
Charge                                     I                0
Multiplicity                               I                1
Number of electrons                        I               16
Number of alpha electrons                  I                8
Number of beta electrons                   I                8
Number of basis functions                  I               68
Number of independent functions            I               68
Number of point charges in /Mol/           I                0
Number of translation vectors              I                0
Atomic numbers                             I   N=           6
           6           6           1           1           1           1
Nuclear charges                            R   N=           6
  6.00000000E+00  6.00000000E+00  1.00000000E+00  1.00000000E+00  1.00000000E+00
  1.00000000E+00
Current cartesian coordinates              R   N=          18
 -9.28563617E-21  1.02717008E+00  0.00000000E+00 -1.25776579E-16 -1.02717008E+00
  0.00000000E+00 -1.69975007E+00  2.19467690E+00  0.00000000E+00  1.69989369E+00
  2.19460698E+00  0.00000000E+00  1.69975007E+00 -2.19467690E+00  0.00000000E+00
 -1.69989369E+00 -2.19460698E+00  0.00000000E+00
Number of symbols in /Mol/                 I                0
Force Field                                I                0
Atom Types                                 C   N=           6
                                                            
            
Int Atom Types                             I   N=           6
           0           0           0           0           0           0
MM charges                                 R   N=           6
  0.00000000E+00  0.00000000E+00  0.00000000E+00  0.00000000E+00  0.00000000E+00
  0.00000000E+00
Integer atomic weights                     I   N=           6
          12          12           1           1           1           1
Real atomic weights                        R   N=           6
  1.20000000E+01  1.20000000E+01  1.00782504E+00  1.00782504E+00  1.00782504E+00
  1.00782504E+00
Atom fragment info                         I   N=           6
           0           0           0           0           0           0
Atom residue num                           I   N=           6
           0           0           0           0           0           0
Nuclear spins                              I   N=           6
           0           0           1           1           1           1
Nuclear ZEff                               R   N=           6
 -3.60000000E+00 -3.60000000E+00 -1.00000000E+00 -1.00000000E+00 -1.00000000E+00
 -1.00000000E+00
Nuclear ZNuc                               R   N=           6
  6.00000000E+00  6.00000000E+00  1.00000000E+00  1.00000000E+00  1.00000000E+00
  1.00000000E+00
Nuclear QMom                               R   N=           6
  0.00000000E+00  0.00000000E+00  0.00000000E+00  0.00000000E+00  0.00000000E+00
  0.00000000E+00
Nuclear GFac                               R   N=           6
  0.00000000E+00  0.00000000E+00  2.79284600E+00  2.79284600E+00  2.79284600E+00
  2.79284600E+00
MicOpt                                     I   N=           6
          -1          -1          -1          -1          -1          -1
Number of residues                         I                0
Number of secondary structures             I                0
SymInf integers                            I   N=          26
           2           4           1           1           1          -1
          -1           1           1           1          -1          -1
          -1          -1           0           0           0           0
           0           0           0           0           0           0
           0           0
RotTr to input orientation                 R   N=          12
  4.89735710E-18  1.00000000E+00  0.00000000E+00 -1.00000000E+00  4.89434376E-18
  0.00000000E+00  0.00000000E+00  0.00000000E+00  1.00000000E+00  0.00000000E+00
  0.00000000E+00  0.00000000E+00
Number of contracted shells                I               28
Number of primitive shells                 I               50
Pure/Cartesian d shells                    I                0
Pure/Cartesian f shells                    I                0
Highest angular momentum                   I                2
Largest degree of contraction              I                6
Shell types                                I   N=          28
           0          -1          -1          -1          -1          -2
           0          -1          -1          -1          -1          -2
           0           0           0           1           0           0
           0           1           0           0           0           1
           0           0           0           1
Number of primitives per shell             I   N=          28
           6           3           1           1           1           1
           6           3           1           1           1           1
           3           1           1           1           3           1
           1           1           3           1           1           1
           3           1           1           1
Shell to atom map                          I   N=          28
           1           1           1           1           1           1
           2           2           2           2           2           2
           3           3           3           3           4           4
           4           4           5           5           5           5
           6           6           6           6
Primitive exponents                        R   N=          50
  4.56324000E+03  6.82024000E+02  1.54973000E+02  4.44553000E+01  1.30290000E+01
  1.82773000E+00  2.09642000E+01  4.80331000E+00  1.45933000E+00  4.83456000E-01
  1.45585000E-01  4.38000000E-02  6.26000000E-01  4.56324000E+03  6.82024000E+02
  1.54973000E+02  4.44553000E+01  1.30290000E+01  1.82773000E+00  2.09642000E+01
  4.80331000E+00  1.45933000E+00  4.83456000E-01  1.45585000E-01  4.38000000E-02
  6.26000000E-01  3.38650000E+01  5.09479000E+00  1.15879000E+00  3.25840000E-01
  1.02741000E-01  7.50000000E-01  3.38650000E+01  5.09479000E+00  1.15879000E+00
  3.25840000E-01  1.02741000E-01  7.50000000E-01  3.38650000E+01  5.09479000E+00
  1.15879000E+00  3.25840000E-01  1.02741000E-01  7.50000000E-01  3.38650000E+01
  5.09479000E+00  1.15879000E+00  3.25840000E-01  1.02741000E-01  7.50000000E-01
Contraction coefficients                   R   N=          50
  1.96665025E-03  1.52306019E-02  7.61269097E-02  2.60801033E-01  6.16462078E-01
  2.21006028E-01  1.14660081E-01  9.19999648E-01 -3.03068213E-03  1.00000000E+00
  1.00000000E+00  1.00000000E+00  1.00000000E+00  1.96665025E-03  1.52306019E-02
  7.61269097E-02  2.60801033E-01  6.16462078E-01  2.21006028E-01  1.14660081E-01
  9.19999648E-01 -3.03068213E-03  1.00000000E+00  1.00000000E+00  1.00000000E+00
  1.00000000E+00  2.54938145E-02  1.90373109E-01  8.52161486E-01  1.00000000E+00
  1.00000000E+00  1.00000000E+00  2.54938145E-02  1.90373109E-01  8.52161486E-01
  1.00000000E+00  1.00000000E+00  1.00000000E+00  2.54938145E-02  1.90373109E-01
  8.52161486E-01  1.00000000E+00  1.00000000E+00  1.00000000E+00  2.54938145E-02
  1.90373109E-01  8.52161486E-01  1.00000000E+00  1.00000000E+00  1.00000000E+00
P(S=P) Contraction coefficients            R   N=          50
  0.00000000E+00  0.00000000E+00  0.00000000E+00  0.00000000E+00  0.00000000E+00
  0.00000000E+00  4.02486927E-02  2.37593957E-01  8.15853851E-01  1.00000000E+00
  1.00000000E+00  1.00000000E+00  0.00000000E+00  0.00000000E+00  0.00000000E+00
  0.00000000E+00  0.00000000E+00  0.00000000E+00  0.00000000E+00  4.02486927E-02
  2.37593957E-01  8.15853851E-01  1.00000000E+00  1.00000000E+00  1.00000000E+00
  0.00000000E+00  0.00000000E+00  0.00000000E+00  0.00000000E+00  0.00000000E+00
  0.00000000E+00  0.00000000E+00  0.00000000E+00  0.00000000E+00  0.00000000E+00
  0.00000000E+00  0.00000000E+00  0.00000000E+00  0.00000000E+00  0.00000000E+00
  0.00000000E+00  0.00000000E+00  0.00000000E+00  0.00000000E+00  0.00000000E+00
  0.00000000E+00  0.00000000E+00  0.00000000E+00  0.00000000E+00  0.00000000E+00
Coordinates of each shell                  R   N=          84
 -6.19042411E-21  1.02717008E+00  0.00000000E+00 -6.19042411E-21  1.02717008E+00
  0.00000000E+00 -6.19042411E-21  1.02717008E+00  0.00000000E+00 -6.19042411E-21
  1.02717008E+00  0.00000000E+00 -6.19042411E-21  1.02717008E+00  0.00000000E+00
 -6.19042411E-21  1.02717008E+00  0.00000000E+00 -1.25779675E-16 -1.02717008E+00
  0.00000000E+00 -1.25779675E-16 -1.02717008E+00  0.00000000E+00 -1.25779675E-16
 -1.02717008E+00  0.00000000E+00 -1.25779675E-16 -1.02717008E+00  0.00000000E+00
 -1.25779675E-16 -1.02717008E+00  0.00000000E+00 -1.25779675E-16 -1.02717008E+00
  0.00000000E+00 -1.69975007E+00  2.19467690E+00  0.00000000E+00 -1.69975007E+00
  2.19467690E+00  0.00000000E+00 -1.69975007E+00  2.19467690E+00  0.00000000E+00
 -1.69975007E+00  2.19467690E+00  0.00000000E+00  1.69989369E+00  2.19460698E+00
  0.00000000E+00  1.69989369E+00  2.19460698E+00  0.00000000E+00  1.69989369E+00
  2.19460698E+00  0.00000000E+00  1.69989369E+00  2.19460698E+00  0.00000000E+00
  1.69975007E+00 -2.19467690E+00  0.00000000E+00  1.69975007E+00 -2.19467690E+00
  0.00000000E+00  1.69975007E+00 -2.19467690E+00  0.00000000E+00  1.69975007E+00
 -2.19467690E+00  0.00000000E+00 -1.69989369E+00 -2.19460698E+00  0.00000000E+00
 -1.69989369E+00 -2.19460698E+00  0.00000000E+00 -1.69989369E+00 -2.19460698E+00
  0.00000000E+00 -1.69989369E+00 -2.19460698E+00  0.00000000E+00
Num ILSW                                   I              100
ILSW                                       I   N=         100
           1           0           0           0           2           0
           0           0           0           0        4336          -1
           7           0           0           0           2           0
           0           0           0           0           1           0
           1           0           0           0           0           0
           0           0      100000           0          -1           0
           0           0           0           0           0           0
           0           0           0           1           0           0
           0 -2000000000           1           0           0           0
           0           0           4          52           0           0
           0           0          55           0           0           0
           0           0           0           6           0           1
           0           0           0           0           0           0
           0           0           0           0           0           0
           0           0           0           0           0           0
           0           0           0           0           0           0
           0           0           0           0
Num RLSW                                   I               52
RLSW                                       R   N=          52
  1.00000000E+00  1.00000000E+00  1.00000000E+00  1.00000000E+00  5.40000000E-01
  0.00000000E+00  0.00000000E+00  1.00000000E+00  0.00000000E+00  0.00000000E+00
  0.00000000E+00  0.00000000E+00  1.00000000E+00  0.00000000E+00  0.00000000E+00
  0.00000000E+00  0.00000000E+00  1.00000000E+00  0.00000000E+00  0.00000000E+00
  0.00000000E+00  0.00000000E+00  1.00000000E+00  0.00000000E+00  0.00000000E+00
  0.00000000E+00  0.00000000E+00  1.00000000E+00  0.00000000E+00  0.00000000E+00
  0.00000000E+00  0.00000000E+00  1.00000000E+00  0.00000000E+00  0.00000000E+00
  0.00000000E+00  0.00000000E+00  0.00000000E+00  1.00000000E+00  1.00000000E+00
  0.00000000E+00  1.00000000E+00  0.00000000E+00  0.00000000E+00  0.00000000E+00
  0.00000000E+00  0.00000000E+00  0.00000000E+00  0.00000000E+00  0.00000000E+00
  0.00000000E+00  0.00000000E+00
MxBond                                     I                3
NBond                                      I   N=           6
           3           3           1           1           1           1
IBond                                      I   N=          18
           2           3           4           1           5           6
           1           0           0           1           0           0
           2           0           0           2           0           0
RBond                                      R   N=          18
  3.00000000E+00  1.00000000E+00  1.00000000E+00  3.00000000E+00  1.00000000E+00
  1.00000000E+00  1.00000000E+00  0.00000000E+00  0.00000000E+00  1.00000000E+00
  0.00000000E+00  0.00000000E+00  1.00000000E+00  0.00000000E+00  0.00000000E+00
  1.00000000E+00  0.00000000E+00  0.00000000E+00
Virial Ratio                               R      1.989928081840606E+00
SCF Energy                                 R     -7.845984551723434E+01
Total Energy                               R     -7.845984551723434E+01
S**2                                       R      1.776356839400250E-15
RMS Force                                  R      1.913328114503363E-01
RMS Density                                R      6.703780237425627E-09
Job Status                                 I                1
Nuclear derivative order                   I                1
External E-field                           R   N=          35
  0.00000000E+00  0.00000000E+00  0.00000000E+00  0.00000000E+00  0.00000000E+00
  0.00000000E+00  0.00000000E+00  0.00000000E+00  0.00000000E+00  0.00000000E+00
  0.00000000E+00  0.00000000E+00  0.00000000E+00  0.00000000E+00  0.00000000E+00
  0.00000000E+00  0.00000000E+00  0.00000000E+00  0.00000000E+00  0.00000000E+00
  0.00000000E+00  0.00000000E+00  0.00000000E+00  0.00000000E+00  0.00000000E+00
  0.00000000E+00  0.00000000E+00  0.00000000E+00  0.00000000E+00  0.00000000E+00
  0.00000000E+00  0.00000000E+00  0.00000000E+00  0.00000000E+00  0.00000000E+00
IOpCl                                      I                1
IROHF                                      I                0
Alpha Orbital Energies                     R   N=          68
 -1.05009374E+01 -1.04945028E+01 -9.21682991E-01 -6.38716931E-01 -5.66943922E-01
 -5.19170995E-01 -3.90106334E-01 -3.69479583E-01  3.36284331E-02  4.23838275E-02
  4.65008928E-02  6.12598320E-02  7.01618890E-02  8.63909146E-02  9.79639961E-02
  1.61188567E-01  1.69177451E-01  1.79646857E-01  1.87212281E-01  2.44710992E-01
  3.34509560E-01  4.05236632E-01  4.36544177E-01  4.63121331E-01  5.24482313E-01
  5.43193189E-01  6.07945973E-01  6.20342863E-01  6.82513585E-01  7.54641825E-01
  7.87951959E-01  8.09247921E-01  8.20530446E-01  1.02814304E+00  1.14562964E+00
  1.21138005E+00  1.24613842E+00  1.37253869E+00  1.52496964E+00  1.53640552E+00
  1.70225429E+00  1.70910958E+00  1.71588307E+00  1.71729599E+00  1.77949577E+00
  1.88767013E+00  2.07230095E+00  2.14820229E+00  2.21634944E+00  2.28631184E+00
  2.31801699E+00  2.33048691E+00  2.41796236E+00  2.54358291E+00  2.59157437E+00
  2.67547813E+00  2.68436708E+00  2.77825234E+00  2.82292555E+00  3.00035067E+00
  3.04533215E+00  3.41620967E+00  3.58759130E+00  3.84683132E+00  3.92255263E+00
  3.99116051E+00  2.37485762E+01  2.54483381E+01
Beta Orbital Energies                      R   N=          68
 -1.05009374E+01 -1.04945028E+01 -9.21682991E-01 -6.38716931E-01 -5.66943922E-01
 -5.19170995E-01 -3.90106334E-01 -3.69479583E-01  3.36284331E-02  4.23838275E-02
  4.65008928E-02  6.12598320E-02  7.01618890E-02  8.63909146E-02  9.79639961E-02
  1.61188567E-01  1.69177451E-01  1.79646857E-01  1.87212281E-01  2.44710992E-01
  3.34509560E-01  4.05236632E-01  4.36544177E-01  4.63121331E-01  5.24482313E-01
  5.43193189E-01  6.07945973E-01  6.20342863E-01  6.82513585E-01  7.54641825E-01
  7.87951959E-01  8.09247921E-01  8.20530446E-01  1.02814304E+00  1.14562964E+00
  1.21138005E+00  1.24613842E+00  1.37253869E+00  1.52496964E+00  1.53640552E+00
  1.70225429E+00  1.70910958E+00  1.71588307E+00  1.71729599E+00  1.77949577E+00
  1.88767013E+00  2.07230095E+00  2.14820229E+00  2.21634944E+00  2.28631184E+00
  2.31801699E+00  2.33048691E+00  2.41796236E+00  2.54358291E+00  2.59157437E+00
  2.67547813E+00  2.68436708E+00  2.77825234E+00  2.82292555E+00  3.00035067E+00
  3.04533215E+00  3.41620967E+00  3.58759130E+00  3.84683132E+00  3.92255263E+00
  3.99116051E+00  2.37485762E+01  2.54483381E+01
Alpha MO coefficients                      R   N=        4624
  3.98206884E-01  3.27820126E-01  6.33338512E-08 -7.36275710E-04  0.00000000E+00
  9.02170465E-03 -3.71593005E-07  1.46722022E-03  0.00000000E+00 -2.20932301E-03
 -4.91957969E-07  3.22926484E-04  0.00000000E+00 -5.89312508E-04  2.61951941E-07
 -9.25716190E-04  0.00000000E+00 -1.01288036E-03  0.00000000E+00  0.00000000E+00
 -3.46538577E-04 -4.84306614E-07  3.98206884E-01  3.27820126E-01 -6.33338512E-08
  7.36275710E-04  0.00000000E+00  9.02170465E-03  3.71593005E-07 -1.46722022E-03
  0.00000000E+00 -2.20932301E-03  4.91957969E-07 -3.22926484E-04  0.00000000E+00
 -5.89312508E-04 -2.61951941E-07  9.25716190E-04  0.00000000E+00 -1.01288036E-03
  0.00000000E+00  0.00000000E+00 -3.46538577E-04 -4.84306614E-07  2.34650171E-04
 -2.26392895E-03  1.52864132E-03 -1.27824076E-03  4.74890899E-04  0.00000000E+00
  2.34785052E-04 -2.26266831E-03  1.52822599E-03  1.27778545E-03  4.74548062E-04
  0.00000000E+00  2.34650171E-04 -2.26392895E-03  1.52864132E-03  1.27824076E-03
 -4.74890899E-04  0.00000000E+00  2.34785052E-04 -2.26266831E-03  1.52822599E-03
 -1.27778545E-03 -4.74548062E-04  0.00000000E+00  3.99023802E-01  3.27085597E-01
  4.03235023E-08  4.01555988E-04  0.00000000E+00  2.32341652E-02 -1.47786721E-07
 -1.83685520E-02  0.00000000E+00  2.41959156E-03  3.25519719E-08  1.13263571E-03
  0.00000000E+00 -2.83222133E-03  4.38715074E-09  6.89389489E-04  0.00000000E+00
 -3.34047292E-03  0.00000000E+00  0.00000000E+00 -6.36708037E-03 -7.38083554E-08
 -3.99023802E-01 -3.27085597E-01  4.03235023E-08  4.01555988E-04  0.00000000E+00
 -2.32341652E-02 -1.47786721E-07 -1.83685520E-02  0.00000000E+00 -2.41959156E-03
  3.25519719E-08  1.13263571E-03  0.00000000E+00  2.83222133E-03  4.38715074E-09
  6.89389489E-04  0.00000000E+00  3.34047292E-03  0.00000000E+00  0.00000000E+00
  6.36708037E-03  7.38083554E-08  6.48692599E-04  9.06845013E-05 -7.57573637E-04
  3.58325082E-05 -1.32997431E-04  0.00000000E+00  6.48708436E-04  9.08130927E-05
 -7.57565288E-04 -3.60587128E-05 -1.33003753E-04  0.00000000E+00 -6.48692599E-04
 -9.06845013E-05  7.57573637E-04  3.58325082E-05 -1.32997431E-04  0.00000000E+00
 -6.48708436E-04 -9.08130927E-05  7.57565288E-04 -3.60587128E-05 -1.33003753E-04
  0.00000000E+00 -9.47776819E-02 -1.51263135E-01 -8.28458199E-07 -9.17556574E-02
  0.00000000E+00  3.54217238E-01 -1.15686386E-06 -8.91510672E-02  0.00000000E+00
  1.60339661E-01 -1.63951535E-06 -2.29153339E-02  0.00000000E+00 -3.06073479E-04
  8.15051641E-08  1.03063892E-02  0.00000000E+00 -1.32367377E-02  0.00000000E+00
  0.00000000E+00 -1.38677711E-02 -1.48604293E-06 -9.47776819E-02 -1.51263135E-01
  8.28458199E-07  9.17556574E-02  0.00000000E+00  3.54217238E-01  1.15686386E-06
  8.91510672E-02  0.00000000E+00  1.60339661E-01  1.63951535E-06  2.29153339E-02
  0.00000000E+00 -3.06073479E-04 -8.15051641E-08 -1.03063892E-02  0.00000000E+00
 -1.32367377E-02  0.00000000E+00  0.00000000E+00 -1.38677711E-02 -1.48604293E-06
  4.27752207E-02  4.40359225E-02 -8.58209413E-04  4.09903100E-03 -7.27681659E-03
  0.00000000E+00  4.27733697E-02  4.40365525E-02 -8.57820310E-04 -4.10062131E-03
 -7.27674095E-03  0.00000000E+00  4.27752207E-02  4.40359225E-02 -8.58209413E-04
 -4.09903100E-03  7.27681659E-03  0.00000000E+00  4.27733697E-02  4.40365525E-02
 -8.57820310E-04  4.10062131E-03  7.27674095E-03  0.00000000E+00 -6.15541991E-02
 -1.00158241E-01 -1.33498612E-05  8.17289244E-02  0.00000000E+00  2.49176928E-01
 -1.63030124E-05  1.31241692E-01  0.00000000E+00  2.18628998E-01 -7.55146424E-06
  5.77743402E-02  0.00000000E+00 -1.45002782E-01 -3.21321680E-07  3.50449150E-02
  0.00000000E+00 -5.05054960E-03  0.00000000E+00  0.00000000E+00  9.62924104E-03
  2.65031470E-07  6.15541991E-02  1.00158241E-01 -1.33498612E-05  8.17289244E-02
  0.00000000E+00 -2.49176928E-01 -1.63030124E-05  1.31241692E-01  0.00000000E+00
 -2.18628998E-01 -7.55146424E-06  5.77743402E-02  0.00000000E+00  1.45002782E-01
 -3.21321680E-07  3.50449150E-02  0.00000000E+00  5.05054960E-03  0.00000000E+00
  0.00000000E+00 -9.62924104E-03 -2.65031470E-07  9.32201835E-02  1.16944928E-01
  2.12446658E-02  1.22457532E-02 -4.29603872E-03  0.00000000E+00  9.31986721E-02
  1.16919295E-01  2.12420342E-02 -1.22436683E-02 -4.29289185E-03  0.00000000E+00
 -9.32201835E-02 -1.16944928E-01 -2.12446658E-02  1.22457532E-02 -4.29603872E-03
  0.00000000E+00 -9.31986721E-02 -1.16919295E-01 -2.12420342E-02 -1.22436683E-02
 -4.29289185E-03  0.00000000E+00 -4.53724478E-06 -7.42139620E-06  1.58719290E-01
  4.80155096E-06  0.00000000E+00  1.72877807E-05  2.14511878E-01  1.41048738E-05
  0.00000000E+00  2.00637346E-05  1.17617582E-01  5.36501332E-06  0.00000000E+00
 -3.79090682E-06  6.21538732E-03  1.22043335E-06  0.00000000E+00 -2.20663802E-07
  0.00000000E+00  0.00000000E+00  2.54851797E-06 -1.30177905E-02  4.53724478E-06
  7.42139620E-06  1.58719290E-01  4.80155096E-06  0.00000000E+00 -1.72877807E-05
  2.14511878E-01  1.41048738E-05  0.00000000E+00 -2.00637346E-05  1.17617582E-01
  5.36501332E-06  0.00000000E+00  3.79090682E-06  6.21538732E-03  1.22043335E-06
  0.00000000E+00  2.20663802E-07  0.00000000E+00  0.00000000E+00 -2.54851797E-06
  1.30177905E-02 -9.10384954E-02 -1.26160187E-01 -2.10540231E-02 -9.83376757E-03
  1.21042857E-02  0.00000000E+00  9.10540925E-02  1.26182007E-01  2.10609404E-02
 -9.83602643E-03 -1.21034554E-02  0.00000000E+00  9.10384954E-02  1.26160187E-01
  2.10540231E-02 -9.83376757E-03  1.21042857E-02  0.00000000E+00 -9.10540925E-02
 -1.26182007E-01 -2.10609404E-02 -9.83602643E-03 -1.21034554E-02  0.00000000E+00
  7.90860639E-03  1.24055623E-02 -7.99773160E-06  2.07915539E-01  0.00000000E+00
 -1.42449020E-02 -8.23950923E-06  2.50659730E-01  0.00000000E+00  7.44651070E-02
 -6.73358904E-06  1.37616573E-01  0.00000000E+00  8.45413079E-03 -3.69540637E-06
  3.64112245E-04  0.00000000E+00  3.55864333E-03  0.00000000E+00  0.00000000E+00
  1.92351585E-02 -1.67358046E-06  7.90860639E-03  1.24055623E-02  7.99773160E-06
 -2.07915539E-01  0.00000000E+00 -1.42449020E-02  8.23950923E-06 -2.50659730E-01
  0.00000000E+00  7.44651070E-02  6.73358904E-06 -1.37616573E-01  0.00000000E+00
  8.45413079E-03  3.69540637E-06 -3.64112245E-04  0.00000000E+00  3.55864333E-03
  0.00000000E+00  0.00000000E+00  1.92351585E-02 -1.67358046E-06  8.30478950E-02
  1.18473052E-01  3.42690785E-02  1.39659081E-02  1.72000726E-03  0.00000000E+00
  8.30275004E-02  1.18444958E-01  3.42659802E-02 -1.39629569E-02  1.72277660E-03
  0.00000000E+00  8.30478950E-02  1.18473052E-01  3.42690785E-02 -1.39659081E-02
 -1.72000726E-03  0.00000000E+00  8.30275004E-02  1.18444958E-01  3.42659802E-02
  1.39629569E-02 -1.72277660E-03  0.00000000E+00  0.00000000E+00  0.00000000E+00
  0.00000000E+00  0.00000000E+00  1.89641905E-01  0.00000000E+00  0.00000000E+00
  0.00000000E+00  2.88667992E-01  0.00000000E+00  0.00000000E+00  0.00000000E+00
  2.09986893E-01  0.00000000E+00  0.00000000E+00  0.00000000E+00  1.39935361E-02
  0.00000000E+00  9.22408477E-08 -2.74246086E-02  0.00000000E+00  0.00000000E+00
  0.00000000E+00  0.00000000E+00  0.00000000E+00  0.00000000E+00  1.89641905E-01
  0.00000000E+00  0.00000000E+00  0.00000000E+00  2.88667992E-01  0.00000000E+00
  0.00000000E+00  0.00000000E+00  2.09986893E-01  0.00000000E+00  0.00000000E+00
  0.00000000E+00  1.39935361E-02  0.00000000E+00 -9.22408477E-08  2.74246086E-02
  0.00000000E+00  0.00000000E+00  0.00000000E+00  0.00000000E+00  0.00000000E+00
  0.00000000E+00  0.00000000E+00  1.22033001E-02  0.00000000E+00  0.00000000E+00
  0.00000000E+00  0.00000000E+00  0.00000000E+00  1.22025615E-02  0.00000000E+00
  0.00000000E+00  0.00000000E+00  0.00000000E+00  0.00000000E+00  1.22033001E-02
  0.00000000E+00  0.00000000E+00  0.00000000E+00  0.00000000E+00  0.00000000E+00
  1.22025615E-02  1.65479670E-06  2.69626222E-06  1.26582537E-01  1.01764349E-05
  0.00000000E+00 -6.25891380E-06  1.88443491E-01  1.29260032E-05  0.00000000E+00
  1.30269785E-06  1.96054520E-01  8.51836453E-06  0.00000000E+00  2.33588362E-06
  4.10904765E-02  1.05469697E-07  0.00000000E+00  1.63342380E-07  0.00000000E+00
  0.00000000E+00  2.98125795E-06  4.44761773E-02  1.65479670E-06  2.69626222E-06
 -1.26582537E-01 -1.01764349E-05  0.00000000E+00 -6.25891380E-06 -1.88443491E-01
 -1.29260032E-05  0.00000000E+00  1.30269785E-06 -1.96054520E-01 -8.51836453E-06
  0.00000000E+00  2.33588362E-06 -4.10904765E-02 -1.05469697E-07  0.00000000E+00
  1.63342380E-07  0.00000000E+00  0.00000000E+00  2.98125795E-06  4.44761773E-02
 -1.20930843E-01 -1.81130663E-01 -1.02285320E-01 -1.68959343E-03  6.59580957E-03
  0.00000000E+00  1.20942812E-01  1.81154484E-01  1.02300105E-01 -1.69263209E-03
 -6.59497534E-03  0.00000000E+00 -1.20930843E-01 -1.81130663E-01 -1.02285320E-01
  1.68959343E-03 -6.59580957E-03  0.00000000E+00  1.20942812E-01  1.81154484E-01
  1.02300105E-01  1.69263209E-03  6.59497534E-03  0.00000000E+00  1.50375881E-02
  2.60578368E-02 -1.61725061E-06 -4.33050417E-02  0.00000000E+00 -7.57278406E-02
  2.29240460E-06 -6.69804567E-02  0.00000000E+00 -2.52655118E-01 -5.05434833E-05
 -1.49736165E-01  0.00000000E+00  1.20895351E+00 -1.45791484E-04  8.12729756E-01
  0.00000000E+00  1.12435042E-02  0.00000000E+00  0.00000000E+00 -6.42028682E-03
  1.96485339E-06  1.50375881E-02  2.60578368E-02  1.61725061E-06  4.33050417E-02
  0.00000000E+00 -7.57278406E-02 -2.29240460E-06  6.69804567E-02  0.00000000E+00
 -2.52655118E-01  5.05434833E-05  1.49736165E-01  0.00000000E+00  1.20895351E+00
  1.45791484E-04 -8.12729756E-01  0.00000000E+00  1.12435042E-02  0.00000000E+00
  0.00000000E+00 -6.42028682E-03  1.96485339E-06 -2.31103985E-02  8.37252237E-02
 -4.19536586E-01 -1.50113562E-03  2.58717143E-03  0.00000000E+00 -2.31097183E-02
  8.37203569E-02 -4.19402667E-01  1.50237019E-03  2.58712663E-03  0.00000000E+00
 -2.31103985E-02  8.37252237E-02 -4.19536586E-01  1.50113562E-03 -2.58717143E-03
  0.00000000E+00 -2.31097183E-02  8.37203569E-02 -4.19402667E-01 -1.50237019E-03
 -2.58712663E-03  0.00000000E+00 -1.73761059E-02 -2.94713696E-02 -3.16872364E-06
  2.17953998E-02  0.00000000E+00  8.58358478E-02 -7.52954720E-06  6.45710453E-02
  0.00000000E+00 -4.03301602E-01 -3.98115862E-06  2.94022734E-01  0.00000000E+00
  2.00759392E+01  6.15566383E-05 -5.20206880E+00  0.00000000E+00  4.34071261E-03
  0.00000000E+00  0.00000000E+00  1.76350993E-02 -1.20646985E-06  1.73761059E-02
  2.94713696E-02 -3.16872364E-06  2.17953998E-02  0.00000000E+00 -8.58358478E-02
 -7.52954720E-06  6.45710453E-02  0.00000000E+00  4.03301602E-01 -3.98115862E-06
  2.94022734E-01  0.00000000E+00 -2.00759392E+01  6.15566383E-05 -5.20206880E+00
  0.00000000E+00 -4.34071261E-03  0.00000000E+00  0.00000000E+00 -1.76350993E-02
  1.20646985E-06  1.24463306E-02 -4.79629831E-02  2.07051356E-01  1.26438241E-03
 -9.74202243E-03  0.00000000E+00  1.24430461E-02 -4.79428787E-02  2.06953829E-01
 -1.26464961E-03 -9.74243523E-03  0.00000000E+00 -1.24463306E-02  4.79629831E-02
 -2.07051356E-01  1.26438241E-03 -9.74202243E-03  0.00000000E+00 -1.24430461E-02
  4.79428787E-02 -2.06953829E-01 -1.26464961E-03 -9.74243523E-03  0.00000000E+00
  1.82103105E-06  3.09582373E-06 -6.42939700E-02 -2.64162733E-06  0.00000000E+00
 -8.52144016E-06 -9.89268008E-02 -2.86667149E-06  0.00000000E+00  3.26630118E-05
 -1.60942007E-01 -3.36697668E-05  0.00000000E+00 -7.55250463E-04  7.82648870E-01
  2.27489751E-04  0.00000000E+00 -1.68500138E-07  0.00000000E+00  0.00000000E+00
 -1.27417766E-06  5.77545993E-03 -1.82103105E-06 -3.09582373E-06 -6.42939700E-02
 -2.64162733E-06  0.00000000E+00  8.52144016E-06 -9.89268008E-02 -2.86667149E-06
  0.00000000E+00 -3.26630118E-05 -1.60942007E-01 -3.36697668E-05  0.00000000E+00
  7.55250463E-04  7.82648870E-01  2.27489751E-04  0.00000000E+00  1.68500138E-07
  0.00000000E+00  0.00000000E+00  1.27417766E-06 -5.77545993E-03  6.80146289E-03
 -1.08282364E-01  3.78475823E-01  6.75319512E-03 -2.94016190E-03  0.00000000E+00
 -6.80188566E-03  1.08299807E-01 -3.78529992E-01  6.75456870E-03  2.94205085E-03
  0.00000000E+00 -6.80146289E-03  1.08282364E-01 -3.78475823E-01  6.75319512E-03
 -2.94016190E-03  0.00000000E+00  6.80188566E-03 -1.08299807E-01  3.78529992E-01
  6.75456870E-03  2.94205085E-03  0.00000000E+00  0.00000000E+00  0.00000000E+00
  0.00000000E+00  0.00000000E+00  9.02346041E-02  0.00000000E+00  0.00000000E+00
  0.00000000E+00  1.65706138E-01  0.00000000E+00  0.00000000E+00  0.00000000E+00
  2.34365863E-01  0.00000000E+00  0.00000000E+00  0.00000000E+00  1.83790177E+00
  0.00000000E+00  1.28607128E-07  2.79645487E-02  0.00000000E+00  0.00000000E+00
  0.00000000E+00  0.00000000E+00  0.00000000E+00  0.00000000E+00 -9.02346041E-02
  0.00000000E+00  0.00000000E+00  0.00000000E+00 -1.65706138E-01  0.00000000E+00
  0.00000000E+00  0.00000000E+00 -2.34365863E-01  0.00000000E+00  0.00000000E+00
  0.00000000E+00 -1.83790177E+00  0.00000000E+00  1.28607128E-07  2.79645487E-02
  0.00000000E+00  0.00000000E+00  0.00000000E+00  0.00000000E+00  0.00000000E+00