 Entering Gaussian System, Link 0=g16
 Initial command:
 /home/szhao/Apps/g16/l1.exe "/home/szhao/tmp/Gau-33238.inp" -scrdir="/home/szhao/tmp/"
 Default is to use a total of  16 processors:
                               16 via shared-memory
                                1 via Linda
 Entering Link 1 = /home/szhao/Apps/g16/l1.exe PID=     33246.
  
 Copyright (c) 1988,1990,1992,1993,1995,1998,2003,2009,2016,
            Gaussian, Inc.  All Rights Reserved.
  
 This is part of the Gaussian(R) 16 program.  It is based on
 the Gaussian(R) 09 system (copyright 2009, Gaussian, Inc.),
 the Gaussian(R) 03 system (copyright 2003, Gaussian, Inc.),
 the Gaussian(R) 98 system (copyright 1998, Gaussian, Inc.),
 the Gaussian(R) 94 system (copyright 1995, Gaussian, Inc.),
 the Gaussian 92(TM) system (copyright 1992, Gaussian, Inc.),
 the Gaussian 90(TM) system (copyright 1990, Gaussian, Inc.),
 the Gaussian 88(TM) system (copyright 1988, Gaussian, Inc.),
 the Gaussian 86(TM) system (copyright 1986, Carnegie Mellon
 University), and the Gaussian 82(TM) system (copyright 1983,
 Carnegie Mellon University). Gaussian is a federally registered
 trademark of Gaussian, Inc.
  
 This software contains proprietary and confidential information,
 including trade secrets, belonging to Gaussian, Inc.
  
 This software is provided under written license and may be
 used, copied, transmitted, or stored only in accord with that
 written license.
  
 The following legend is applicable only to US Government
 contracts under FAR:
  
                    RESTRICTED RIGHTS LEGEND
  
 Use, reproduction and disclosure by the US Government is
 subject to restrictions as set forth in subparagraphs (a)
 and (c) of the Commercial Computer Software - Restricted
 Rights clause in FAR 52.227-19.
  
 Gaussian, Inc.
 340 Quinnipiac St., Bldg. 40, Wallingford CT 06492
  
  
 ---------------------------------------------------------------
 Warning -- This program may not be used in any manner that
 competes with the business of Gaussian, Inc. or will provide
 assistance to any competitor of Gaussian, Inc.  The licensee
 of this program is prohibited from giving any competitor of
 Gaussian, Inc. access to this program.  By using this program,
 the user acknowledges that Gaussian, Inc. is engaged in the
 business of creating and licensing software in the field of
 computational chemistry and represents and warrants to the
 licensee that it is not a competitor of Gaussian, Inc. and that
 it will not use this program in any manner prohibited above.
 ---------------------------------------------------------------
  

 Cite this work as:
 Gaussian 16, Revision A.03,
 M. J. Frisch, G. W. Trucks, H. B. Schlegel, G. E. Scuseria, 
 M. A. Robb, J. R. Cheeseman, G. Scalmani, V. Barone, 
 G. A. Petersson, H. Nakatsuji, X. Li, M. Caricato, A. V. Marenich, 
 J. Bloino, B. G. Janesko, R. Gomperts, B. Mennucci, H. P. Hratchian, 
 J. V. Ortiz, A. F. Izmaylov, J. L. Sonnenberg, D. Williams-Young, 
 F. Ding, F. Lipparini, F. Egidi, J. Goings, B. Peng, A. Petrone, 
 T. Henderson, D. Ranasinghe, V. G. Zakrzewski, J. Gao, N. Rega, 
 G. Zheng, W. Liang, M. Hada, M. Ehara, K. Toyota, R. Fukuda, 
 J. Hasegawa, M. Ishida, T. Nakajima, Y. Honda, O. Kitao, H. Nakai, 
 T. Vreven, K. Throssell, J. A. Montgomery, Jr., J. E. Peralta, 
 F. Ogliaro, M. J. Bearpark, J. J. Heyd, E. N. Brothers, K. N. Kudin, 
 V. N. Staroverov, T. A. Keith, R. Kobayashi, J. Normand, 
 K. Raghavachari, A. P. Rendell, J. C. Burant, S. S. Iyengar, 
 J. Tomasi, M. Cossi, J. M. Millam, M. Klene, C. Adamo, R. Cammi, 
 J. W. Ochterski, R. L. Martin, K. Morokuma, O. Farkas, 
 J. B. Foresman, and D. J. Fox, Gaussian, Inc., Wallingford CT, 2016.
 
 ******************************************
 Gaussian 16:  ES64L-G16RevA.03 25-Dec-2016
                21-Apr-2025 
 ******************************************
 %chk=opt.chk
 %mem=4GB
 %nprocshared=8
 Will use up to    8 processors via shared memory.
 --------------------------------------------
 #p opt UM062X/6-311+G** nosymm int=superfine
 --------------------------------------------
 1/18=20,19=15,26=5,38=1/1,3;
 2/9=110,12=2,15=1,17=6,18=5,40=1/2;
 3/5=4,6=6,7=111,11=2,25=1,30=1,71=1,74=-55,75=-7,116=2/1,2,3;
 4//1;
 5/5=2,38=5/2;
 6/7=2,8=2,9=2,10=2,28=1/1;
 7/30=1/1,2,3,16;
 1/18=20,19=15,26=5/3(2);
 2/9=110,15=1/2;
 99//99;
 2/9=110,15=1/2;
 3/5=4,6=6,7=111,11=2,25=1,30=1,71=1,74=-55,75=-7,116=2/1,2,3;
 4/5=5,16=3,69=1/1;
 5/5=2,38=5/2;
 7/30=1/1,2,3,16;
 1/18=20,19=15,26=5/3(-5);
 2/9=110,15=1/2;
 6/7=2,8=2,9=2,10=2,19=2,28=1/1;
 99/9=1/99;
 Leave Link    1 at Mon Apr 21 17:59:20 2025, MaxMem=   536870912 cpu:               2.2 elap:               0.2
 (Enter /home/szhao/Apps/g16/l101.exe)
 -------------------
 Title Card Required
 -------------------
 Symbolic Z-matrix:
 Charge =  1 Multiplicity = 2
 B                    -1   -1.92773   0.        0. 
 N                    -1    1.92773   0.        0. 
 H                    0    -3.09569  -0.00026   0. 
 H                    0     2.94625   0.        0. 
 
 Add virtual bond connecting atoms N2         and B1         Dist= 7.29D+00.
 ITRead=  2  2  0  0
 MicOpt= -2 -2 -1 -1
 NAtoms=      4 NQM=        2 NQMF=       2 NMMI=      0 NMMIF=      0
                NMic=       0 NMicF=      0.
                    Isotopes and Nuclear Properties:
 (Nuclear quadrupole moments (NQMom) in fm**2, nuclear magnetic moments (NMagM)
  in nuclear magnetons)

  Atom         1           2           3           4
 IAtWgt=          11          14           1           1
 AtmWgt=  11.0093053  14.0030740   1.0078250   1.0078250
 NucSpn=           3           2           1           1
 AtZEff=  -0.0000000  -0.0000000  -0.0000000  -0.0000000
 NQMom=    4.0590000   2.0440000   0.0000000   0.0000000
 NMagM=    2.6886370   0.4037610   2.7928460   2.7928460
 AtZNuc=   5.0000000   7.0000000   1.0000000   1.0000000
 Leave Link  101 at Mon Apr 21 17:59:21 2025, MaxMem=   536870912 cpu:               3.4 elap:               0.5
 (Enter /home/szhao/Apps/g16/l103.exe)

 GradGradGradGradGradGradGradGradGradGradGradGradGradGradGradGradGradGrad
 Berny optimization.
 Initialization pass.
                           ----------------------------
                           !    Initial Parameters    !
                           ! (Angstroms and Degrees)  !
 --------------------------                            --------------------------
 ! Name  Definition              Value          Derivative Info.                !
 --------------------------------------------------------------------------------
 ! X1    R(1,-1)                -1.9277         Frozen                          !
 ! Y1    R(1,-2)                 0.0            Frozen                          !
 ! Z1    R(1,-3)                 0.0            Frozen                          !
 ! X2    R(2,-1)                 1.9277         Frozen                          !
 ! Y2    R(2,-2)                 0.0            Frozen                          !
 ! Z2    R(2,-3)                 0.0            Frozen                          !
 ! R1    R(1,3)                  1.168          estimate D2E/DX2                !
 ! R2    R(2,4)                  1.0185         estimate D2E/DX2                !
 ! A1    L(2,1,3,-3,-1)        179.9872         estimate D2E/DX2                !
 ! A2    L(1,2,4,-3,-1)        179.9999         estimate D2E/DX2                !
 ! A3    L(2,1,3,-2,-2)        180.0            estimate D2E/DX2                !
 ! A4    L(1,2,4,-2,-2)        180.0            estimate D2E/DX2                !
 --------------------------------------------------------------------------------
 Trust Radius=3.00D-01 FncErr=1.00D-07 GrdErr=1.00D-07 EigMax=2.50D+02 EigMin=1.00D-04
 Number of steps in this run=     22 maximum allowed number of steps=    100.
 GradGradGradGradGradGradGradGradGradGradGradGradGradGradGradGradGradGrad

 Leave Link  103 at Mon Apr 21 17:59:21 2025, MaxMem=   536870912 cpu:               0.3 elap:               0.1
 (Enter /home/szhao/Apps/g16/l202.exe)
                          Input orientation:                          
 ---------------------------------------------------------------------
 Center     Atomic      Atomic             Coordinates (Angstroms)
 Number     Number       Type             X           Y           Z
 ---------------------------------------------------------------------
      1          5           0       -1.927734    0.000000    0.000000
      2          7           0        1.927734    0.000000    0.000000
      3          1           0       -3.095689   -0.000261    0.000000
      4          1           0        2.946250    0.000002    0.000000
 ---------------------------------------------------------------------
                    Distance matrix (angstroms):
                    1          2          3          4
     1  B    0.000000
     2  N    3.855468   0.000000
     3  H    1.167955   5.023424   0.000000
     4  H    4.873984   1.018516   6.041940   0.000000
 Symmetry turned off by external request.
 Stoichiometry    BH2N(1+,2)
 Framework group  C*V[C*(HNBH)]
 Deg. of freedom     3
 Full point group                 C*V     NOp   4
 Rotational constants (GHZ):           0.0000000           4.5865259           4.5865259
 Leave Link  202 at Mon Apr 21 17:59:21 2025, MaxMem=   536870912 cpu:               0.2 elap:               0.0
 (Enter /home/szhao/Apps/g16/l301.exe)
 Standard basis: 6-311+G(d,p) (5D, 7F)
 Ernie: Thresh=  0.10000D-02 Tol=  0.10000D-05 Strict=F.
    56 basis functions,    88 primitive gaussians,    58 cartesian basis functions
     7 alpha electrons        6 beta electrons
       nuclear repulsion energy        12.0740152507 Hartrees.
 IExCor= 4336 DFT=T Ex+Corr=M062X ExCW=0 ScaHFX=  0.540000
 ScaDFX=  1.000000  1.000000  1.000000  1.000000 ScalE2=  1.000000  1.000000
 IRadAn=      7 IRanWt=     -1 IRanGd=            0 ICorTp=0 IEmpDi=  4
 NAtoms=    4 NActive=    4 NUniq=    4 SFac= 1.00D+00 NAtFMM=   60 NAOKFM=F Big=F
 Integral buffers will be    131072 words long.
 Raffenetti 2 integral format.
 Two-electron integral symmetry is turned off.
 Leave Link  301 at Mon Apr 21 17:59:22 2025, MaxMem=   536870912 cpu:               0.7 elap:               0.1
 (Enter /home/szhao/Apps/g16/l302.exe)
 NPDir=0 NMtPBC=     1 NCelOv=     1 NCel=       1 NClECP=     1 NCelD=      1
         NCelK=      1 NCelE2=     1 NClLst=     1 CellRange=     0.0.
 One-electron integrals computed using PRISM.
 NBasis=    56 RedAO= T EigKep=  8.74D-03  NBF=    56
 NBsUse=    56 1.00D-06 EigRej= -1.00D+00 NBFU=    56
 Precomputing XC quadrature grid using
 IXCGrd= 4 IRadAn=           7 IRanWt=          -1 IRanGd=           0 AccXCQ= 0.00D+00.
 Generated NRdTot=       0 NPtTot=           0 NUsed=           0 NTot=          32
 NSgBfM=    58    58    58    58    58 MxSgAt=     4 MxSgA2=     4.
 Leave Link  302 at Mon Apr 21 17:59:22 2025, MaxMem=   536870912 cpu:               1.3 elap:               0.2
 (Enter /home/szhao/Apps/g16/l303.exe)
 DipDrv:  MaxL=1.
 Leave Link  303 at Mon Apr 21 17:59:22 2025, MaxMem=   536870912 cpu:               0.4 elap:               0.1
 (Enter /home/szhao/Apps/g16/l401.exe)
 ExpMin= 3.15D-02 ExpMax= 6.29D+03 ExpMxC= 9.49D+02 IAcc=3 IRadAn=         7 AccDes= 0.00D+00
 Harris functional with IExCor= 1009 and IRadAn=       7 diagonalized for initial guess.
 HarFok:  IExCor= 1009 AccDes= 0.00D+00 IRadAn=         7 IDoV= 1 UseB2=F ITyADJ=14
 ICtDFT=  3500011 ScaDFX=  1.000000  1.000000  1.000000  1.000000
 FoFCou: FMM=F IPFlag=           0 FMFlag=      100000 FMFlg1=           0
         NFxFlg=           0 DoJE=T BraDBF=F KetDBF=T FulRan=T
         wScrn=  0.000000 ICntrl=       500 IOpCl=  0 I1Cent=   200000004 NGrid=           0
         NMat0=    1 NMatS0=      1 NMatT0=    0 NMatD0=    1 NMtDS0=    0 NMtDT0=    0
 Symmetry not used in FoFCou.
 Harris En= -80.1315110004586    
 JPrj=0 DoOrth=F DoCkMO=F.
 Initial guess <Sx>= 0.0000 <Sy>= 0.0000 <Sz>= 0.5000 <S**2>= 0.7500 S= 0.5000
 Leave Link  401 at Mon Apr 21 17:59:23 2025, MaxMem=   536870912 cpu:               2.1 elap:               0.3
 (Enter /home/szhao/Apps/g16/l502.exe)
 Keep R1 and R2 ints in memory in canonical form, NReq=9624198.
 FoFCou: FMM=F IPFlag=           0 FMFlag=           0 FMFlg1=           0
         NFxFlg=           0 DoJE=F BraDBF=F KetDBF=F FulRan=T
         wScrn=  0.000000 ICntrl=       600 IOpCl=  0 I1Cent=           0 NGrid=           0
         NMat0=    1 NMatS0=   1596 NMatT0=    0 NMatD0=    1 NMtDS0=    0 NMtDT0=    0
 Symmetry not used in FoFCou.
 Two-electron integral symmetry not used.
 UHF open shell SCF:
 Using DIIS extrapolation, IDIIS=  1040.
 NGot=   536870912 LenX=   534314338 LenY=   534310533
 Requested convergence on RMS density matrix=1.00D-08 within 128 cycles.
 Requested convergence on MAX density matrix=1.00D-06.
 Requested convergence on             energy=1.00D-06.
 No special actions if energy rises.

 Cycle   1  Pass 1  IDiag  1:
 E= -79.4846774365476    
 DIIS: error= 4.07D-02 at cycle   1 NSaved=   1.
 NSaved= 1 IEnMin= 1 EnMin= -79.4846774365476     IErMin= 1 ErrMin= 4.07D-02
 ErrMax= 4.07D-02  0.00D+00 EMaxC= 1.00D-01 BMatC= 5.28D-01 BMatP= 5.28D-01
 IDIUse=3 WtCom= 5.93D-01 WtEn= 4.07D-01
 Coeff-Com:  0.100D+01
 Coeff-En:   0.100D+01
 Coeff:      0.100D+01
 Gap=    -0.644 Goal=   None    Shift=    0.000
 Gap=     0.269 Goal=   None    Shift=    0.000
 GapD=   -0.644 DampG=0.250 DampE=0.500 DampFc=0.2500 IDamp=-1.
 Damping current iteration by 2.50D-01
 RMSDP=2.46D-02 MaxDP=5.06D-01              OVMax= 1.00D+00

 Cycle   2  Pass 1  IDiag  1:
 E= -79.4816401677830     Delta-E=        0.003037268765 Rises=F Damp=T
 DIIS: error= 2.16D-02 at cycle   2 NSaved=   2.
 NSaved= 2 IEnMin= 1 EnMin= -79.4846774365476     IErMin= 2 ErrMin= 2.16D-02
 ErrMax= 2.16D-02  0.00D+00 EMaxC= 1.00D-01 BMatC= 9.97D-02 BMatP= 5.28D-01
 IDIUse=3 WtCom= 7.84D-01 WtEn= 2.16D-01
 Coeff-Com:  0.223D+00 0.777D+00
 Coeff-En:   0.502D+00 0.498D+00
 Coeff:      0.283D+00 0.717D+00
 Gap=     0.976 Goal=   None    Shift=    0.000
 Gap=    -0.647 Goal=   None    Shift=    0.000
 RMSDP=9.20D-03 MaxDP=1.73D-01 DE= 3.04D-03 OVMax= 1.00D+00

 Cycle   3  Pass 1  IDiag  1:
 E= -80.1416977219912     Delta-E=       -0.660057554208 Rises=F Damp=F
 DIIS: error= 1.10D-02 at cycle   3 NSaved=   3.
 NSaved= 3 IEnMin= 3 EnMin= -80.1416977219912     IErMin= 3 ErrMin= 1.10D-02
 ErrMax= 1.10D-02  0.00D+00 EMaxC= 1.00D-01 BMatC= 2.80D-02 BMatP= 9.97D-02
 IDIUse=3 WtCom= 8.90D-01 WtEn= 1.10D-01
 Coeff-Com:  0.796D-01 0.267D+00 0.653D+00
 Coeff-En:   0.000D+00 0.000D+00 0.100D+01
 Coeff:      0.708D-01 0.238D+00 0.691D+00
 Gap=     0.088 Goal=   None    Shift=    0.000
 Gap=     0.342 Goal=   None    Shift=    0.000
 RMSDP=1.86D-03 MaxDP=7.31D-02 DE=-6.60D-01 OVMax= 5.47D-02

 Cycle   4  Pass 1  IDiag  1:
 E= -80.1524982118768     Delta-E=       -0.010800489886 Rises=F Damp=F
 DIIS: error= 5.18D-03 at cycle   4 NSaved=   4.
 NSaved= 4 IEnMin= 4 EnMin= -80.1524982118768     IErMin= 4 ErrMin= 5.18D-03
 ErrMax= 5.18D-03  0.00D+00 EMaxC= 1.00D-01 BMatC= 4.56D-03 BMatP= 2.80D-02
 IDIUse=3 WtCom= 9.48D-01 WtEn= 5.18D-02
 Coeff-Com: -0.359D-01 0.732D-01-0.228D+00 0.119D+01
 Coeff-En:   0.000D+00 0.000D+00 0.000D+00 0.100D+01
 Coeff:     -0.341D-01 0.694D-01-0.216D+00 0.118D+01
 Gap=     0.111 Goal=   None    Shift=    0.000
 Gap=     0.231 Goal=   None    Shift=    0.000
 RMSDP=7.19D-04 MaxDP=1.95D-02 DE=-1.08D-02 OVMax= 2.03D-02

 Cycle   5  Pass 1  IDiag  1:
 E= -80.1541371104184     Delta-E=       -0.001638898542 Rises=F Damp=F
 DIIS: error= 2.79D-03 at cycle   5 NSaved=   5.
 NSaved= 5 IEnMin= 5 EnMin= -80.1541371104184     IErMin= 5 ErrMin= 2.79D-03
 ErrMax= 2.79D-03  0.00D+00 EMaxC= 1.00D-01 BMatC= 1.19D-03 BMatP= 4.56D-03
 IDIUse=3 WtCom= 9.72D-01 WtEn= 2.79D-02
 Coeff-Com: -0.276D-01 0.310D-01-0.475D-01-0.223D+00 0.127D+01
 Coeff-En:   0.000D+00 0.000D+00 0.000D+00 0.000D+00 0.100D+01
 Coeff:     -0.269D-01 0.302D-01-0.461D-01-0.217D+00 0.126D+01
 Gap=     0.090 Goal=   None    Shift=    0.000
 Gap=     0.216 Goal=   None    Shift=    0.000
 RMSDP=3.33D-04 MaxDP=1.10D-02 DE=-1.64D-03 OVMax= 1.06D-02

 Cycle   6  Pass 1  IDiag  1:
 E= -80.1545326067536     Delta-E=       -0.000395496335 Rises=F Damp=F
 DIIS: error= 1.44D-03 at cycle   6 NSaved=   6.
 NSaved= 6 IEnMin= 6 EnMin= -80.1545326067536     IErMin= 6 ErrMin= 1.44D-03
 ErrMax= 1.44D-03  0.00D+00 EMaxC= 1.00D-01 BMatC= 4.09D-04 BMatP= 1.19D-03
 IDIUse=3 WtCom= 9.86D-01 WtEn= 1.44D-02
 Coeff-Com: -0.166D-01 0.217D-01-0.631D-03-0.638D-01-0.669D-01 0.113D+01
 Coeff-En:   0.000D+00 0.000D+00 0.000D+00 0.000D+00 0.000D+00 0.100D+01
 Coeff:     -0.164D-01 0.214D-01-0.622D-03-0.629D-01-0.659D-01 0.112D+01
 Gap=     0.097 Goal=   None    Shift=    0.000
 Gap=     0.211 Goal=   None    Shift=    0.000
 RMSDP=1.03D-04 MaxDP=2.77D-03 DE=-3.95D-04 OVMax= 4.10D-03

 Cycle   7  Pass 1  IDiag  1:
 E= -80.1546306377854     Delta-E=       -0.000098031032 Rises=F Damp=F
 DIIS: error= 8.60D-04 at cycle   7 NSaved=   7.
 NSaved= 7 IEnMin= 7 EnMin= -80.1546306377854     IErMin= 7 ErrMin= 8.60D-04
 ErrMax= 8.60D-04  0.00D+00 EMaxC= 1.00D-01 BMatC= 1.71D-04 BMatP= 4.09D-04
 IDIUse=3 WtCom= 9.91D-01 WtEn= 8.60D-03
 Coeff-Com: -0.608D-02 0.100D-01 0.895D-02 0.526D-01-0.404D+00-0.647D-01
 Coeff-Com:  0.140D+01
 Coeff-En:   0.000D+00 0.000D+00 0.000D+00 0.000D+00 0.000D+00 0.000D+00
 Coeff-En:   0.100D+01
 Coeff:     -0.603D-02 0.995D-02 0.888D-02 0.522D-01-0.401D+00-0.641D-01
 Coeff:      0.140D+01
 Gap=     0.087 Goal=   None    Shift=    0.000
 Gap=     0.205 Goal=   None    Shift=    0.000
 RMSDP=1.19D-04 MaxDP=3.60D-03 DE=-9.80D-05 OVMax= 7.64D-03

 Cycle   8  Pass 1  IDiag  1:
 E= -80.1546967749441     Delta-E=       -0.000066137159 Rises=F Damp=F
 DIIS: error= 3.50D-04 at cycle   8 NSaved=   8.
 NSaved= 8 IEnMin= 8 EnMin= -80.1546967749441     IErMin= 8 ErrMin= 3.50D-04
 ErrMax= 3.50D-04  0.00D+00 EMaxC= 1.00D-01 BMatC= 2.93D-05 BMatP= 1.71D-04
 IDIUse=3 WtCom= 9.97D-01 WtEn= 3.50D-03
 Coeff-Com: -0.133D-02 0.206D-02-0.866D-02 0.114D-01 0.754D-01-0.300D+00
 Coeff-Com: -0.199D+00 0.142D+01
 Coeff-En:   0.000D+00 0.000D+00 0.000D+00 0.000D+00 0.000D+00 0.000D+00
 Coeff-En:   0.000D+00 0.100D+01
 Coeff:     -0.133D-02 0.206D-02-0.863D-02 0.114D-01 0.751D-01-0.299D+00
 Coeff:     -0.198D+00 0.142D+01
 Gap=     0.088 Goal=   None    Shift=    0.000
 Gap=     0.202 Goal=   None    Shift=    0.000
 RMSDP=5.99D-05 MaxDP=2.02D-03 DE=-6.61D-05 OVMax= 2.74D-03

 Cycle   9  Pass 1  IDiag  1:
 E= -80.1547095916236     Delta-E=       -0.000012816680 Rises=F Damp=F
 DIIS: error= 1.03D-04 at cycle   9 NSaved=   9.
 NSaved= 9 IEnMin= 9 EnMin= -80.1547095916236     IErMin= 9 ErrMin= 1.03D-04
 ErrMax= 1.03D-04  0.00D+00 EMaxC= 1.00D-01 BMatC= 2.17D-06 BMatP= 2.93D-05
 IDIUse=3 WtCom= 9.99D-01 WtEn= 1.03D-03
 Coeff-Com: -0.696D-04 0.116D-03-0.463D-03-0.114D-01 0.558D-01 0.501D-01
 Coeff-Com: -0.287D+00 0.145D-01 0.118D+01
 Coeff-En:   0.000D+00 0.000D+00 0.000D+00 0.000D+00 0.000D+00 0.000D+00
 Coeff-En:   0.000D+00 0.000D+00 0.100D+01
 Coeff:     -0.695D-04 0.115D-03-0.462D-03-0.113D-01 0.558D-01 0.501D-01
 Coeff:     -0.287D+00 0.145D-01 0.118D+01
 Gap=     0.086 Goal=   None    Shift=    0.000
 Gap=     0.201 Goal=   None    Shift=    0.000
 RMSDP=2.07D-05 MaxDP=5.71D-04 DE=-1.28D-05 OVMax= 1.45D-03

 Cycle  10  Pass 1  IDiag  1:
 E= -80.1547107300608     Delta-E=       -0.000001138437 Rises=F Damp=F
 DIIS: error= 1.38D-05 at cycle  10 NSaved=  10.
 NSaved=10 IEnMin=10 EnMin= -80.1547107300608     IErMin=10 ErrMin= 1.38D-05
 ErrMax= 1.38D-05  0.00D+00 EMaxC= 1.00D-01 BMatC= 4.00D-08 BMatP= 2.17D-06
 IDIUse=1 WtCom= 1.00D+00 WtEn= 0.00D+00
 Coeff-Com:  0.287D-04 0.623D-04 0.527D-03 0.213D-02-0.184D-01 0.154D-01
 Coeff-Com:  0.746D-01-0.102D+00-0.250D+00 0.128D+01
 Coeff:      0.287D-04 0.623D-04 0.527D-03 0.213D-02-0.184D-01 0.154D-01
 Coeff:      0.746D-01-0.102D+00-0.250D+00 0.128D+01
 Gap=     0.086 Goal=   None    Shift=    0.000
 Gap=     0.201 Goal=   None    Shift=    0.000
 RMSDP=3.97D-06 MaxDP=5.36D-05 DE=-1.14D-06 OVMax= 1.75D-04

 Cycle  11  Pass 1  IDiag  1:
 E= -80.1547107626790     Delta-E=       -0.000000032618 Rises=F Damp=F
 DIIS: error= 4.25D-06 at cycle  11 NSaved=  11.
 NSaved=11 IEnMin=11 EnMin= -80.1547107626790     IErMin=11 ErrMin= 4.25D-06
 ErrMax= 4.25D-06  0.00D+00 EMaxC= 1.00D-01 BMatC= 3.36D-09 BMatP= 4.00D-08
 IDIUse=1 WtCom= 1.00D+00 WtEn= 0.00D+00
 Coeff-Com: -0.519D-05-0.150D-05-0.170D-03 0.355D-03-0.495D-03-0.723D-02
 Coeff-Com:  0.150D-01 0.507D-02-0.517D-01-0.945D-01 0.113D+01
 Coeff:     -0.519D-05-0.150D-05-0.170D-03 0.355D-03-0.495D-03-0.723D-02
 Coeff:      0.150D-01 0.507D-02-0.517D-01-0.945D-01 0.113D+01
 Gap=     0.086 Goal=   None    Shift=    0.000
 Gap=     0.201 Goal=   None    Shift=    0.000
 RMSDP=1.11D-06 MaxDP=3.73D-05 DE=-3.26D-08 OVMax= 3.95D-05

 Cycle  12  Pass 1  IDiag  1:
 E= -80.1547107648780     Delta-E=       -0.000000002199 Rises=F Damp=F
 DIIS: error= 1.23D-06 at cycle  12 NSaved=  12.
 NSaved=12 IEnMin=12 EnMin= -80.1547107648780     IErMin=12 ErrMin= 1.23D-06
 ErrMax= 1.23D-06  0.00D+00 EMaxC= 1.00D-01 BMatC= 2.44D-10 BMatP= 3.36D-09
 IDIUse=1 WtCom= 1.00D+00 WtEn= 0.00D+00
 Coeff-Com: -0.464D-05-0.744D-05-0.113D-04-0.166D-03 0.111D-02-0.119D-02
 Coeff-Com: -0.477D-02 0.726D-02 0.187D-01-0.118D+00 0.619D-01 0.104D+01
 Coeff:     -0.464D-05-0.744D-05-0.113D-04-0.166D-03 0.111D-02-0.119D-02
 Coeff:     -0.477D-02 0.726D-02 0.187D-01-0.118D+00 0.619D-01 0.104D+01
 Gap=     0.086 Goal=   None    Shift=    0.000
 Gap=     0.201 Goal=   None    Shift=    0.000
 RMSDP=3.11D-07 MaxDP=4.58D-06 DE=-2.20D-09 OVMax= 1.00D-05

 Cycle  13  Pass 1  IDiag  1:
 E= -80.1547107650111     Delta-E=       -0.000000000133 Rises=F Damp=F
 DIIS: error= 3.03D-07 at cycle  13 NSaved=  13.
 NSaved=13 IEnMin=13 EnMin= -80.1547107650111     IErMin=13 ErrMin= 3.03D-07
 ErrMax= 3.03D-07  0.00D+00 EMaxC= 1.00D-01 BMatC= 1.20D-11 BMatP= 2.44D-10
 IDIUse=1 WtCom= 1.00D+00 WtEn= 0.00D+00
 Coeff-Com:  0.636D-06 0.315D-07 0.190D-04-0.133D-04 0.272D-04 0.432D-03
 Coeff-Com: -0.959D-03-0.293D-03 0.267D-02 0.997D-02-0.604D-01-0.665D-01
 Coeff-Com:  0.112D+01
 Coeff:      0.636D-06 0.315D-07 0.190D-04-0.133D-04 0.272D-04 0.432D-03
 Coeff:     -0.959D-03-0.293D-03 0.267D-02 0.997D-02-0.604D-01-0.665D-01
 Coeff:      0.112D+01
 Gap=     0.086 Goal=   None    Shift=    0.000
 Gap=     0.201 Goal=   None    Shift=    0.000
 RMSDP=5.77D-08 MaxDP=9.53D-07 DE=-1.33D-10 OVMax= 2.60D-06

 Cycle  14  Pass 1  IDiag  1:
 E= -80.1547107650180     Delta-E=       -0.000000000007 Rises=F Damp=F
 DIIS: error= 7.23D-08 at cycle  14 NSaved=  14.
 NSaved=14 IEnMin=14 EnMin= -80.1547107650180     IErMin=14 ErrMin= 7.23D-08
 ErrMax= 7.23D-08  0.00D+00 EMaxC= 1.00D-01 BMatC= 8.23D-13 BMatP= 1.20D-11
 IDIUse=1 WtCom= 1.00D+00 WtEn= 0.00D+00
 Coeff-Com:  0.226D-06-0.153D-07-0.443D-05 0.705D-05-0.349D-04-0.486D-04
 Coeff-Com:  0.414D-03-0.335D-03-0.111D-02 0.349D-02 0.716D-02-0.306D-01
 Coeff-Com: -0.262D+00 0.128D+01
 Coeff:      0.226D-06-0.153D-07-0.443D-05 0.705D-05-0.349D-04-0.486D-04
 Coeff:      0.414D-03-0.335D-03-0.111D-02 0.349D-02 0.716D-02-0.306D-01
 Coeff:     -0.262D+00 0.128D+01
 Gap=     0.086 Goal=   None    Shift=    0.000
 Gap=     0.201 Goal=   None    Shift=    0.000
 RMSDP=2.54D-08 MaxDP=5.64D-07 DE=-6.88D-12 OVMax= 2.23D-06

 Cycle  15  Pass 1  IDiag  1:
 E= -80.1547107650191     Delta-E=       -0.000000000001 Rises=F Damp=F
 DIIS: error= 2.92D-08 at cycle  15 NSaved=  15.
 NSaved=15 IEnMin=15 EnMin= -80.1547107650191     IErMin=15 ErrMin= 2.92D-08
 ErrMax= 2.92D-08  0.00D+00 EMaxC= 1.00D-01 BMatC= 1.08D-13 BMatP= 8.23D-13
 IDIUse=1 WtCom= 1.00D+00 WtEn= 0.00D+00
 Coeff-Com:  0.456D-07-0.332D-07 0.600D-06-0.959D-06 0.483D-05 0.534D-05
 Coeff-Com: -0.941D-04 0.128D-03 0.241D-03-0.171D-02 0.160D-02 0.850D-02
 Coeff-Com:  0.327D-01-0.442D+00 0.140D+01
 Coeff:      0.456D-07-0.332D-07 0.600D-06-0.959D-06 0.483D-05 0.534D-05
 Coeff:     -0.941D-04 0.128D-03 0.241D-03-0.171D-02 0.160D-02 0.850D-02
 Coeff:      0.327D-01-0.442D+00 0.140D+01
 Gap=     0.086 Goal=   None    Shift=    0.000
 Gap=     0.201 Goal=   None    Shift=    0.000
 RMSDP=2.30D-08 MaxDP=4.08D-07 DE=-1.12D-12 OVMax= 2.38D-06

 Cycle  16  Pass 1  IDiag  1:
 E= -80.1547107650198     Delta-E=       -0.000000000001 Rises=F Damp=F
 DIIS: error= 2.83D-08 at cycle  16 NSaved=  16.
 NSaved=16 IEnMin=16 EnMin= -80.1547107650198     IErMin=16 ErrMin= 2.83D-08
 ErrMax= 2.83D-08  0.00D+00 EMaxC= 1.00D-01 BMatC= 4.92D-14 BMatP= 1.08D-13
 IDIUse=1 WtCom= 1.00D+00 WtEn= 0.00D+00
 Large coefficients: NSaved= 16 BigCof=    0.00 CofMax=   10.00 Det=-5.08D-15
 Inversion failed.  Reducing to 15 matrices.
 Coeff-Com: -0.533D-08 0.281D-07-0.224D-06 0.176D-05 0.173D-05-0.208D-06
 Coeff-Com: -0.177D-04 0.301D-04 0.246D-03-0.107D-02 0.510D-03 0.388D-02
 Coeff-Com:  0.533D-01-0.393D+00 0.134D+01
 Coeff:     -0.533D-08 0.281D-07-0.224D-06 0.176D-05 0.173D-05-0.208D-06
 Coeff:     -0.177D-04 0.301D-04 0.246D-03-0.107D-02 0.510D-03 0.388D-02
 Coeff:      0.533D-01-0.393D+00 0.134D+01
 Gap=     0.086 Goal=   None    Shift=    0.000
 Gap=     0.201 Goal=   None    Shift=    0.000
 RMSDP=2.10D-08 MaxDP=3.78D-07 DE=-6.82D-13 OVMax= 2.20D-06

 Cycle  17  Pass 1  IDiag  1:
 E= -80.1547107650203     Delta-E=       -0.000000000001 Rises=F Damp=F
 DIIS: error= 2.74D-08 at cycle  17 NSaved=  16.
 NSaved=16 IEnMin=16 EnMin= -80.1547107650203     IErMin=16 ErrMin= 2.74D-08
 ErrMax= 2.74D-08  0.00D+00 EMaxC= 1.00D-01 BMatC= 4.34D-14 BMatP= 4.92D-14
 IDIUse=1 WtCom= 1.00D+00 WtEn= 0.00D+00
 Large coefficients: NSaved= 16 BigCof=    0.00 CofMax=   10.00 Det=-2.74D-16
 Inversion failed.  Reducing to 15 matrices.
 Coeff-Com: -0.112D-06 0.778D-06-0.570D-05-0.273D-05 0.217D-04 0.210D-05
 Coeff-Com: -0.119D-03-0.817D-04 0.177D-02-0.345D-02-0.136D-01-0.857D-02
 Coeff-Com:  0.477D+00-0.292D+01 0.346D+01
 Coeff:     -0.112D-06 0.778D-06-0.570D-05-0.273D-05 0.217D-04 0.210D-05
 Coeff:     -0.119D-03-0.817D-04 0.177D-02-0.345D-02-0.136D-01-0.857D-02
 Coeff:      0.477D+00-0.292D+01 0.346D+01
 Gap=     0.086 Goal=   None    Shift=    0.000
 Gap=     0.201 Goal=   None    Shift=    0.000
 RMSDP=5.56D-08 MaxDP=1.00D-06 DE=-5.83D-13 OVMax= 5.85D-06

 Cycle  18  Pass 1  IDiag  1:
 E= -80.1547107650220     Delta-E=       -0.000000000002 Rises=F Damp=F
 DIIS: error= 2.52D-08 at cycle  18 NSaved=  16.
 NSaved=16 IEnMin=16 EnMin= -80.1547107650220     IErMin=16 ErrMin= 2.52D-08
 ErrMax= 2.52D-08  0.00D+00 EMaxC= 1.00D-01 BMatC= 3.69D-14 BMatP= 4.34D-14
 IDIUse=1 WtCom= 1.00D+00 WtEn= 0.00D+00
 Large coefficients: NSaved= 16 BigCof=    0.00 CofMax=   10.00 Det=-9.76D-17
 Inversion failed.  Reducing to 15 matrices.
 Large coefficients: NSaved= 15 BigCof=   10.83 CofMax=   10.00 Det=-9.76D-17
 Inversion failed.  Reducing to 14 matrices.
 Coeff-Com:  0.275D-05-0.109D-04-0.113D-04 0.556D-04 0.327D-04-0.496D-03
 Coeff-Com:  0.140D-03 0.573D-02 0.111D-01-0.158D+00 0.347D+00 0.204D+01
 Coeff-Com: -0.993D+01 0.868D+01
 Coeff:      0.275D-05-0.109D-04-0.113D-04 0.556D-04 0.327D-04-0.496D-03
 Coeff:      0.140D-03 0.573D-02 0.111D-01-0.158D+00 0.347D+00 0.204D+01
 Coeff:     -0.993D+01 0.868D+01
 Gap=     0.086 Goal=   None    Shift=    0.000
 Gap=     0.201 Goal=   None    Shift=    0.000
 RMSDP=3.83D-07 MaxDP=6.92D-06 DE=-1.62D-12 OVMax= 4.03D-05

 Cycle  19  Pass 1  IDiag  1:
 E= -80.1547107650289     Delta-E=       -0.000000000007 Rises=F Damp=F
 DIIS: error= 9.82D-09 at cycle  19 NSaved=  15.
 NSaved=15 IEnMin=15 EnMin= -80.1547107650289     IErMin=15 ErrMin= 9.82D-09
 ErrMax= 9.82D-09  0.00D+00 EMaxC= 1.00D-01 BMatC= 6.62D-15 BMatP= 3.69D-14
 IDIUse=1 WtCom= 1.00D+00 WtEn= 0.00D+00
 Coeff-Com:  0.540D-06 0.444D-05-0.487D-05-0.110D-04 0.130D-04 0.184D-03
 Coeff-Com: -0.553D-03-0.493D-03 0.277D-02 0.260D-01-0.199D+00 0.426D+00
 Coeff-Com:  0.205D+01-0.327D+01 0.197D+01
 Coeff:      0.540D-06 0.444D-05-0.487D-05-0.110D-04 0.130D-04 0.184D-03
 Coeff:     -0.553D-03-0.493D-03 0.277D-02 0.260D-01-0.199D+00 0.426D+00
 Coeff:      0.205D+01-0.327D+01 0.197D+01
 Gap=     0.086 Goal=   None    Shift=    0.000
 Gap=     0.201 Goal=   None    Shift=    0.000
 RMSDP=2.41D-07 MaxDP=4.35D-06 DE=-6.93D-12 OVMax= 2.53D-05

 Cycle  20  Pass 1  IDiag  1:
 E= -80.1547107650301     Delta-E=       -0.000000000001 Rises=F Damp=F
 DIIS: error= 6.93D-10 at cycle  20 NSaved=  16.
 NSaved=16 IEnMin=16 EnMin= -80.1547107650301     IErMin=16 ErrMin= 6.93D-10
 ErrMax= 6.93D-10  0.00D+00 EMaxC= 1.00D-01 BMatC= 5.79D-17 BMatP= 6.62D-15
 IDIUse=1 WtCom= 1.00D+00 WtEn= 0.00D+00
 Large coefficients: NSaved= 16 BigCof=    0.00 CofMax=   10.00 Det=-3.30D-17
 Inversion failed.  Reducing to 15 matrices.
 Coeff-Com: -0.377D-06-0.631D-09 0.880D-06-0.469D-06-0.161D-04 0.741D-04
 Coeff-Com: -0.206D-03 0.182D-03 0.143D-02 0.198D-01-0.184D+00 0.289D+00
 Coeff-Com: -0.624D-01-0.213D+00 0.115D+01
 Coeff:     -0.377D-06-0.631D-09 0.880D-06-0.469D-06-0.161D-04 0.741D-04
 Coeff:     -0.206D-03 0.182D-03 0.143D-02 0.198D-01-0.184D+00 0.289D+00
 Coeff:     -0.624D-01-0.213D+00 0.115D+01
 Gap=     0.086 Goal=   None    Shift=    0.000
 Gap=     0.201 Goal=   None    Shift=    0.000
 RMSDP=7.53D-09 MaxDP=1.36D-07 DE=-1.21D-12 OVMax= 7.92D-07

 SCF Done:  E(UM062X) =  -80.1547107650     A.U. after   20 cycles
            NFock= 20  Conv=0.75D-08     -V/T= 2.0022
 <Sx>= 0.0000 <Sy>= 0.0000 <Sz>= 0.5000 <S**2>= 1.7576 S= 0.9169
 <L.S>=  0.00000000000    
 KE= 7.997936930547D+01 PE=-2.082853408616D+02 EE= 3.607724554036D+01
 Annihilation of the first spin contaminant:
 S**2 before annihilation     1.7576,   after     0.7753
 Leave Link  502 at Mon Apr 21 17:59:29 2025, MaxMem=   536870912 cpu:              51.3 elap:               6.7
 (Enter /home/szhao/Apps/g16/l601.exe)
 Copying SCF densities to generalized density rwf, IOpCl= 1 IROHF=0.

 **********************************************************************

            Population analysis using the SCF density.

 **********************************************************************

 Alpha  occ. eigenvalues --  -14.94730  -7.53782  -1.08417  -0.87329  -0.62051
 Alpha  occ. eigenvalues --   -0.54464  -0.54464
 Alpha virt. eigenvalues --   -0.45858  -0.35388  -0.35388  -0.15909  -0.11962
 Alpha virt. eigenvalues --   -0.09986  -0.09986  -0.08344  -0.04084   0.01581
 Alpha virt. eigenvalues --    0.01581   0.03328   0.07960   0.12387   0.12387
 Alpha virt. eigenvalues --    0.13035   0.15806   0.34204   0.45740   0.45898
 Alpha virt. eigenvalues --    0.45898   0.50413   0.50413   0.63668   0.66151
 Alpha virt. eigenvalues --    0.66151   0.75847   0.93777   1.17251   1.17251
 Alpha virt. eigenvalues --    1.35106   1.35106   1.49106   1.50118   1.50118
 Alpha virt. eigenvalues --    1.81904   1.81904   1.82216   2.21955   2.22927
 Alpha virt. eigenvalues --    2.22927   2.37447   2.42099   2.83861   3.66248
 Alpha virt. eigenvalues --    3.66248   4.25690  13.82241  35.30679
  Beta  occ. eigenvalues --  -14.92252  -7.55037  -0.95664  -0.90820  -0.68620
  Beta  occ. eigenvalues --   -0.56341
  Beta virt. eigenvalues --   -0.36244  -0.36244  -0.19200  -0.19200  -0.14660
  Beta virt. eigenvalues --   -0.10573  -0.09791  -0.09791  -0.06605  -0.02816
  Beta virt. eigenvalues --    0.03647   0.03647   0.06533   0.08767   0.15827
  Beta virt. eigenvalues --    0.17678   0.17678   0.24435   0.34253   0.46978
  Beta virt. eigenvalues --    0.49720   0.49720   0.52503   0.52503   0.67953
  Beta virt. eigenvalues --    0.70455   0.70455   0.81705   0.97392   1.24342
  Beta virt. eigenvalues --    1.24342   1.37970   1.37970   1.50778   1.50778
  Beta virt. eigenvalues --    1.57460   1.86567   1.93772   1.93772   2.14481
  Beta virt. eigenvalues --    2.29107   2.29107   2.33309   2.42646   2.97914
  Beta virt. eigenvalues --    3.76228   3.76228   4.34471  13.82252  35.31207
          Condensed to atoms (all electrons):
               1          2          3          4
     1  B    3.879809   0.002392   0.347805   0.000158
     2  N    0.002392   6.975329   0.000507   0.264584
     3  H    0.347805   0.000507   0.439485  -0.000001
     4  H    0.000158   0.264584  -0.000001   0.474489
          Atomic-Atomic Spin Densities.
               1          2          3          4
     1  B   -0.873941   0.013504   0.005617  -0.000217
     2  N    0.013504   2.040083  -0.000116   0.001003
     3  H    0.005617  -0.000116  -0.139001  -0.000005
     4  H   -0.000217   0.001003  -0.000005  -0.066714
 Mulliken charges and spin densities:
               1          2
     1  B    0.769837  -0.855036
     2  N   -0.242813   2.054474
     3  H    0.212205  -0.133505
     4  H    0.260771  -0.065933
 Sum of Mulliken charges =   1.00000   1.00000
 Mulliken charges and spin densities with hydrogens summed into heavy atoms:
               1          2
     1  B    0.982042  -0.988541
     2  N    0.017958   1.988541
 Electronic spatial extent (au):  <R**2>=            225.0619
 Charge=              1.0000 electrons
 Dipole moment (field-independent basis, Debye):
    X=             -7.7192    Y=             -0.0002    Z=             -0.0000  Tot=              7.7192
 Quadrupole moment (field-independent basis, Debye-Ang):
   XX=             19.6271   YY=            -10.2126   ZZ=            -10.2126
   XY=              0.0004   XZ=              0.0000   YZ=              0.0000
 Traceless Quadrupole moment (field-independent basis, Debye-Ang):
   XX=             19.8931   YY=             -9.9465   ZZ=             -9.9465
   XY=              0.0004   XZ=              0.0000   YZ=              0.0000
 Octapole moment (field-independent basis, Debye-Ang**2):
  XXX=            -27.6709  YYY=              0.0004  ZZZ=              0.0000  XYY=             -4.3415
  XXY=             -0.0011  XXZ=              0.0000  XZZ=             -4.3415  YZZ=              0.0001
  YYZ=              0.0000  XYZ=             -0.0000
 Hexadecapole moment (field-independent basis, Debye-Ang**3):
 XXXX=            -65.8985 YYYY=             -9.7506 ZZZZ=             -9.7506 XXXY=              0.0034
 XXXZ=             -0.0000 YYYX=             -0.0018 YYYZ=              0.0000 ZZZX=             -0.0000
 ZZZY=              0.0000 XXYY=            -46.8946 XXZZ=            -46.8946 YYZZ=             -3.2502
 XXYZ=             -0.0000 YYXZ=             -0.0000 ZZXY=             -0.0006
 N-N= 1.207401525075D+01 E-N=-2.082853408642D+02  KE= 7.997936930547D+01
                          Isotropic Fermi Contact Couplings
        Atom                 a.u.       MegaHertz       Gauss      10(-4) cm-1
     1  B(11)             -0.74627   -1070.42581    -381.95455    -357.05562
     2  N(14)              0.27171      87.79005      31.32567      29.28361
     3  H(1)              -0.07373    -329.54441    -117.58964    -109.92418
     4  H(1)              -0.03132    -139.98281     -49.94935     -46.69324
 --------------------------------------------------------
       Center         ----  Spin Dipole Couplings  ----
                      3XX-RR        3YY-RR        3ZZ-RR
 --------------------------------------------------------
     1   Atom       -0.464794      0.232397      0.232397
     2   Atom       -2.264641      1.132320      1.132320
     3   Atom       -0.052801      0.026401      0.026401
     4   Atom        0.250521     -0.125261     -0.125261
 --------------------------------------------------------
                        XY            XZ            YZ
 --------------------------------------------------------
     1   Atom       -0.000163     -0.000000     -0.000000
     2   Atom        0.000056     -0.000000      0.000000
     3   Atom       -0.000019     -0.000000     -0.000000
     4   Atom       -0.000001      0.000000      0.000000
 --------------------------------------------------------


 ---------------------------------------------------------------------------------
              Anisotropic Spin Dipole Couplings in Principal Axis System
 ---------------------------------------------------------------------------------

       Atom             a.u.   MegaHertz   Gauss  10(-4) cm-1        Axes

              Baa    -0.4648   -79.580   -28.396   -26.545  1.0000  0.0002  0.0000
     1 B(11)  Bbb     0.2324    39.790    14.198    13.272  0.0000 -0.0000  1.0000
              Bcc     0.2324    39.790    14.198    13.272 -0.0002  1.0000  0.0000
 
              Baa    -2.2646   -87.342   -31.166   -29.134  1.0000 -0.0000  0.0000
     2 N(14)  Bbb     1.1323    43.671    15.583    14.567  0.0000  1.0000 -0.0000
              Bcc     1.1323    43.671    15.583    14.567 -0.0000  0.0000  1.0000
 
              Baa    -0.0528   -28.172   -10.053    -9.397  1.0000  0.0002  0.0000
     3 H(1)   Bbb     0.0264    14.086     5.026     4.699 -0.0000  0.0000  1.0000
              Bcc     0.0264    14.086     5.026     4.699 -0.0002  1.0000 -0.0000
 
              Baa    -0.1253   -66.833   -23.848   -22.293  0.0000  1.0000 -0.0000
     4 H(1)   Bbb    -0.1253   -66.833   -23.848   -22.293  0.0000  0.0000  1.0000
              Bcc     0.2505   133.666    47.695    44.586  1.0000 -0.0000  0.0000
 

 ---------------------------------------------------------------------------------

 No NMR shielding tensors so no spin-rotation constants.
 Leave Link  601 at Mon Apr 21 17:59:30 2025, MaxMem=   536870912 cpu:               1.7 elap:               0.4
 (Enter /home/szhao/Apps/g16/l701.exe)
 ... and contract with generalized density number  0.
 Compute integral first derivatives.
 Leave Link  701 at Mon Apr 21 17:59:30 2025, MaxMem=   536870912 cpu:               1.1 elap:               0.2
 (Enter /home/szhao/Apps/g16/l702.exe)
 L702 exits ... SP integral derivatives will be done elsewhere.
 Leave Link  702 at Mon Apr 21 17:59:31 2025, MaxMem=   536870912 cpu:               0.4 elap:               0.1
 (Enter /home/szhao/Apps/g16/l703.exe)
 Integral derivatives from FoFJK, PRISM(SPDF).
 Compute integral first derivatives, UseDBF=F ICtDFT=           0.
 Calling FoFJK, ICntrl=      2127 FMM=F ISym2X=0 I1Cent= 0 IOpClX= 1 NMat=1 NMatS=1 NMatT=0.
 FoFJK:  IHMeth= 1 ICntrl=    2127 DoSepK=F KAlg= 0 I1Cent=           0 FoldK=F
 IRaf=         0 NMat=       1 IRICut=       1 DoRegI=T DoRafI=F ISym2E= 0 IDoP0=0 IntGTp=1.
 FoFCou: FMM=F IPFlag=           0 FMFlag=      100000 FMFlg1=         800
         NFxFlg=           0 DoJE=F BraDBF=F KetDBF=F FulRan=T
         wScrn=  0.000000 ICntrl=      2127 IOpCl=  1 I1Cent=           0 NGrid=           0
         NMat0=    1 NMatS0=      1 NMatT0=    0 NMatD0=    1 NMtDS0=    0 NMtDT0=    0
 Symmetry not used in FoFCou.
 Leave Link  703 at Mon Apr 21 17:59:31 2025, MaxMem=   536870912 cpu:               3.7 elap:               0.5
 (Enter /home/szhao/Apps/g16/l716.exe)
 Dipole        =-3.03696863D+00-7.71238313D-05-2.14954689D-15
 -------------------------------------------------------------------
 Center     Atomic                   Forces (Hartrees/Bohr)
 Number     Number              X              Y              Z
 -------------------------------------------------------------------
      1        5          -0.000000000   -0.000000000   -0.000000000
      2        7          -0.000000000   -0.000000000   -0.000000000
      3        1          -0.018520682   -0.000004486    0.000000000
      4        1           0.013554148    0.000001129   -0.000000000
 -------------------------------------------------------------------
 Cartesian Forces:  Max     0.018520682 RMS     0.006625271
 Leave Link  716 at Mon Apr 21 17:59:32 2025, MaxMem=   536870912 cpu:               1.8 elap:               0.5
 (Enter /home/szhao/Apps/g16/l103.exe)

 GradGradGradGradGradGradGradGradGradGradGradGradGradGradGradGradGradGrad
 Berny optimization.
 FormGI is forming the generalized inverse of G from B-inverse, IUseBI=4.
 Internal  Forces:  Max     0.018520683 RMS     0.009369549
 Search for a local minimum.
 Step number   1 out of a maximum of   22
 All quantities printed in internal units (Hartrees-Bohrs-Radians)
 RMS Force = .93695D-02 SwitMx=.10000D-02 MixMth= 1
 Mixed Optimization -- RFO/linear search
 Second derivative matrix not updated -- first step.
 The second derivative matrix:
                          X1        Y1        Z1        X2        Y2
           X1           0.50000
           Y1           0.00000   0.50000
           Z1           0.00000   0.00000   0.50000
           X2           0.00000   0.00000   0.00000   0.50000
           Y2           0.00000   0.00000   0.00000   0.00000   0.50000
           Z2           0.00000   0.00000   0.00000   0.00000   0.00000
           R1           0.00000   0.00000   0.00000   0.00000   0.00000
           R2           0.00000   0.00000   0.00000   0.00000   0.00000
           A1           0.00000   0.00000   0.00000   0.00000   0.00000
           A2           0.00000   0.00000   0.00000   0.00000   0.00000
           A3           0.00000   0.00000   0.00000   0.00000   0.00000
           A4           0.00000   0.00000   0.00000   0.00000   0.00000
                          Z2        R1        R2        A1        A2
           Z2           0.50000
           R1           0.00000   0.27160
           R2           0.00000   0.00000   0.44576
           A1           0.00000   0.00000   0.00000   0.00230
           A2           0.00000   0.00000   0.00000   0.00000   0.00783
           A3           0.00000   0.00000   0.00000   0.00000   0.00000
           A4           0.00000   0.00000   0.00000   0.00000   0.00000
                          A3        A4
           A3           0.00230
           A4           0.00000   0.00783
 ITU=  0
     Eigenvalues ---    0.00230   0.00698   0.00783   0.27160   0.44576
     Eigenvalues --- 1000.000001000.000001000.000001000.000001000.00000
     Eigenvalues --- 1000.000001000.00000
 RFO step:  Lambda=-1.66583469D-03 EMin= 2.30000000D-03
 Linear search not attempted -- first point.
 Iteration  1 RMS(Cart)=  0.02143054 RMS(Int)=  0.00000101
 Iteration  2 RMS(Cart)=  0.00000212 RMS(Int)=  0.00000000
 Iteration  3 RMS(Cart)=  0.00000000 RMS(Int)=  0.00000000
 ITry= 1 IFail=0 DXMaxC= 6.78D-02 DCOld= 1.00D+10 DXMaxT= 3.00D-01 DXLimC= 3.00D+00 Rises=F
 Variable       Old X    -DE/DX   Delta X   Delta X   Delta X     New X
                                 (Linear)    (Quad)   (Total)
    X1       -3.64289  -0.01852   0.00000   0.00000   0.00000  -3.64289
    Y1        0.00000  -0.00000   0.00000   0.00000   0.00000   0.00000
    Z1        0.00000   0.00000   0.00000   0.00000   0.00000   0.00000
    X2        3.64289   0.01355   0.00000   0.00000   0.00000   3.64289
    Y2        0.00000   0.00000   0.00000   0.00000   0.00000   0.00000
    Z2        0.00000  -0.00000   0.00000   0.00000   0.00000   0.00000
    R1        2.20712   0.01852   0.00000   0.06777   0.06777   2.27489
    R2        1.92472   0.01355   0.00000   0.03029   0.03029   1.95501
    A1        3.14137   0.00000   0.00000   0.00008   0.00008   3.14144
    A2        3.14159  -0.00000   0.00000  -0.00017  -0.00017   3.14142
    A3        3.14159  -0.00000   0.00000  -0.00000   0.00000   3.14159
    A4        3.14159  -0.00000   0.00000  -0.00000   0.00000   3.14159
         Item               Value     Threshold  Converged?
 Maximum Force            0.018521     0.000450     NO 
 RMS     Force            0.009370     0.000300     NO 
 Maximum Displacement     0.067774     0.001800     NO 
 RMS     Displacement     0.021431     0.001200     NO 
 Predicted change in Energy=-8.375075D-04
 Lowest energy point so far.  Saving SCF results.
 GradGradGradGradGradGradGradGradGradGradGradGradGradGradGradGradGradGrad

 Leave Link  103 at Mon Apr 21 17:59:32 2025, MaxMem=   536870912 cpu:               0.5 elap:               0.1
 (Enter /home/szhao/Apps/g16/l202.exe)
                          Input orientation:                          
 ---------------------------------------------------------------------
 Center     Atomic      Atomic             Coordinates (Angstroms)
 Number     Number       Type             X           Y           Z
 ---------------------------------------------------------------------
      1          5           0       -1.927734    0.000000    0.000000
      2          7           0        1.927734    0.000000    0.000000
      3          1           0       -3.131554   -0.000178    0.000000
      4          1           0        2.962281    0.000183   -0.000000
 ---------------------------------------------------------------------
                    Distance matrix (angstroms):
                    1          2          3          4
     1  B    0.000000
     2  N    3.855468   0.000000
     3  H    1.203820   5.059288   0.000000
     4  H    4.890015   1.034547   6.093835   0.000000
 Symmetry turned off by external request.
 This structure is nearly, but not quite of a higher symmetry.
 Consider Symm=Loose if the higher symmetry is desired.
 Stoichiometry    BH2N(1+,2)
 Framework group  CS[SG(BH2N)]
 Deg. of freedom     5
 Full point group                 CS      NOp   2
 Rotational constants (GHZ):  9245179301.3009739           4.5728786           4.5728786
 Leave Link  202 at Mon Apr 21 17:59:32 2025, MaxMem=   536870912 cpu:               0.2 elap:               0.1
 (Enter /home/szhao/Apps/g16/l301.exe)
 Standard basis: 6-311+G(d,p) (5D, 7F)
 Ernie: Thresh=  0.10000D-02 Tol=  0.10000D-05 Strict=F.
    56 basis functions,    88 primitive gaussians,    58 cartesian basis functions
     7 alpha electrons        6 beta electrons
       nuclear repulsion energy        11.9424153010 Hartrees.
 IExCor= 4336 DFT=T Ex+Corr=M062X ExCW=0 ScaHFX=  0.540000
 ScaDFX=  1.000000  1.000000  1.000000  1.000000 ScalE2=  1.000000  1.000000
 IRadAn=      7 IRanWt=     -1 IRanGd=            0 ICorTp=0 IEmpDi=  4
 NAtoms=    4 NActive=    4 NUniq=    4 SFac= 1.00D+00 NAtFMM=   60 NAOKFM=F Big=F
 Integral buffers will be    131072 words long.
 Raffenetti 2 integral format.
 Two-electron integral symmetry is turned off.
 Leave Link  301 at Mon Apr 21 17:59:33 2025, MaxMem=   536870912 cpu:               1.3 elap:               0.2
 (Enter /home/szhao/Apps/g16/l302.exe)
 NPDir=0 NMtPBC=     1 NCelOv=     1 NCel=       1 NClECP=     1 NCelD=      1
         NCelK=      1 NCelE2=     1 NClLst=     1 CellRange=     0.0.
 One-electron integrals computed using PRISM.
 NBasis=    56 RedAO= T EigKep=  9.01D-03  NBF=    56
 NBsUse=    56 1.00D-06 EigRej= -1.00D+00 NBFU=    56
 Precomputing XC quadrature grid using
 IXCGrd= 4 IRadAn=           7 IRanWt=          -1 IRanGd=           0 AccXCQ= 0.00D+00.
 Generated NRdTot=       0 NPtTot=           0 NUsed=           0 NTot=          32
 NSgBfM=    58    58    58    58    58 MxSgAt=     4 MxSgA2=     4.
 Leave Link  302 at Mon Apr 21 17:59:33 2025, MaxMem=   536870912 cpu:               1.4 elap:               0.2
 (Enter /home/szhao/Apps/g16/l303.exe)
 DipDrv:  MaxL=1.
 Leave Link  303 at Mon Apr 21 17:59:34 2025, MaxMem=   536870912 cpu:               0.6 elap:               0.2
 (Enter /home/szhao/Apps/g16/l401.exe)
 Initial guess from the checkpoint file:  "opt.chk"
 B after Tr=    -0.002677    0.000034   -0.000000
         Rot=    1.000000    0.000000    0.000000   -0.000002 Ang=   0.00 deg.
 Guess basis will be translated and rotated to current coordinates.
 JPrj=2 DoOrth=T DoCkMO=T.
 Initial guess <Sx>= 0.0000 <Sy>= 0.0000 <Sz>= 0.5000 <S**2>= 1.7578 S= 0.9170
 Generating alternative initial guess.
 ExpMin= 3.15D-02 ExpMax= 6.29D+03 ExpMxC= 9.49D+02 IAcc=3 IRadAn=         5 AccDes= 0.00D+00
 Harris functional with IExCor= 1009 and IRadAn=       5 diagonalized for initial guess.
 HarFok:  IExCor= 1009 AccDes= 0.00D+00 IRadAn=         5 IDoV= 1 UseB2=F ITyADJ=14
 ICtDFT=  3500011 ScaDFX=  1.000000  1.000000  1.000000  1.000000
 FoFCou: FMM=F IPFlag=           0 FMFlag=      100000 FMFlg1=           0
         NFxFlg=           0 DoJE=T BraDBF=F KetDBF=T FulRan=T
         wScrn=  0.000000 ICntrl=       500 IOpCl=  0 I1Cent=   200000004 NGrid=           0
         NMat0=    1 NMatS0=      1 NMatT0=    0 NMatD0=    1 NMtDS0=    0 NMtDT0=    0
 Symmetry not used in FoFCou.
 Harris En= -80.1319957167029    
 Leave Link  401 at Mon Apr 21 17:59:34 2025, MaxMem=   536870912 cpu:               3.1 elap:               0.5
 (Enter /home/szhao/Apps/g16/l502.exe)
 Keep R1 and R2 ints in memory in canonical form, NReq=9624198.
 FoFCou: FMM=F IPFlag=           0 FMFlag=           0 FMFlg1=           0
         NFxFlg=           0 DoJE=F BraDBF=F KetDBF=F FulRan=T
         wScrn=  0.000000 ICntrl=       600 IOpCl=  0 I1Cent=           0 NGrid=           0
         NMat0=    1 NMatS0=   1596 NMatT0=    0 NMatD0=    1 NMtDS0=    0 NMtDT0=    0
 Symmetry not used in FoFCou.
 Two-electron integral symmetry not used.
 UHF open shell SCF:
 Using DIIS extrapolation, IDIIS=  1040.
 NGot=   536870912 LenX=   534314338 LenY=   534310533
 Requested convergence on RMS density matrix=1.00D-08 within 128 cycles.
 Requested convergence on MAX density matrix=1.00D-06.
 Requested convergence on             energy=1.00D-06.
 No special actions if energy rises.

 Cycle   1  Pass 1  IDiag  1:
 E= -80.1553371666348    
 DIIS: error= 2.25D-03 at cycle   1 NSaved=   1.
 NSaved= 1 IEnMin= 1 EnMin= -80.1553371666348     IErMin= 1 ErrMin= 2.25D-03
 ErrMax= 2.25D-03  0.00D+00 EMaxC= 1.00D-01 BMatC= 8.64D-04 BMatP= 8.64D-04
 IDIUse=3 WtCom= 9.77D-01 WtEn= 2.25D-02
 Coeff-Com:  0.100D+01
 Coeff-En:   0.100D+01
 Coeff:      0.100D+01
 Gap=     0.551 Goal=   None    Shift=    0.000
 Gap=     0.637 Goal=   None    Shift=    0.000
 GapD=    0.551 DampG=2.000 DampE=1.000 DampFc=2.0000 IDamp=-1.
 RMSDP=2.21D-04 MaxDP=4.26D-03              OVMax= 1.12D-02

 Cycle   2  Pass 1  IDiag  1:
 E= -80.1555574332418     Delta-E=       -0.000220266607 Rises=F Damp=F
 DIIS: error= 3.39D-04 at cycle   2 NSaved=   2.
 NSaved= 2 IEnMin= 2 EnMin= -80.1555574332418     IErMin= 2 ErrMin= 3.39D-04
 ErrMax= 3.39D-04  0.00D+00 EMaxC= 1.00D-01 BMatC= 3.09D-05 BMatP= 8.64D-04
 IDIUse=3 WtCom= 9.97D-01 WtEn= 3.39D-03
 Coeff-Com:  0.308D-01 0.969D+00
 Coeff-En:   0.000D+00 0.100D+01
 Coeff:      0.307D-01 0.969D+00
 Gap=     0.095 Goal=   None    Shift=    0.000
 Gap=     0.201 Goal=   None    Shift=    0.000
 RMSDP=6.79D-05 MaxDP=1.36D-03 DE=-2.20D-04 OVMax= 4.21D-03

 Cycle   3  Pass 1  IDiag  1:
 E= -80.1555661716511     Delta-E=       -0.000008738409 Rises=F Damp=F
 DIIS: error= 1.93D-04 at cycle   3 NSaved=   3.
 NSaved= 3 IEnMin= 3 EnMin= -80.1555661716511     IErMin= 3 ErrMin= 1.93D-04
 ErrMax= 1.93D-04  0.00D+00 EMaxC= 1.00D-01 BMatC= 7.77D-06 BMatP= 3.09D-05
 IDIUse=3 WtCom= 9.98D-01 WtEn= 1.93D-03
 Coeff-Com: -0.152D-01 0.276D+00 0.739D+00
 Coeff-En:   0.000D+00 0.000D+00 0.100D+01
 Coeff:     -0.152D-01 0.276D+00 0.739D+00
 Gap=     0.091 Goal=   None    Shift=    0.000
 Gap=     0.200 Goal=   None    Shift=    0.000
 RMSDP=2.58D-05 MaxDP=6.92D-04 DE=-8.74D-06 OVMax= 1.16D-03

 Cycle   4  Pass 1  IDiag  1:
 E= -80.1555686001746     Delta-E=       -0.000002428523 Rises=F Damp=F
 DIIS: error= 7.70D-05 at cycle   4 NSaved=   4.
 NSaved= 4 IEnMin= 4 EnMin= -80.1555686001746     IErMin= 4 ErrMin= 7.70D-05
 ErrMax= 7.70D-05  0.00D+00 EMaxC= 1.00D-01 BMatC= 8.13D-07 BMatP= 7.77D-06
 IDIUse=1 WtCom= 1.00D+00 WtEn= 0.00D+00
 Coeff-Com: -0.420D-02-0.639D-01 0.984D-01 0.970D+00
 Coeff:     -0.420D-02-0.639D-01 0.984D-01 0.970D+00
 Gap=     0.091 Goal=   None    Shift=    0.000
 Gap=     0.200 Goal=   None    Shift=    0.000
 RMSDP=1.08D-05 MaxDP=2.54D-04 DE=-2.43D-06 OVMax= 6.01D-04

 Cycle   5  Pass 1  IDiag  1:
 E= -80.1555690082807     Delta-E=       -0.000000408106 Rises=F Damp=F
 DIIS: error= 3.22D-05 at cycle   5 NSaved=   5.
 NSaved= 5 IEnMin= 5 EnMin= -80.1555690082807     IErMin= 5 ErrMin= 3.22D-05
 ErrMax= 3.22D-05  0.00D+00 EMaxC= 1.00D-01 BMatC= 1.09D-07 BMatP= 8.13D-07
 IDIUse=1 WtCom= 1.00D+00 WtEn= 0.00D+00
 Coeff-Com:  0.294D-02-0.387D-01-0.121D+00-0.592D-01 0.122D+01
 Coeff:      0.294D-02-0.387D-01-0.121D+00-0.592D-01 0.122D+01
 Gap=     0.091 Goal=   None    Shift=    0.000
 Gap=     0.200 Goal=   None    Shift=    0.000
 RMSDP=5.96D-06 MaxDP=1.15D-04 DE=-4.08D-07 OVMax= 2.61D-04

 Cycle   6  Pass 1  IDiag  1:
 E= -80.1555690869359     Delta-E=       -0.000000078655 Rises=F Damp=F
 DIIS: error= 8.10D-06 at cycle   6 NSaved=   6.
 NSaved= 6 IEnMin= 6 EnMin= -80.1555690869359     IErMin= 6 ErrMin= 8.10D-06
 ErrMax= 8.10D-06  0.00D+00 EMaxC= 1.00D-01 BMatC= 9.01D-09 BMatP= 1.09D-07
 IDIUse=1 WtCom= 1.00D+00 WtEn= 0.00D+00
 Coeff-Com:  0.114D-02-0.315D-02-0.292D-01-0.819D-01 0.175D+00 0.938D+00
 Coeff:      0.114D-02-0.315D-02-0.292D-01-0.819D-01 0.175D+00 0.938D+00
 Gap=     0.091 Goal=   None    Shift=    0.000
 Gap=     0.200 Goal=   None    Shift=    0.000
 RMSDP=1.49D-06 MaxDP=6.45D-05 DE=-7.87D-08 OVMax= 8.01D-05

 Cycle   7  Pass 1  IDiag  1:
 E= -80.1555690920966     Delta-E=       -0.000000005161 Rises=F Damp=F
 DIIS: error= 3.64D-06 at cycle   7 NSaved=   7.
 NSaved= 7 IEnMin= 7 EnMin= -80.1555690920966     IErMin= 7 ErrMin= 3.64D-06
 ErrMax= 3.64D-06  0.00D+00 EMaxC= 1.00D-01 BMatC= 8.86D-10 BMatP= 9.01D-09
 IDIUse=1 WtCom= 1.00D+00 WtEn= 0.00D+00
 Coeff-Com: -0.256D-03 0.363D-02 0.139D-01 0.850D-02-0.147D+00 0.428D-01
 Coeff-Com:  0.108D+01
 Coeff:     -0.256D-03 0.363D-02 0.139D-01 0.850D-02-0.147D+00 0.428D-01
 Coeff:      0.108D+01
 Gap=     0.091 Goal=   None    Shift=    0.000
 Gap=     0.200 Goal=   None    Shift=    0.000
 RMSDP=4.51D-07 MaxDP=1.13D-05 DE=-5.16D-09 OVMax= 1.92D-05

 Cycle   8  Pass 1  IDiag  1:
 E= -80.1555690925808     Delta-E=       -0.000000000484 Rises=F Damp=F
 DIIS: error= 5.04D-07 at cycle   8 NSaved=   8.
 NSaved= 8 IEnMin= 8 EnMin= -80.1555690925808     IErMin= 8 ErrMin= 5.04D-07
 ErrMax= 5.04D-07  0.00D+00 EMaxC= 1.00D-01 BMatC= 3.92D-11 BMatP= 8.86D-10
 IDIUse=1 WtCom= 1.00D+00 WtEn= 0.00D+00
 Coeff-Com: -0.708D-04-0.755D-04 0.148D-02 0.667D-02-0.108D-01-0.549D-01
 Coeff-Com: -0.188D-01 0.108D+01
 Coeff:     -0.708D-04-0.755D-04 0.148D-02 0.667D-02-0.108D-01-0.549D-01
 Coeff:     -0.188D-01 0.108D+01
 Gap=     0.091 Goal=   None    Shift=    0.000
 Gap=     0.200 Goal=   None    Shift=    0.000
 RMSDP=9.97D-08 MaxDP=1.61D-06 DE=-4.84D-10 OVMax= 3.19D-06

 Cycle   9  Pass 1  IDiag  1:
 E= -80.1555690926010     Delta-E=       -0.000000000020 Rises=F Damp=F
 DIIS: error= 1.29D-07 at cycle   9 NSaved=   9.
 NSaved= 9 IEnMin= 9 EnMin= -80.1555690926010     IErMin= 9 ErrMin= 1.29D-07
 ErrMax= 1.29D-07  0.00D+00 EMaxC= 1.00D-01 BMatC= 2.81D-12 BMatP= 3.92D-11
 IDIUse=1 WtCom= 1.00D+00 WtEn= 0.00D+00
 Coeff-Com:  0.143D-04-0.190D-03-0.842D-03-0.651D-03 0.952D-02-0.140D-02
 Coeff-Com: -0.696D-01-0.228D-03 0.106D+01
 Coeff:      0.143D-04-0.190D-03-0.842D-03-0.651D-03 0.952D-02-0.140D-02
 Coeff:     -0.696D-01-0.228D-03 0.106D+01
 Gap=     0.091 Goal=   None    Shift=    0.000
 Gap=     0.200 Goal=   None    Shift=    0.000
 RMSDP=4.20D-08 MaxDP=6.26D-07 DE=-2.02D-11 OVMax= 2.63D-06

 Cycle  10  Pass 1  IDiag  1:
 E= -80.1555690926034     Delta-E=       -0.000000000002 Rises=F Damp=F
 DIIS: error= 3.93D-08 at cycle  10 NSaved=  10.
 NSaved=10 IEnMin=10 EnMin= -80.1555690926034     IErMin=10 ErrMin= 3.93D-08
 ErrMax= 3.93D-08  0.00D+00 EMaxC= 1.00D-01 BMatC= 2.51D-13 BMatP= 2.81D-12
 IDIUse=1 WtCom= 1.00D+00 WtEn= 0.00D+00
 Coeff-Com:  0.258D-05 0.366D-05-0.676D-04-0.255D-03 0.240D-03 0.238D-02
 Coeff-Com:  0.268D-02-0.580D-01 0.263D-01 0.103D+01
 Coeff:      0.258D-05 0.366D-05-0.676D-04-0.255D-03 0.240D-03 0.238D-02
 Coeff:      0.268D-02-0.580D-01 0.263D-01 0.103D+01
 Gap=     0.091 Goal=   None    Shift=    0.000
 Gap=     0.200 Goal=   None    Shift=    0.000
 RMSDP=2.22D-08 MaxDP=3.76D-07 DE=-2.43D-12 OVMax= 2.20D-06

 Cycle  11  Pass 1  IDiag  1:
 E= -80.1555690926043     Delta-E=       -0.000000000001 Rises=F Damp=F
 DIIS: error= 3.52D-08 at cycle  11 NSaved=  11.
 NSaved=11 IEnMin=11 EnMin= -80.1555690926043     IErMin=11 ErrMin= 3.52D-08
 ErrMax= 3.52D-08  0.00D+00 EMaxC= 1.00D-01 BMatC= 7.97D-14 BMatP= 2.51D-13
 IDIUse=1 WtCom= 1.00D+00 WtEn= 0.00D+00
 Coeff-Com: -0.110D-05 0.965D-05 0.739D-04 0.955D-04-0.670D-03-0.196D-03
 Coeff-Com:  0.410D-02 0.127D-01-0.101D+00-0.242D+00 0.133D+01
 Coeff:     -0.110D-05 0.965D-05 0.739D-04 0.955D-04-0.670D-03-0.196D-03
 Coeff:      0.410D-02 0.127D-01-0.101D+00-0.242D+00 0.133D+01
 Gap=     0.091 Goal=   None    Shift=    0.000
 Gap=     0.200 Goal=   None    Shift=    0.000
 RMSDP=2.47D-08 MaxDP=4.43D-07 DE=-9.09D-13 OVMax= 2.60D-06

 Cycle  12  Pass 1  IDiag  1:
 E= -80.1555690926052     Delta-E=       -0.000000000001 Rises=F Damp=F
 DIIS: error= 3.06D-08 at cycle  12 NSaved=  12.
 NSaved=12 IEnMin=12 EnMin= -80.1555690926052     IErMin=12 ErrMin= 3.06D-08
 ErrMax= 3.06D-08  0.00D+00 EMaxC= 1.00D-01 BMatC= 4.85D-14 BMatP= 7.97D-14
 IDIUse=1 WtCom= 1.00D+00 WtEn= 0.00D+00
 Coeff-Com:  0.479D-06-0.103D-04-0.579D-04-0.509D-04 0.616D-03-0.252D-03
 Coeff-Com: -0.502D-02-0.807D-03 0.101D+00 0.694D-01-0.131D+01 0.215D+01
 Coeff:      0.479D-06-0.103D-04-0.579D-04-0.509D-04 0.616D-03-0.252D-03
 Coeff:     -0.502D-02-0.807D-03 0.101D+00 0.694D-01-0.131D+01 0.215D+01
 Gap=     0.091 Goal=   None    Shift=    0.000
 Gap=     0.200 Goal=   None    Shift=    0.000
 RMSDP=3.54D-08 MaxDP=6.36D-07 DE=-9.24D-13 OVMax= 3.75D-06

 Cycle  13  Pass 1  IDiag  1:
 E= -80.1555690926062     Delta-E=       -0.000000000001 Rises=F Damp=F
 DIIS: error= 2.43D-08 at cycle  13 NSaved=  13.
 NSaved=13 IEnMin=13 EnMin= -80.1555690926062     IErMin=13 ErrMin= 2.43D-08
 ErrMax= 2.43D-08  0.00D+00 EMaxC= 1.00D-01 BMatC= 3.35D-14 BMatP= 4.85D-14
 IDIUse=1 WtCom= 1.00D+00 WtEn= 0.00D+00
 Coeff-Com:  0.124D-06 0.106D-04 0.342D-04 0.803D-05-0.489D-03 0.574D-03
 Coeff-Com:  0.567D-02-0.106D-01-0.848D-01 0.783D-01 0.121D+01-0.305D+01
 Coeff-Com:  0.285D+01
 Coeff:      0.124D-06 0.106D-04 0.342D-04 0.803D-05-0.489D-03 0.574D-03
 Coeff:      0.567D-02-0.106D-01-0.848D-01 0.783D-01 0.121D+01-0.305D+01
 Coeff:      0.285D+01
 Gap=     0.091 Goal=   None    Shift=    0.000
 Gap=     0.200 Goal=   None    Shift=    0.000
 RMSDP=4.70D-08 MaxDP=8.42D-07 DE=-9.38D-13 OVMax= 4.97D-06

 Cycle  14  Pass 1  IDiag  1:
 E= -80.1555690926071     Delta-E=       -0.000000000001 Rises=F Damp=F
 DIIS: error= 1.63D-08 at cycle  14 NSaved=  14.
 NSaved=14 IEnMin=14 EnMin= -80.1555690926071     IErMin=14 ErrMin= 1.63D-08
 ErrMax= 1.63D-08  0.00D+00 EMaxC= 1.00D-01 BMatC= 1.86D-14 BMatP= 3.35D-14
 IDIUse=1 WtCom= 1.00D+00 WtEn= 0.00D+00
 Coeff-Com: -0.102D-05 0.239D-05 0.622D-04 0.851D-04-0.453D-03-0.282D-03
 Coeff-Com:  0.918D-03 0.177D-01-0.695D-01-0.203D+00 0.767D+00 0.231D+00
 Coeff-Com: -0.303D+01 0.329D+01
 Coeff:     -0.102D-05 0.239D-05 0.622D-04 0.851D-04-0.453D-03-0.282D-03
 Coeff:      0.918D-03 0.177D-01-0.695D-01-0.203D+00 0.767D+00 0.231D+00
 Coeff:     -0.303D+01 0.329D+01
 Gap=     0.091 Goal=   None    Shift=    0.000
 Gap=     0.200 Goal=   None    Shift=    0.000
 RMSDP=7.67D-08 MaxDP=1.37D-06 DE=-8.81D-13 OVMax= 8.11D-06

 Cycle  15  Pass 1  IDiag  1:
 E= -80.1555690926079     Delta-E=       -0.000000000001 Rises=F Damp=F
 DIIS: error= 3.91D-09 at cycle  15 NSaved=  15.
 NSaved=15 IEnMin=15 EnMin= -80.1555690926079     IErMin=15 ErrMin= 3.91D-09
 ErrMax= 3.91D-09  0.00D+00 EMaxC= 1.00D-01 BMatC= 2.20D-15 BMatP= 1.86D-14
 IDIUse=1 WtCom= 1.00D+00 WtEn= 0.00D+00
 Coeff-Com:  0.289D-06-0.234D-05-0.250D-04-0.288D-04 0.216D-03 0.309D-04
 Coeff-Com: -0.141D-02-0.412D-02 0.381D-01 0.555D-01-0.478D+00 0.521D+00
 Coeff-Com:  0.603D+00-0.143D+01 0.170D+01
 Coeff:      0.289D-06-0.234D-05-0.250D-04-0.288D-04 0.216D-03 0.309D-04
 Coeff:     -0.141D-02-0.412D-02 0.381D-01 0.555D-01-0.478D+00 0.521D+00
 Coeff:      0.603D+00-0.143D+01 0.170D+01
 Gap=     0.091 Goal=   None    Shift=    0.000
 Gap=     0.200 Goal=   None    Shift=    0.000
 RMSDP=2.15D-08 MaxDP=3.83D-07 DE=-8.38D-13 OVMax= 2.27D-06

 Cycle  16  Pass 1  IDiag  1:
 E= -80.1555690926079     Delta-E=       -0.000000000000 Rises=F Damp=F
 DIIS: error= 7.66D-10 at cycle  16 NSaved=  16.
 NSaved=16 IEnMin=16 EnMin= -80.1555690926079     IErMin=16 ErrMin= 7.66D-10
 ErrMax= 7.66D-10  0.00D+00 EMaxC= 1.00D-01 BMatC= 1.23D-16 BMatP= 2.20D-15
 IDIUse=1 WtCom= 1.00D+00 WtEn= 0.00D+00
 Large coefficients: NSaved= 16 BigCof=    0.00 CofMax=   10.00 Det=-1.12D-16
 Inversion failed.  Reducing to 15 matrices.
 Coeff-Com:  0.482D-06 0.113D-05-0.129D-05-0.145D-04 0.109D-04 0.380D-03
 Coeff-Com: -0.688D-03-0.465D-02 0.864D-02 0.589D-01-0.178D+00 0.128D+00
 Coeff-Com:  0.116D+00-0.561D+00 0.143D+01
 Coeff:      0.482D-06 0.113D-05-0.129D-05-0.145D-04 0.109D-04 0.380D-03
 Coeff:     -0.688D-03-0.465D-02 0.864D-02 0.589D-01-0.178D+00 0.128D+00
 Coeff:      0.116D+00-0.561D+00 0.143D+01
 Gap=     0.091 Goal=   None    Shift=    0.000
 Gap=     0.200 Goal=   None    Shift=    0.000
 RMSDP=1.49D-09 MaxDP=2.59D-08 DE=-2.84D-14 OVMax= 1.54D-07

 SCF Done:  E(UM062X) =  -80.1555690926     A.U. after   16 cycles
            NFock= 16  Conv=0.15D-08     -V/T= 2.0029
 <Sx>= 0.0000 <Sy>= 0.0000 <Sz>= 0.5000 <S**2>= 1.7580 S= 0.9170
 <L.S>=  0.00000000000    
 KE= 7.992043922219D+01 PE=-2.080018736282D+02 EE= 3.598345001242D+01
 Annihilation of the first spin contaminant:
 S**2 before annihilation     1.7580,   after     0.7769
 Leave Link  502 at Mon Apr 21 17:59:40 2025, MaxMem=   536870912 cpu:              38.3 elap:               5.1
 (Enter /home/szhao/Apps/g16/l701.exe)
 ... and contract with generalized density number  0.
 Compute integral first derivatives.
 Leave Link  701 at Mon Apr 21 17:59:40 2025, MaxMem=   536870912 cpu:               1.0 elap:               0.2
 (Enter /home/szhao/Apps/g16/l702.exe)
 L702 exits ... SP integral derivatives will be done elsewhere.
 Leave Link  702 at Mon Apr 21 17:59:41 2025, MaxMem=   536870912 cpu:               0.5 elap:               0.1
 (Enter /home/szhao/Apps/g16/l703.exe)
 Integral derivatives from FoFJK, PRISM(SPDF).
 Compute integral first derivatives, UseDBF=F ICtDFT=           0.
 Calling FoFJK, ICntrl=      2127 FMM=F ISym2X=0 I1Cent= 0 IOpClX= 1 NMat=1 NMatS=1 NMatT=0.
 FoFJK:  IHMeth= 1 ICntrl=    2127 DoSepK=F KAlg= 0 I1Cent=           0 FoldK=F
 IRaf=         0 NMat=       1 IRICut=       1 DoRegI=T DoRafI=F ISym2E= 0 IDoP0=0 IntGTp=1.
 FoFCou: FMM=F IPFlag=           0 FMFlag=      100000 FMFlg1=         800
         NFxFlg=           0 DoJE=F BraDBF=F KetDBF=F FulRan=T
         wScrn=  0.000000 ICntrl=      2127 IOpCl=  1 I1Cent=           0 NGrid=           0
         NMat0=    1 NMatS0=      1 NMatT0=    0 NMatD0=    1 NMtDS0=    0 NMtDT0=    0
 Symmetry not used in FoFCou.
 Leave Link  703 at Mon Apr 21 17:59:42 2025, MaxMem=   536870912 cpu:               5.4 elap:               0.8
 (Enter /home/szhao/Apps/g16/l716.exe)
 Dipole        =-3.06092047D+00 6.04283622D-05 2.39775406D-12
 -------------------------------------------------------------------
 Center     Atomic                   Forces (Hartrees/Bohr)
 Number     Number              X              Y              Z
 -------------------------------------------------------------------
      1        5          -0.000000000   -0.000000000   -0.000000000
      2        7          -0.000000000   -0.000000000   -0.000000000
      3        1          -0.001001190   -0.000000534   -0.000000000
      4        1           0.000768713    0.000001307    0.000000000
 -------------------------------------------------------------------
 Cartesian Forces:  Max     0.001001190 RMS     0.000364383
 Leave Link  716 at Mon Apr 21 17:59:42 2025, MaxMem=   536870912 cpu:               0.6 elap:               0.1
 (Enter /home/szhao/Apps/g16/l103.exe)

 GradGradGradGradGradGradGradGradGradGradGradGradGradGradGradGradGradGrad
 Berny optimization.
 Using GEDIIS/GDIIS optimizer.
 FormGI is forming the generalized inverse of G from B-inverse, IUseBI=4.
 Internal  Forces:  Max     0.001001190 RMS     0.000515316
 Search for a local minimum.
 Step number   2 out of a maximum of   22
 All quantities printed in internal units (Hartrees-Bohrs-Radians)
 RMS Force = .51532D-03 SwitMx=.10000D-02 MixMth= 2
 Mixed Optimization -- En-DIIS/RFO-DIIS
 Update second derivatives using D2CorX and points    1    2
 DE= -8.58D-04 DEPred=-8.38D-04 R= 1.02D+00
 TightC=F SS=  1.41D+00  RLast= 7.42D-02 DXNew= 5.0454D-01 2.2271D-01
 Trust test= 1.02D+00 RLast= 7.42D-02 DXMaxT set to 3.00D-01
 The second derivative matrix:
                          X1        Y1        Z1        X2        Y2
           X1           0.69492
           Y1           0.00004   0.50000
           Z1          -0.00000  -0.00000   0.50000
           X2          -0.14225  -0.00003   0.00000   0.60381
           Y2           0.00001   0.00000  -0.00000  -0.00000   0.50000
           Z2           0.00000   0.00000  -0.00000  -0.00000   0.00000
           R1          -0.19492  -0.00004   0.00000   0.14225  -0.00001
           R2          -0.14225  -0.00003   0.00000   0.10381  -0.00000
           A1          -0.00001  -0.00000   0.00000   0.00000  -0.00000
           A2          -0.00000  -0.00000   0.00000   0.00000  -0.00000
           A3           0.00000   0.00000  -0.00000  -0.00000   0.00000
           A4           0.00000   0.00000  -0.00000  -0.00000   0.00000
                          Z2        R1        R2        A1        A2
           Z2           0.50000
           R1          -0.00000   0.26198
           R2          -0.00000  -0.00780   0.43949
           A1          -0.00000   0.00000   0.00000   0.00230
           A2          -0.00000   0.00002   0.00001   0.00000   0.00783
           A3           0.00000  -0.00000  -0.00000  -0.00000  -0.00000
           A4           0.00000  -0.00000  -0.00000  -0.00000  -0.00000
                          A3        A4
           A3           0.00230
           A4           0.00000   0.00783
 ITU=  1  0
 Use linear search instead of GDIIS.
     Eigenvalues ---    0.00230   0.00711   0.00783   0.26164   0.43984
     Eigenvalues --- 1000.000001000.000001000.000001000.000001000.00000
     Eigenvalues --- 1000.000001000.00000
 RFO step:  Lambda= 0.00000000D+00 EMin= 2.30000000D-03
 Quartic linear search produced a step of  0.06295.
 Iteration  1 RMS(Cart)=  0.00135932 RMS(Int)=  0.00000010
 Iteration  2 RMS(Cart)=  0.00000021 RMS(Int)=  0.00000000
 ITry= 1 IFail=0 DXMaxC= 4.25D-03 DCOld= 1.00D+10 DXMaxT= 3.00D-01 DXLimC= 3.00D+00 Rises=F
 Variable       Old X    -DE/DX   Delta X   Delta X   Delta X     New X
                                 (Linear)    (Quad)   (Total)
    X1       -3.64289  -0.00100   0.00000   0.00000   0.00000  -3.64289
    Y1        0.00000   0.00000   0.00000   0.00000   0.00000   0.00000
    Z1        0.00000  -0.00000   0.00000   0.00000   0.00000   0.00000
    X2        3.64289   0.00077   0.00000   0.00000   0.00000   3.64289
    Y2        0.00000   0.00000   0.00000   0.00000   0.00000   0.00000
    Z2        0.00000   0.00000   0.00000   0.00000   0.00000   0.00000
    R1        2.27489   0.00100   0.00427  -0.00001   0.00425   2.27914
    R2        1.95501   0.00077   0.00191   0.00002   0.00192   1.95693
    A1        3.14144   0.00000   0.00000   0.00011   0.00011   3.14156
    A2        3.14142  -0.00000  -0.00001  -0.00028  -0.00029   3.14113
    A3        3.14159   0.00000   0.00000   0.00000   0.00000   3.14159
    A4        3.14159   0.00000   0.00000   0.00000   0.00000   3.14159
         Item               Value     Threshold  Converged?
 Maximum Force            0.001001     0.000450     NO 
 RMS     Force            0.000515     0.000300     NO 
 Maximum Displacement     0.004253     0.001800     NO 
 RMS     Displacement     0.001359     0.001200     NO 
 Predicted change in Energy=-2.618253D-06
 Lowest energy point so far.  Saving SCF results.
 GradGradGradGradGradGradGradGradGradGradGradGradGradGradGradGradGradGrad

 Leave Link  103 at Mon Apr 21 17:59:42 2025, MaxMem=   536870912 cpu:               0.9 elap:               0.2
 (Enter /home/szhao/Apps/g16/l202.exe)
                          Input orientation:                          
 ---------------------------------------------------------------------
 Center     Atomic      Atomic             Coordinates (Angstroms)
 Number     Number       Type             X           Y           Z
 ---------------------------------------------------------------------
      1          5           0       -1.927734    0.000000    0.000000
      2          7           0        1.927734    0.000000    0.000000
      3          1           0       -3.133805   -0.000044   -0.000000
      4          1           0        2.963299    0.000480    0.000000
 ---------------------------------------------------------------------
                    Distance matrix (angstroms):
                    1          2          3          4
     1  B    0.000000
     2  N    3.855468   0.000000
     3  H    1.206071   5.061539   0.000000
     4  H    4.891033   1.035565   6.097104   0.000000
 Symmetry turned off by external request.
 This structure is nearly, but not quite of a higher symmetry.
 Consider Symm=Loose if the higher symmetry is desired.
 Stoichiometry    BH2N(1+,2)
 Framework group  CS[SG(BH2N)]
 Deg. of freedom     5
 Full point group                 CS      NOp   2
 Rotational constants (GHZ):  2438865578.8873782           4.5720178           4.5720178
 Leave Link  202 at Mon Apr 21 17:59:43 2025, MaxMem=   536870912 cpu:               0.1 elap:               0.1
 (Enter /home/szhao/Apps/g16/l301.exe)
 Standard basis: 6-311+G(d,p) (5D, 7F)
 Ernie: Thresh=  0.10000D-02 Tol=  0.10000D-05 Strict=F.
    56 basis functions,    88 primitive gaussians,    58 cartesian basis functions
     7 alpha electrons        6 beta electrons
       nuclear repulsion energy        11.9343079015 Hartrees.
 IExCor= 4336 DFT=T Ex+Corr=M062X ExCW=0 ScaHFX=  0.540000
 ScaDFX=  1.000000  1.000000  1.000000  1.000000 ScalE2=  1.000000  1.000000
 IRadAn=      7 IRanWt=     -1 IRanGd=            0 ICorTp=0 IEmpDi=  4
 NAtoms=    4 NActive=    4 NUniq=    4 SFac= 1.00D+00 NAtFMM=   60 NAOKFM=F Big=F
 Integral buffers will be    131072 words long.
 Raffenetti 2 integral format.
 Two-electron integral symmetry is turned off.
 Leave Link  301 at Mon Apr 21 17:59:43 2025, MaxMem=   536870912 cpu:               0.8 elap:               0.1
 (Enter /home/szhao/Apps/g16/l302.exe)
 NPDir=0 NMtPBC=     1 NCelOv=     1 NCel=       1 NClECP=     1 NCelD=      1
         NCelK=      1 NCelE2=     1 NClLst=     1 CellRange=     0.0.
 One-electron integrals computed using PRISM.
 NBasis=    56 RedAO= T EigKep=  9.03D-03  NBF=    56
 NBsUse=    56 1.00D-06 EigRej= -1.00D+00 NBFU=    56
 Precomputing XC quadrature grid using
 IXCGrd= 4 IRadAn=           7 IRanWt=          -1 IRanGd=           0 AccXCQ= 0.00D+00.
 Generated NRdTot=       0 NPtTot=           0 NUsed=           0 NTot=          32
 NSgBfM=    58    58    58    58    58 MxSgAt=     4 MxSgA2=     4.
 Leave Link  302 at Mon Apr 21 17:59:43 2025, MaxMem=   536870912 cpu:               1.5 elap:               0.2
 (Enter /home/szhao/Apps/g16/l303.exe)
 DipDrv:  MaxL=1.
 Leave Link  303 at Mon Apr 21 17:59:43 2025, MaxMem=   536870912 cpu:               1.1 elap:               0.2
 (Enter /home/szhao/Apps/g16/l401.exe)
 Initial guess from the checkpoint file:  "opt.chk"
 B after Tr=    -0.000166    0.000056   -0.000000
         Rot=    1.000000   -0.000000    0.000000   -0.000003 Ang=  -0.00 deg.
 Guess basis will be translated and rotated to current coordinates.
 JPrj=2 DoOrth=T DoCkMO=T.
 Initial guess <Sx>= 0.0000 <Sy>= 0.0000 <Sz>= 0.5000 <S**2>= 1.7580 S= 0.9171
 Leave Link  401 at Mon Apr 21 17:59:44 2025, MaxMem=   536870912 cpu:               1.4 elap:               0.3
 (Enter /home/szhao/Apps/g16/l502.exe)
 Keep R1 and R2 ints in memory in canonical form, NReq=9624198.
 FoFCou: FMM=F IPFlag=           0 FMFlag=           0 FMFlg1=           0
         NFxFlg=           0 DoJE=F BraDBF=F KetDBF=F FulRan=T
         wScrn=  0.000000 ICntrl=       600 IOpCl=  0 I1Cent=           0 NGrid=           0
         NMat0=    1 NMatS0=   1596 NMatT0=    0 NMatD0=    1 NMtDS0=    0 NMtDT0=    0
 Symmetry not used in FoFCou.
 Two-electron integral symmetry not used.
 UHF open shell SCF:
 Using DIIS extrapolation, IDIIS=  1040.
 NGot=   536870912 LenX=   534314338 LenY=   534310533
 Requested convergence on RMS density matrix=1.00D-08 within 128 cycles.
 Requested convergence on MAX density matrix=1.00D-06.
 Requested convergence on             energy=1.00D-06.
 No special actions if energy rises.

 Cycle   1  Pass 1  IDiag  1:
 E= -80.1555710605502    
 DIIS: error= 1.34D-04 at cycle   1 NSaved=   1.
 NSaved= 1 IEnMin= 1 EnMin= -80.1555710605502     IErMin= 1 ErrMin= 1.34D-04
 ErrMax= 1.34D-04  0.00D+00 EMaxC= 1.00D-01 BMatC= 3.21D-06 BMatP= 3.21D-06
 IDIUse=3 WtCom= 9.99D-01 WtEn= 1.34D-03
 Coeff-Com:  0.100D+01
 Coeff-En:   0.100D+01
 Coeff:      0.100D+01
 Gap=     0.547 Goal=   None    Shift=    0.000
 Gap=     0.635 Goal=   None    Shift=    0.000
 RMSDP=1.36D-05 MaxDP=2.60D-04              OVMax= 6.86D-04

 Cycle   2  Pass 1  IDiag  1:
 E= -80.1555719077480     Delta-E=       -0.000000847198 Rises=F Damp=F
 DIIS: error= 2.14D-05 at cycle   2 NSaved=   2.
 NSaved= 2 IEnMin= 2 EnMin= -80.1555719077480     IErMin= 2 ErrMin= 2.14D-05
 ErrMax= 2.14D-05  0.00D+00 EMaxC= 1.00D-01 BMatC= 1.20D-07 BMatP= 3.21D-06
 IDIUse=1 WtCom= 1.00D+00 WtEn= 0.00D+00
 Coeff-Com:  0.307D-01 0.969D+00
 Coeff:      0.307D-01 0.969D+00
 Gap=     0.092 Goal=   None    Shift=    0.000
 Gap=     0.200 Goal=   None    Shift=    0.000
 RMSDP=4.17D-06 MaxDP=8.55D-05 DE=-8.47D-07 OVMax= 2.47D-04

 Cycle   3  Pass 1  IDiag  1:
 E= -80.1555719426060     Delta-E=       -0.000000034858 Rises=F Damp=F
 DIIS: error= 1.15D-05 at cycle   3 NSaved=   3.
 NSaved= 3 IEnMin= 3 EnMin= -80.1555719426060     IErMin= 3 ErrMin= 1.15D-05
 ErrMax= 1.15D-05  0.00D+00 EMaxC= 1.00D-01 BMatC= 2.94D-08 BMatP= 1.20D-07
 IDIUse=1 WtCom= 1.00D+00 WtEn= 0.00D+00
 Coeff-Com: -0.157D-01 0.266D+00 0.749D+00
 Coeff:     -0.157D-01 0.266D+00 0.749D+00
 Gap=     0.092 Goal=   None    Shift=    0.000
 Gap=     0.200 Goal=   None    Shift=    0.000
 RMSDP=1.62D-06 MaxDP=4.07D-05 DE=-3.49D-08 OVMax= 7.02D-05

 Cycle   4  Pass 1  IDiag  1:
 E= -80.1555719523301     Delta-E=       -0.000000009724 Rises=F Damp=F
 DIIS: error= 4.92D-06 at cycle   4 NSaved=   4.
 NSaved= 4 IEnMin= 4 EnMin= -80.1555719523301     IErMin= 4 ErrMin= 4.92D-06
 ErrMax= 4.92D-06  0.00D+00 EMaxC= 1.00D-01 BMatC= 3.52D-09 BMatP= 2.94D-08
 IDIUse=1 WtCom= 1.00D+00 WtEn= 0.00D+00
 Coeff-Com: -0.417D-02-0.758D-01 0.975D-01 0.982D+00
 Coeff:     -0.417D-02-0.758D-01 0.975D-01 0.982D+00
 Gap=     0.092 Goal=   None    Shift=    0.000
 Gap=     0.200 Goal=   None    Shift=    0.000
 RMSDP=7.51D-07 MaxDP=1.59D-05 DE=-9.72D-09 OVMax= 3.72D-05

 Cycle   5  Pass 1  IDiag  1:
 E= -80.1555719543598     Delta-E=       -0.000000002030 Rises=F Damp=F
 DIIS: error= 2.01D-06 at cycle   5 NSaved=   5.
 NSaved= 5 IEnMin= 5 EnMin= -80.1555719543598     IErMin= 5 ErrMin= 2.01D-06
 ErrMax= 2.01D-06  0.00D+00 EMaxC= 1.00D-01 BMatC= 4.80D-10 BMatP= 3.52D-09
 IDIUse=1 WtCom= 1.00D+00 WtEn= 0.00D+00
 Coeff-Com:  0.310D-02-0.371D-01-0.126D+00-0.678D-01 0.123D+01
 Coeff:      0.310D-02-0.371D-01-0.126D+00-0.678D-01 0.123D+01
 Gap=     0.092 Goal=   None    Shift=    0.000
 Gap=     0.200 Goal=   None    Shift=    0.000
 RMSDP=4.63D-07 MaxDP=7.32D-06 DE=-2.03D-09 OVMax= 2.42D-05

 Cycle   6  Pass 1  IDiag  1:
 E= -80.1555719548416     Delta-E=       -0.000000000482 Rises=F Damp=F
 DIIS: error= 4.86D-07 at cycle   6 NSaved=   6.
 NSaved= 6 IEnMin= 6 EnMin= -80.1555719548416     IErMin= 6 ErrMin= 4.86D-07
 ErrMax= 4.86D-07  0.00D+00 EMaxC= 1.00D-01 BMatC= 4.63D-11 BMatP= 4.80D-10
 IDIUse=1 WtCom= 1.00D+00 WtEn= 0.00D+00
 Coeff-Com:  0.108D-02-0.755D-03-0.272D-01-0.839D-01 0.149D+00 0.962D+00
 Coeff:      0.108D-02-0.755D-03-0.272D-01-0.839D-01 0.149D+00 0.962D+00
 Gap=     0.092 Goal=   None    Shift=    0.000
 Gap=     0.200 Goal=   None    Shift=    0.000
 RMSDP=1.78D-07 MaxDP=4.00D-06 DE=-4.82D-10 OVMax= 1.50D-05

 Cycle   7  Pass 1  IDiag  1:
 E= -80.1555719549113     Delta-E=       -0.000000000070 Rises=F Damp=F
 DIIS: error= 2.25D-07 at cycle   7 NSaved=   7.
 NSaved= 7 IEnMin= 7 EnMin= -80.1555719549113     IErMin= 7 ErrMin= 2.25D-07
 ErrMax= 2.25D-07  0.00D+00 EMaxC= 1.00D-01 BMatC= 8.69D-12 BMatP= 4.63D-11
 IDIUse=1 WtCom= 1.00D+00 WtEn= 0.00D+00
 Coeff-Com: -0.449D-03 0.473D-02 0.197D-01 0.151D-01-0.190D+00-0.176D-02
 Coeff-Com:  0.115D+01
 Coeff:     -0.449D-03 0.473D-02 0.197D-01 0.151D-01-0.190D+00-0.176D-02
 Coeff:      0.115D+01
 Gap=     0.092 Goal=   None    Shift=    0.000
 Gap=     0.200 Goal=   None    Shift=    0.000
 RMSDP=1.53D-07 MaxDP=2.67D-06 DE=-6.98D-11 OVMax= 1.55D-05

 Cycle   8  Pass 1  IDiag  1:
 E= -80.1555719549485     Delta-E=       -0.000000000037 Rises=F Damp=F
 DIIS: error= 1.93D-07 at cycle   8 NSaved=   8.
 NSaved= 8 IEnMin= 8 EnMin= -80.1555719549485     IErMin= 8 ErrMin= 1.93D-07
 ErrMax= 1.93D-07  0.00D+00 EMaxC= 1.00D-01 BMatC= 2.46D-12 BMatP= 8.69D-12
 IDIUse=1 WtCom= 1.00D+00 WtEn= 0.00D+00
 Coeff-Com: -0.402D-04-0.135D-02-0.185D-02 0.872D-02 0.294D-01-0.112D+00
 Coeff-Com: -0.289D+00 0.137D+01
 Coeff:     -0.402D-04-0.135D-02-0.185D-02 0.872D-02 0.294D-01-0.112D+00
 Coeff:     -0.289D+00 0.137D+01
 Gap=     0.092 Goal=   None    Shift=    0.000
 Gap=     0.200 Goal=   None    Shift=    0.000
 RMSDP=1.44D-07 MaxDP=2.59D-06 DE=-3.71D-11 OVMax= 1.52D-05

 Cycle   9  Pass 1  IDiag  1:
 E= -80.1555719549749     Delta-E=       -0.000000000026 Rises=F Damp=F
 DIIS: error= 1.64D-07 at cycle   9 NSaved=   9.
 NSaved= 9 IEnMin= 9 EnMin= -80.1555719549749     IErMin= 9 ErrMin= 1.64D-07
 ErrMax= 1.64D-07  0.00D+00 EMaxC= 1.00D-01 BMatC= 1.41D-12 BMatP= 2.46D-12
 IDIUse=1 WtCom= 1.00D+00 WtEn= 0.00D+00
 Coeff-Com:  0.105D-03-0.335D-03-0.351D-02-0.797D-02 0.327D-01 0.495D-01
 Coeff-Com: -0.135D+00-0.474D+00 0.154D+01
 Coeff:      0.105D-03-0.335D-03-0.351D-02-0.797D-02 0.327D-01 0.495D-01
 Coeff:     -0.135D+00-0.474D+00 0.154D+01
 Gap=     0.092 Goal=   None    Shift=    0.000
 Gap=     0.200 Goal=   None    Shift=    0.000
 RMSDP=1.47D-07 MaxDP=2.64D-06 DE=-2.64D-11 OVMax= 1.55D-05

 Cycle  10  Pass 1  IDiag  1:
 E= -80.1555719549970     Delta-E=       -0.000000000022 Rises=F Damp=F
 DIIS: error= 1.36D-07 at cycle  10 NSaved=  10.
 NSaved=10 IEnMin=10 EnMin= -80.1555719549970     IErMin=10 ErrMin= 1.36D-07
 ErrMax= 1.36D-07  0.00D+00 EMaxC= 1.00D-01 BMatC= 1.02D-12 BMatP= 1.41D-12
 IDIUse=1 WtCom= 1.00D+00 WtEn= 0.00D+00
 Coeff-Com: -0.679D-04 0.801D-03 0.369D-02 0.280D-02-0.414D-01 0.130D-01
 Coeff-Com:  0.269D+00-0.184D+00-0.116D+01 0.210D+01
 Coeff:     -0.679D-04 0.801D-03 0.369D-02 0.280D-02-0.414D-01 0.130D-01
 Coeff:      0.269D+00-0.184D+00-0.116D+01 0.210D+01
 Gap=     0.092 Goal=   None    Shift=    0.000
 Gap=     0.200 Goal=   None    Shift=    0.000
 RMSDP=1.79D-07 MaxDP=3.21D-06 DE=-2.21D-11 OVMax= 1.89D-05

 Cycle  11  Pass 1  IDiag  1:
 E= -80.1555719550190     Delta-E=       -0.000000000022 Rises=F Damp=F
 DIIS: error= 1.04D-07 at cycle  11 NSaved=  11.
 NSaved=11 IEnMin=11 EnMin= -80.1555719550190     IErMin=11 ErrMin= 1.04D-07
 ErrMax= 1.04D-07  0.00D+00 EMaxC= 1.00D-01 BMatC= 6.72D-13 BMatP= 1.02D-12
 IDIUse=1 WtCom= 1.00D+00 WtEn= 0.00D+00
 Coeff-Com: -0.655D-04-0.289D-03 0.153D-02 0.766D-02-0.610D-02-0.617D-01
 Coeff-Com: -0.439D-01 0.826D+00-0.955D+00-0.179D+01 0.302D+01
 Coeff:     -0.655D-04-0.289D-03 0.153D-02 0.766D-02-0.610D-02-0.617D-01
 Coeff:     -0.439D-01 0.826D+00-0.955D+00-0.179D+01 0.302D+01
 Gap=     0.092 Goal=   None    Shift=    0.000
 Gap=     0.200 Goal=   None    Shift=    0.000
 RMSDP=3.36D-07 MaxDP=6.03D-06 DE=-2.20D-11 OVMax= 3.56D-05

 Cycle  12  Pass 1  IDiag  1:
 E= -80.1555719550452     Delta-E=       -0.000000000026 Rises=F Damp=F
 DIIS: error= 4.54D-08 at cycle  12 NSaved=  12.
 NSaved=12 IEnMin=12 EnMin= -80.1555719550452     IErMin=12 ErrMin= 4.54D-08
[...]

 Cycle  14  Pass 1  IDiag  1:
 E= -80.1555719550515     Delta-E=        0.000000000000 Rises=F Damp=F
 DIIS: error= 1.28D-09 at cycle  14 NSaved=  14.
 NSaved=14 IEnMin=13 EnMin= -80.1555719550516     IErMin=14 ErrMin= 1.28D-09
 ErrMax= 1.28D-09  0.00D+00 EMaxC= 1.00D-01 BMatC= 1.64D-16 BMatP= 3.71D-15
 IDIUse=1 WtCom= 1.00D+00 WtEn= 0.00D+00
 Coeff-Com: -0.155D-05-0.349D-05 0.632D-04 0.130D-03-0.347D-03-0.966D-03
 Coeff-Com: -0.630D-03 0.177D-01-0.332D-01-0.701D-02 0.517D-01-0.361D-01
 Coeff-Com: -0.150D+00 0.116D+01
 Coeff:     -0.155D-05-0.349D-05 0.632D-04 0.130D-03-0.347D-03-0.966D-03
 Coeff:     -0.630D-03 0.177D-01-0.332D-01-0.701D-02 0.517D-01-0.361D-01
 Coeff:     -0.150D+00 0.116D+01
 Gap=     0.092 Goal=   None    Shift=    0.000
 Gap=     0.200 Goal=   None    Shift=    0.000
 RMSDP=3.46D-10 MaxDP=3.96D-09 DE= 1.28D-13 OVMax= 2.43D-08

 SCF Done:  E(UM062X) =  -80.1555719551     A.U. after   14 cycles
            NFock= 14  Conv=0.35D-09     -V/T= 2.0030
 <Sx>= 0.0000 <Sy>= 0.0000 <Sz>= 0.5000 <S**2>= 1.7581 S= 0.9171
 <L.S>=  0.00000000000    
 KE= 7.991687458479D+01 PE=-2.079843785424D+02 EE= 3.597762410105D+01
 Annihilation of the first spin contaminant:
 S**2 before annihilation     1.7581,   after     0.7770
 Leave Link  502 at Mon Apr 21 17:59:49 2025, MaxMem=   536870912 cpu:              38.7 elap:               5.1
 (Enter /home/szhao/Apps/g16/l701.exe)
 ... and contract with generalized density number  0.
 Compute integral first derivatives.
 Leave Link  701 at Mon Apr 21 17:59:49 2025, MaxMem=   536870912 cpu:               1.0 elap:               0.2
 (Enter /home/szhao/Apps/g16/l702.exe)
 L702 exits ... SP integral derivatives will be done elsewhere.
 Leave Link  702 at Mon Apr 21 17:59:50 2025, MaxMem=   536870912 cpu:               0.6 elap:               0.1
 (Enter /home/szhao/Apps/g16/l703.exe)
 Integral derivatives from FoFJK, PRISM(SPDF).
 Compute integral first derivatives, UseDBF=F ICtDFT=           0.
 Calling FoFJK, ICntrl=      2127 FMM=F ISym2X=0 I1Cent= 0 IOpClX= 1 NMat=1 NMatS=1 NMatT=0.
 FoFJK:  IHMeth= 1 ICntrl=    2127 DoSepK=F KAlg= 0 I1Cent=           0 FoldK=F
 IRaf=         0 NMat=       1 IRICut=       1 DoRegI=T DoRafI=F ISym2E= 0 IDoP0=0 IntGTp=1.
 FoFCou: FMM=F IPFlag=           0 FMFlag=      100000 FMFlg1=         800
         NFxFlg=           0 DoJE=F BraDBF=F KetDBF=F FulRan=T
         wScrn=  0.000000 ICntrl=      2127 IOpCl=  1 I1Cent=           0 NGrid=           0
         NMat0=    1 NMatS0=      1 NMatT0=    0 NMatD0=    1 NMtDS0=    0 NMtDT0=    0
 Symmetry not used in FoFCou.
 Leave Link  703 at Mon Apr 21 17:59:51 2025, MaxMem=   536870912 cpu:               5.6 elap:               0.8
 (Enter /home/szhao/Apps/g16/l716.exe)
 Dipole        =-3.06242683D+00 2.84026297D-04 2.99076032D-11
 -------------------------------------------------------------------
 Center     Atomic                   Forces (Hartrees/Bohr)
 Number     Number              X              Y              Z
 -------------------------------------------------------------------
      1        5          -0.000000000   -0.000000000   -0.000000000
      2        7          -0.000000000   -0.000000000   -0.000000000
      3        1           0.000001391   -0.000000591   -0.000000000
      4        1           0.000000378    0.000002370    0.000000000
 -------------------------------------------------------------------
 Cartesian Forces:  Max     0.000002370 RMS     0.000000819
 Leave Link  716 at Mon Apr 21 17:59:51 2025, MaxMem=   536870912 cpu:               0.4 elap:               0.1
 (Enter /home/szhao/Apps/g16/l103.exe)

 GradGradGradGradGradGradGradGradGradGradGradGradGradGradGradGradGradGrad
 Berny optimization.
 Using GEDIIS/GDIIS optimizer.
 FormGI is forming the generalized inverse of G from B-inverse, IUseBI=4.
 Internal  Forces:  Max     0.000003483 RMS     0.000001384
 Search for a local minimum.
 Step number   3 out of a maximum of   22
 All quantities printed in internal units (Hartrees-Bohrs-Radians)
 RMS Force = .16742D-05 SwitMx=.10000D-02 MixMth= 2
 Mixed Optimization -- En-DIIS/RFO-DIIS
 Swapping is turned off.
 Update second derivatives using D2CorX and points    1    2    3
 DE= -2.86D-06 DEPred=-2.62D-06 R= 1.09D+00
 TightC=F SS=  1.41D+00  RLast= 4.68D-03 DXNew= 5.0454D-01 1.4036D-02
 Trust test= 1.09D+00 RLast= 4.68D-03 DXMaxT set to 3.00D-01
 The second derivative matrix:
                          X1        Y1        Z1        X2        Y2
           X1           0.67507
           Y1           0.00009   0.50000
           Z1          -0.00000  -0.00000   0.50000
           X2          -0.13417  -0.00007   0.00000   0.60282
           Y2           0.00015   0.00000  -0.00000  -0.00012   0.50000
           Z2           0.00000   0.00000  -0.00000  -0.00000   0.00000
           R1          -0.17569  -0.00009   0.00000   0.13462  -0.00015
           R2          -0.13279  -0.00007   0.00000   0.10182  -0.00012
           A1           0.00019   0.00000  -0.00000  -0.00014   0.00000
           A2          -0.00070  -0.00000   0.00000   0.00053  -0.00000
           A3           0.00000   0.00000  -0.00000  -0.00000   0.00000
           A4           0.00000   0.00000  -0.00000  -0.00000   0.00000
                          Z2        R1        R2        A1        A2
           Z2           0.50000
           R1          -0.00000   0.24337
           R2          -0.00000  -0.01680   0.43649
           A1           0.00000  -0.00019  -0.00014   0.00230
           A2          -0.00000   0.00072   0.00054  -0.00000   0.00783
           A3           0.00000  -0.00000  -0.00000   0.00000  -0.00000
           A4           0.00000  -0.00000  -0.00000   0.00000  -0.00000
                          A3        A4
           A3           0.00230
           A4           0.00000   0.00783
 ITU=  1  1  0
     Eigenvalues ---    0.00230   0.00711   0.00783   0.24192   0.43794
     Eigenvalues --- 1000.000001000.000001000.000001000.000001000.00000
     Eigenvalues --- 1000.000001000.00000
 En-DIIS/RFO-DIIS/Sim-DIIS IScMMF=       -3 using points:     3    2
 RFO step:  Lambda=-2.75299255D-10.
 NNeg= 0 NGDIIS= 2 SimSw=  2.50D-03 Rises=F DC= -2.86D-06 SmlDif=  1.00D-05
 NRisDI= 0 DoIntr=F SqrtH=F CThrHd= 10.0 CDAdj=  3.0
 RMS Error=  0.1556842349D-03 NUsed= 2 OKEnD=F EnDIS=F
 InvSVX:  RCond= 5.47D-06 Info=           0 Equed=N FErr=  1.04D-15 BErr=  5.51D-17
 DidBck=F Rises=F RFO-DIIS coefs:    1.00693   -0.00693
 Iteration  1 RMS(Cart)=  0.00031164 RMS(Int)=  0.00000007
 Iteration  2 RMS(Cart)=  0.00000007 RMS(Int)=  0.00000000
 ITry= 1 IFail=0 DXMaxC= 9.84D-04 DCOld= 1.00D+10 DXMaxT= 3.00D-01 DXLimC= 3.00D+00 Rises=F
 Variable       Old X    -DE/DX   Delta X   Delta X   Delta X     New X
                                 (Linear)    (Quad)   (Total)
    X1       -3.64289   0.00000   0.00000   0.00000   0.00000  -3.64289
    Y1        0.00000   0.00000   0.00000   0.00000   0.00000   0.00000
    Z1        0.00000  -0.00000   0.00000   0.00000   0.00000   0.00000
    X2        3.64289   0.00000  -0.00000   0.00000   0.00000   3.64289
    Y2        0.00000   0.00000   0.00000   0.00000   0.00000   0.00000
    Z2        0.00000   0.00000   0.00000   0.00000   0.00000   0.00000
    R1        2.27914  -0.00000   0.00003  -0.00003  -0.00000   2.27914
    R2        1.95693   0.00000   0.00001  -0.00001   0.00000   1.95694
    A1        3.14156   0.00000   0.00000   0.00019   0.00019   3.14175
    A2        3.14113  -0.00000  -0.00000  -0.00050  -0.00050   3.14063
    A3        3.14159   0.00000  -0.00000   0.00000   0.00000   3.14159
    A4        3.14159   0.00000  -0.00000   0.00000   0.00000   3.14159
         Item               Value     Threshold  Converged?
 Maximum Force            0.000004     0.000450     YES
 RMS     Force            0.000002     0.000300     YES
 Maximum Displacement     0.000984     0.001800     YES
 RMS     Displacement     0.000312     0.001200     YES
 Predicted change in Energy=-1.038261D-09
 Optimization completed.
    -- Stationary point found.
                           ----------------------------
                           !   Optimized Parameters   !
                           ! (Angstroms and Degrees)  !
 --------------------------                            --------------------------
 ! Name  Definition              Value          Derivative Info.                !
 --------------------------------------------------------------------------------
 ! X1    R(1,-1)                -1.9277         -DE/DX =    0.0                 !
 ! Y1    R(1,-2)                 0.0            -DE/DX =    0.0                 !
 ! Z1    R(1,-3)                 0.0            -DE/DX =    0.0                 !
 ! X2    R(2,-1)                 1.9277         -DE/DX =    0.0                 !
 ! Y2    R(2,-2)                 0.0            -DE/DX =    0.0                 !
 ! Z2    R(2,-3)                 0.0            -DE/DX =    0.0                 !
 ! R1    R(1,3)                  1.2061         -DE/DX =    0.0                 !
 ! R2    R(2,4)                  1.0356         -DE/DX =    0.0                 !
 ! A1    L(2,1,3,-3,-1)        179.9979         -DE/DX =    0.0                 !
 ! A2    L(1,2,4,-3,-1)        179.9734         -DE/DX =    0.0                 !
 ! A3    L(2,1,3,-2,-2)        180.0            -DE/DX =    0.0                 !
 ! A4    L(1,2,4,-2,-2)        180.0            -DE/DX =    0.0                 !
 --------------------------------------------------------------------------------
 Lowest energy point so far.  Saving SCF results.
 Largest change from initial coordinates is atom    3       0.017 Angstoms.
 GradGradGradGradGradGradGradGradGradGradGradGradGradGradGradGradGradGrad

 Leave Link  103 at Mon Apr 21 17:59:51 2025, MaxMem=   536870912 cpu:               0.6 elap:               0.1
 (Enter /home/szhao/Apps/g16/l202.exe)
                          Input orientation:                          
 ---------------------------------------------------------------------
 Center     Atomic      Atomic             Coordinates (Angstroms)
 Number     Number       Type             X           Y           Z
 ---------------------------------------------------------------------
      1          5           0       -1.927734    0.000000    0.000000
      2          7           0        1.927734    0.000000    0.000000
      3          1           0       -3.133805   -0.000044   -0.000000
      4          1           0        2.963299    0.000480    0.000000
 ---------------------------------------------------------------------
                    Distance matrix (angstroms):
                    1          2          3          4
     1  B    0.000000
     2  N    3.855468   0.000000
     3  H    1.206071   5.061539   0.000000
     4  H    4.891033   1.035565   6.097104   0.000000
 Symmetry turned off by external request.
 This structure is nearly, but not quite of a higher symmetry.
 Consider Symm=Loose if the higher symmetry is desired.
 Stoichiometry    BH2N(1+,2)
 Framework group  CS[SG(BH2N)]
 Deg. of freedom     5
 Full point group                 CS      NOp   2
 Rotational constants (GHZ):  2438865578.8873782           4.5720178           4.5720178
 Leave Link  202 at Mon Apr 21 17:59:51 2025, MaxMem=   536870912 cpu:               0.2 elap:               0.1
 (Enter /home/szhao/Apps/g16/l601.exe)
 Copying SCF densities to generalized density rwf, IOpCl= 1 IROHF=0.

 **********************************************************************

            Population analysis using the SCF density.

 **********************************************************************

 Alpha  occ. eigenvalues --  -14.94820  -7.53937  -1.07953  -0.86331  -0.61797
 Alpha  occ. eigenvalues --   -0.54386  -0.54386
 Alpha virt. eigenvalues --   -0.45213  -0.35070  -0.35070  -0.15825  -0.11836
 Alpha virt. eigenvalues --   -0.09959  -0.09959  -0.08656  -0.03976   0.01606
 Alpha virt. eigenvalues --    0.01606   0.03300   0.07831   0.12625   0.12625
 Alpha virt. eigenvalues --    0.13311   0.15967   0.33672   0.45316   0.47312
 Alpha virt. eigenvalues --    0.47312   0.50667   0.50667   0.63447   0.66189
 Alpha virt. eigenvalues --    0.66189   0.75826   0.93727   1.17055   1.17055
 Alpha virt. eigenvalues --    1.34856   1.34856   1.49485   1.49485   1.50435
 Alpha virt. eigenvalues --    1.80164   1.81988   1.81988   2.20369   2.21440
 Alpha virt. eigenvalues --    2.21440   2.38815   2.43987   2.81682   3.66169
 Alpha virt. eigenvalues --    3.66169   4.23383  13.80158  35.28866
  Beta  occ. eigenvalues --  -14.92337  -7.55171  -0.95104  -0.89968  -0.68416
  Beta  occ. eigenvalues --   -0.56129
  Beta virt. eigenvalues --   -0.36111  -0.36111  -0.19189  -0.19189  -0.14682
  Beta virt. eigenvalues --   -0.10663  -0.09794  -0.09794  -0.07031  -0.03018
  Beta virt. eigenvalues --    0.03625   0.03625   0.06401   0.08372   0.16064
  Beta virt. eigenvalues --    0.17669   0.17669   0.24334   0.33379   0.46754
  Beta virt. eigenvalues --    0.50167   0.50167   0.52570   0.52571   0.67276
  Beta virt. eigenvalues --    0.70487   0.70487   0.81044   0.97325   1.23555
  Beta virt. eigenvalues --    1.23555   1.36536   1.36536   1.50154   1.50154
  Beta virt. eigenvalues --    1.58421   1.84385   1.93808   1.93808   2.12094
  Beta virt. eigenvalues --    2.27632   2.27632   2.32044   2.43721   2.93637
  Beta virt. eigenvalues --    3.76159   3.76159   4.30861  13.79970  35.29333
          Condensed to atoms (all electrons):
               1          2          3          4
     1  B    3.897213   0.002181   0.340822   0.000184
     2  N    0.002181   6.977544   0.000481   0.262992
     3  H    0.340822   0.000481   0.435580  -0.000001
     4  H    0.000184   0.262992  -0.000001   0.476345
          Atomic-Atomic Spin Densities.
               1          2          3          4
     1  B   -0.861809   0.013416   0.001946  -0.000204
     2  N    0.013416   2.041441  -0.000137   0.001743
     3  H    0.001946  -0.000137  -0.144624  -0.000004
     4  H   -0.000204   0.001743  -0.000004  -0.068527
 Mulliken charges and spin densities:
               1          2
     1  B    0.759601  -0.846651
     2  N   -0.243198   2.056463
     3  H    0.223118  -0.142819
     4  H    0.260480  -0.066992
 Sum of Mulliken charges =   1.00000   1.00000
 Mulliken charges and spin densities with hydrogens summed into heavy atoms:
               1          2
     1  B    0.982718  -0.989470
     2  N    0.017282   1.989470
 Electronic spatial extent (au):  <R**2>=            226.1162
 Charge=              1.0000 electrons
 Dipole moment (field-independent basis, Debye):
    X=             -7.7839    Y=              0.0007    Z=              0.0000  Tot=              7.7839
 Quadrupole moment (field-independent basis, Debye-Ang):
   XX=             19.9639   YY=            -10.2778   ZZ=            -10.2778
   XY=              0.0022   XZ=              0.0000   YZ=              0.0000
 Traceless Quadrupole moment (field-independent basis, Debye-Ang):
   XX=             20.1611   YY=            -10.0806   ZZ=            -10.0806
   XY=              0.0022   XZ=              0.0000   YZ=              0.0000
 Octapole moment (field-independent basis, Debye-Ang**2):
  XXX=            -29.0100  YYY=             -0.0006  ZZZ=              0.0000  XYY=             -4.2631
  XXY=              0.0053  XXZ=              0.0000  XZZ=             -4.2631  YZZ=             -0.0002
  YYZ=              0.0000  XYZ=              0.0000
 Hexadecapole moment (field-independent basis, Debye-Ang**3):
 XXXX=            -60.1908 YYYY=             -9.8540 ZZZZ=             -9.8540 XXXY=              0.0154
 XXXZ=              0.0000 YYYX=             -0.0023 YYYZ=             -0.0000 ZZZX=             -0.0000
 ZZZY=             -0.0000 XXYY=            -47.6094 XXZZ=            -47.6094 YYZZ=             -3.2847
 XXYZ=              0.0000 YYXZ=             -0.0000 ZZXY=             -0.0008
 N-N= 1.193430790150D+01 E-N=-2.079843785443D+02  KE= 7.991687458479D+01
                          Isotropic Fermi Contact Couplings
        Atom                 a.u.       MegaHertz       Gauss      10(-4) cm-1
     1  B(11)             -0.74247   -1064.96824    -380.00715    -355.23517
     2  N(14)              0.26853      86.76218      30.95890      28.94075
     3  H(1)              -0.07575    -338.60716    -120.82345    -112.94719
     4  H(1)              -0.03154    -140.97440     -50.30317     -47.02400
 --------------------------------------------------------
       Center         ----  Spin Dipole Couplings  ----
                      3XX-RR        3YY-RR        3ZZ-RR
 --------------------------------------------------------
     1   Atom       -0.457435      0.228717      0.228717
     2   Atom       -2.257152      1.128575      1.128577
     3   Atom       -0.048419      0.024210      0.024210
     4   Atom        0.245460     -0.122730     -0.122730
 --------------------------------------------------------
                        XY            XZ            YZ
 --------------------------------------------------------
     1   Atom       -0.000024     -0.000000     -0.000000
     2   Atom       -0.001212     -0.000000     -0.000000
     3   Atom       -0.000003     -0.000000     -0.000000
     4   Atom        0.000167      0.000000      0.000000
 --------------------------------------------------------


 ---------------------------------------------------------------------------------
              Anisotropic Spin Dipole Couplings in Principal Axis System
 ---------------------------------------------------------------------------------

       Atom             a.u.   MegaHertz   Gauss  10(-4) cm-1        Axes

              Baa    -0.4574   -78.320   -27.946   -26.125  1.0000  0.0000  0.0000
     1 B(11)  Bbb     0.2287    39.160    13.973    13.062 -0.0000  1.0000 -0.0000
              Bcc     0.2287    39.160    13.973    13.062 -0.0000  0.0000  1.0000
 
              Baa    -2.2572   -87.053   -31.063   -29.038  1.0000  0.0004  0.0000
     2 N(14)  Bbb     1.1286    43.527    15.531    14.519 -0.0004  1.0000  0.0000
              Bcc     1.1286    43.527    15.531    14.519  0.0000 -0.0000  1.0000
 
              Baa    -0.0484   -25.834    -9.218    -8.617  1.0000  0.0000  0.0000
     3 H(1)   Bbb     0.0242    12.917     4.609     4.309 -0.0000  1.0000 -0.0000
              Bcc     0.0242    12.917     4.609     4.309 -0.0000  0.0000  1.0000
 
              Baa    -0.1227   -65.483   -23.366   -21.843 -0.0005  1.0000  0.0000
     4 H(1)   Bbb    -0.1227   -65.483   -23.366   -21.843 -0.0000 -0.0000  1.0000
              Bcc     0.2455   130.966    46.732    43.686  1.0000  0.0005  0.0000
 

 ---------------------------------------------------------------------------------

 No NMR shielding tensors so no spin-rotation constants.
 Leave Link  601 at Mon Apr 21 17:59:52 2025, MaxMem=   536870912 cpu:               2.0 elap:               0.3
 (Enter /home/szhao/Apps/g16/l9999.exe)
 1\1\GINC-NODE06\FOpt\UM062X\6-311+G(d,p)\B1H2N1(1+,2)\SZHAO\21-Apr-202
 5\0\\#p opt UM062X/6-311+G** nosymm int=superfine\\Title Card Required
 \\1,2\B,-1.92773421,0.,0.\N,1.92773421,0.,0.\H,-3.1338048523,-0.000043
 6663,-0.0000000002\H,2.9632991583,0.0004800856,0.0000000001\\Version=E
 S64L-G16RevA.03\HF=-80.155572\S2=1.758053\S2-1=0.\S2A=0.77699\RMSD=3.4
 60e-10\RMSF=8.186e-07\Dipole=-3.5598247,0.0002251,0.\Quadrupole=14.989
 3099,-7.4946547,-7.4946551,0.0016102,0.,0.\PG=CS [SG(B1H2N1)]\\@


 CHINESE FORTUNE COOKIE OF JAN 1 1967 SAY....
 ALL THINGS ARE DIFFICULT BEFORE THEY ARE EASY.
 WE LEARN SO LITTLE AND FORGET SO MUCH.
 YOU WILL OVERCOME OBSTACLES TO ACHIEVE SUCCESS.
 AH SO.
 Job cpu time:       0 days  0 hours  2 minutes 59.8 seconds.
 Elapsed time:       0 days  0 hours  0 minutes 25.4 seconds.
 File lengths (MBytes):  RWF=     17 Int=      0 D2E=      0 Chk=      2 Scr=      2
 Normal termination of Gaussian 16 at Mon Apr 21 17:59:52 2025.
