Title Card Required                                                     
Force     UM062X                                                      6-311+G(d,p)        
Number of atoms                            I                6
Info1-9                                    I   N=           9
          15          15           0           0           0         100
           5          18        -502
Full Title                                 C   N=           2
Title Card Required     
Route                                      C   N=           4
#p UM062X/6-311+G** force int=superfine         
Charge                                     I                1
Multiplicity                               I                2
Number of electrons                        I               15
Number of alpha electrons                  I                8
Number of beta electrons                   I                7
Number of basis functions                  I               68
Number of independent functions            I               68
Number of point charges in /Mol/           I                0
Number of translation vectors              I                0
Atomic numbers                             I   N=           6
           6           6           1           1           1           1
Nuclear charges                            R   N=           6
  6.00000000E+00  6.00000000E+00  1.00000000E+00  1.00000000E+00  1.00000000E+00
  1.00000000E+00
Current cartesian coordinates              R   N=          18
 -5.29025972E-20  8.68291360E-01  0.00000000E+00 -1.06246852E-16 -8.68291360E-01
  0.00000000E+00 -1.52241439E+00  2.37704492E+00  0.00000000E+00  1.53636624E+00
  2.36645678E+00  0.00000000E+00  1.52241439E+00 -2.37704492E+00  0.00000000E+00
 -1.53636624E+00 -2.36645678E+00  0.00000000E+00
Number of symbols in /Mol/                 I                0
Force Field                                I                0
Atom Types                                 C   N=           6
                                                            
            
Int Atom Types                             I   N=           6
           0           0           0           0           0           0
MM charges                                 R   N=           6
  0.00000000E+00  0.00000000E+00  0.00000000E+00  0.00000000E+00  0.00000000E+00
  0.00000000E+00
Integer atomic weights                     I   N=           6
          12          12           1           1           1           1
Real atomic weights                        R   N=           6
  1.20000000E+01  1.20000000E+01  1.00782504E+00  1.00782504E+00  1.00782504E+00
  1.00782504E+00
Atom fragment info                         I   N=           6
           0           0           0           0           0           0
Atom residue num                           I   N=           6
           0           0           0           0           0           0
Nuclear spins                              I   N=           6
           0           0           1           1           1           1
Nuclear ZEff                               R   N=           6
 -3.60000000E+00 -3.60000000E+00 -1.00000000E+00 -1.00000000E+00 -1.00000000E+00
 -1.00000000E+00
Nuclear ZNuc                               R   N=           6
  6.00000000E+00  6.00000000E+00  1.00000000E+00  1.00000000E+00  1.00000000E+00
  1.00000000E+00
Nuclear QMom                               R   N=           6
  0.00000000E+00  0.00000000E+00  0.00000000E+00  0.00000000E+00  0.00000000E+00
  0.00000000E+00
Nuclear GFac                               R   N=           6
  0.00000000E+00  0.00000000E+00  2.79284600E+00  2.79284600E+00  2.79284600E+00
  2.79284600E+00
MicOpt                                     I   N=           6
          -1          -1          -1          -1          -1          -1
Number of residues                         I                0
Number of secondary structures             I                0
SymInf integers                            I   N=          26
           2           4           1           1           1          -1
          -1           1           1           1          -1          -1
          -1          -1           0           0           0           0
           0           0           0           0           0           0
           0           0
RotTr to input orientation                 R   N=          12
 -3.49011352E-17  1.00000000E+00  0.00000000E+00 -1.00000000E+00 -3.49214443E-17
  0.00000000E+00  0.00000000E+00  0.00000000E+00  1.00000000E+00 -2.77555756E-17
  0.00000000E+00  0.00000000E+00
Number of contracted shells                I               28
Number of primitive shells                 I               50
Pure/Cartesian d shells                    I                0
Pure/Cartesian f shells                    I                0
Highest angular momentum                   I                2
Largest degree of contraction              I                6
Shell types                                I   N=          28
           0          -1          -1          -1          -1          -2
           0          -1          -1          -1          -1          -2
           0           0           0           1           0           0
           0           1           0           0           0           1
           0           0           0           1
Number of primitives per shell             I   N=          28
           6           3           1           1           1           1
           6           3           1           1           1           1
           3           1           1           1           3           1
           1           1           3           1           1           1
           3           1           1           1
Shell to atom map                          I   N=          28
           1           1           1           1           1           1
           2           2           2           2           2           2
           3           3           3           3           4           4
           4           4           5           5           5           5
           6           6           6           6
Primitive exponents                        R   N=          50
  4.56324000E+03  6.82024000E+02  1.54973000E+02  4.44553000E+01  1.30290000E+01
  1.82773000E+00  2.09642000E+01  4.80331000E+00  1.45933000E+00  4.83456000E-01
  1.45585000E-01  4.38000000E-02  6.26000000E-01  4.56324000E+03  6.82024000E+02
  1.54973000E+02  4.44553000E+01  1.30290000E+01  1.82773000E+00  2.09642000E+01
  4.80331000E+00  1.45933000E+00  4.83456000E-01  1.45585000E-01  4.38000000E-02
  6.26000000E-01  3.38650000E+01  5.09479000E+00  1.15879000E+00  3.25840000E-01
  1.02741000E-01  7.50000000E-01  3.38650000E+01  5.09479000E+00  1.15879000E+00
  3.25840000E-01  1.02741000E-01  7.50000000E-01  3.38650000E+01  5.09479000E+00
  1.15879000E+00  3.25840000E-01  1.02741000E-01  7.50000000E-01  3.38650000E+01
  5.09479000E+00  1.15879000E+00  3.25840000E-01  1.02741000E-01  7.50000000E-01
Contraction coefficients                   R   N=          50
  1.96665025E-03  1.52306019E-02  7.61269097E-02  2.60801033E-01  6.16462078E-01
  2.21006028E-01  1.14660081E-01  9.19999648E-01 -3.03068213E-03  1.00000000E+00
  1.00000000E+00  1.00000000E+00  1.00000000E+00  1.96665025E-03  1.52306019E-02
  7.61269097E-02  2.60801033E-01  6.16462078E-01  2.21006028E-01  1.14660081E-01
  9.19999648E-01 -3.03068213E-03  1.00000000E+00  1.00000000E+00  1.00000000E+00
  1.00000000E+00  2.54938145E-02  1.90373109E-01  8.52161486E-01  1.00000000E+00
  1.00000000E+00  1.00000000E+00  2.54938145E-02  1.90373109E-01  8.52161486E-01
  1.00000000E+00  1.00000000E+00  1.00000000E+00  2.54938145E-02  1.90373109E-01
  8.52161486E-01  1.00000000E+00  1.00000000E+00  1.00000000E+00  2.54938145E-02
  1.90373109E-01  8.52161486E-01  1.00000000E+00  1.00000000E+00  1.00000000E+00
P(S=P) Contraction coefficients            R   N=          50
  0.00000000E+00  0.00000000E+00  0.00000000E+00  0.00000000E+00  0.00000000E+00
  0.00000000E+00  4.02486927E-02  2.37593957E-01  8.15853851E-01  1.00000000E+00
  1.00000000E+00  1.00000000E+00  0.00000000E+00  0.00000000E+00  0.00000000E+00
  0.00000000E+00  0.00000000E+00  0.00000000E+00  0.00000000E+00  4.02486927E-02
  2.37593957E-01  8.15853851E-01  1.00000000E+00  1.00000000E+00  1.00000000E+00
  0.00000000E+00  0.00000000E+00  0.00000000E+00  0.00000000E+00  0.00000000E+00
  0.00000000E+00  0.00000000E+00  0.00000000E+00  0.00000000E+00  0.00000000E+00
  0.00000000E+00  0.00000000E+00  0.00000000E+00  0.00000000E+00  0.00000000E+00
  0.00000000E+00  0.00000000E+00  0.00000000E+00  0.00000000E+00  0.00000000E+00
  0.00000000E+00  0.00000000E+00  0.00000000E+00  0.00000000E+00  0.00000000E+00
Coordinates of each shell                  R   N=          84
 -3.52683981E-20  8.68291360E-01  0.00000000E+00 -3.52683981E-20  8.68291360E-01
  0.00000000E+00 -3.52683981E-20  8.68291360E-01  0.00000000E+00 -3.52683981E-20
  8.68291360E-01  0.00000000E+00 -3.52683981E-20  8.68291360E-01  0.00000000E+00
 -3.52683981E-20  8.68291360E-01  0.00000000E+00 -1.06264487E-16 -8.68291360E-01
  0.00000000E+00 -1.06264487E-16 -8.68291360E-01  0.00000000E+00 -1.06264487E-16
 -8.68291360E-01  0.00000000E+00 -1.06264487E-16 -8.68291360E-01  0.00000000E+00
 -1.06264487E-16 -8.68291360E-01  0.00000000E+00 -1.06264487E-16 -8.68291360E-01
  0.00000000E+00 -1.52241439E+00  2.37704492E+00  0.00000000E+00 -1.52241439E+00
  2.37704492E+00  0.00000000E+00 -1.52241439E+00  2.37704492E+00  0.00000000E+00
 -1.52241439E+00  2.37704492E+00  0.00000000E+00  1.53636624E+00  2.36645678E+00
  0.00000000E+00  1.53636624E+00  2.36645678E+00  0.00000000E+00  1.53636624E+00
  2.36645678E+00  0.00000000E+00  1.53636624E+00  2.36645678E+00  0.00000000E+00
  1.52241439E+00 -2.37704492E+00  0.00000000E+00  1.52241439E+00 -2.37704492E+00
  0.00000000E+00  1.52241439E+00 -2.37704492E+00  0.00000000E+00  1.52241439E+00
 -2.37704492E+00  0.00000000E+00 -1.53636624E+00 -2.36645678E+00  0.00000000E+00
 -1.53636624E+00 -2.36645678E+00  0.00000000E+00 -1.53636624E+00 -2.36645678E+00
  0.00000000E+00 -1.53636624E+00 -2.36645678E+00  0.00000000E+00
Num ILSW                                   I              100
ILSW                                       I   N=         100
           1           0           0           0           2           0
           0           0           0           0        4336          -1
           7           0           0           0           2           0
           0           0           0           0           1           0
           1           0           0           0           0           0
           0           0      100000           0          -1           0
           0           0           0           0           0           0
           0           0           0           1           0           0
           0 -2000000000           1           0           0           0
           0           0           4          52           0           0
           0           0          55           0           0           0
           0           0           0           6           0           1
           0           0           0           0           0           0
           0           0           0           0           0           0
           0           0           0           0           0           0
           0           0           0           0           0           0
           0           0           0           0
Num RLSW                                   I               52
RLSW                                       R   N=          52
  1.00000000E+00  1.00000000E+00  1.00000000E+00  1.00000000E+00  5.40000000E-01
  0.00000000E+00  0.00000000E+00  1.00000000E+00  0.00000000E+00  0.00000000E+00
  0.00000000E+00  0.00000000E+00  1.00000000E+00  0.00000000E+00  0.00000000E+00
  0.00000000E+00  0.00000000E+00  1.00000000E+00  0.00000000E+00  0.00000000E+00
  0.00000000E+00  0.00000000E+00  1.00000000E+00  0.00000000E+00  0.00000000E+00
  0.00000000E+00  0.00000000E+00  1.00000000E+00  0.00000000E+00  0.00000000E+00
  0.00000000E+00  0.00000000E+00  1.00000000E+00  0.00000000E+00  0.00000000E+00
  0.00000000E+00  0.00000000E+00  0.00000000E+00  1.00000000E+00  1.00000000E+00
  0.00000000E+00  1.00000000E+00  0.00000000E+00  0.00000000E+00  0.00000000E+00
  0.00000000E+00  0.00000000E+00  0.00000000E+00  0.00000000E+00  0.00000000E+00
  0.00000000E+00  0.00000000E+00
MxBond                                     I                3
NBond                                      I   N=           6
           3           3           1           1           1           1
IBond                                      I   N=          18
           2           3           4           1           5           6
           1           0           0           1           0           0
           2           0           0           2           0           0
RBond                                      R   N=          18
  3.00000000E+00  1.00000000E+00  1.00000000E+00  3.00000000E+00  1.00000000E+00
  1.00000000E+00  1.00000000E+00  0.00000000E+00  0.00000000E+00  1.00000000E+00
  0.00000000E+00  0.00000000E+00  1.00000000E+00  0.00000000E+00  0.00000000E+00
  1.00000000E+00  0.00000000E+00  0.00000000E+00
Virial Ratio                               R      1.971245232588086E+00
SCF Energy                                 R     -7.774782347328329E+01
Total Energy                               R     -7.774782347328329E+01
S**2                                       R      7.579704256610942E-01
S**2 after annihilation                    R      7.500345883786460E-01
RMS Force                                  R      5.124850520200994E-01
RMS Density                                R      7.948090250287132E-09
Job Status                                 I                1
Nuclear derivative order                   I                1
External E-field                           R   N=          35
  0.00000000E+00  0.00000000E+00  0.00000000E+00  0.00000000E+00  0.00000000E+00
  0.00000000E+00  0.00000000E+00  0.00000000E+00  0.00000000E+00  0.00000000E+00
  0.00000000E+00  0.00000000E+00  0.00000000E+00  0.00000000E+00  0.00000000E+00
  0.00000000E+00  0.00000000E+00  0.00000000E+00  0.00000000E+00  0.00000000E+00
  0.00000000E+00  0.00000000E+00  0.00000000E+00  0.00000000E+00  0.00000000E+00
  0.00000000E+00  0.00000000E+00  0.00000000E+00  0.00000000E+00  0.00000000E+00
  0.00000000E+00  0.00000000E+00  0.00000000E+00  0.00000000E+00  0.00000000E+00
IOpCl                                      I                1
IROHF                                      I                0
Alpha Orbital Energies                     R   N=          68
 -1.08124702E+01 -1.07856890E+01 -1.25307469E+00 -9.64876823E-01 -8.84889826E-01
 -8.83007886E-01 -7.44213454E-01 -6.34601478E-01 -1.80425790E-01 -1.53027143E-01
 -1.45242497E-01 -1.37822458E-01 -1.09755229E-01 -8.96599708E-02 -7.54148369E-02
 -6.52797563E-02 -2.29845514E-02 -1.42119828E-02  1.05751541E-04  2.90742839E-02
  1.47909747E-01  1.84022947E-01  1.86555661E-01  2.24371917E-01  2.61853864E-01
  2.74299069E-01  3.17509093E-01  3.58996948E-01  4.69339712E-01  4.95277161E-01
  4.99247060E-01  5.16637912E-01  5.72541215E-01  7.35461187E-01  9.47146792E-01
  9.50482561E-01  1.03171952E+00  1.06762173E+00  1.30099856E+00  1.30984676E+00
  1.39151681E+00  1.41650118E+00  1.45895335E+00  1.46070255E+00  1.47728306E+00
  1.69416891E+00  1.72399554E+00  1.78939321E+00  1.90242942E+00  1.96180726E+00
  2.02181475E+00  2.14404952E+00  2.26602538E+00  2.28099283E+00  2.31740281E+00
  2.33751578E+00  2.37400531E+00  2.51476604E+00  2.52003600E+00  2.68540181E+00
  2.98263770E+00  3.14611171E+00  3.24544193E+00  3.54091815E+00  3.62268140E+00
  3.77439675E+00  2.39206137E+01  2.54052094E+01
Beta Orbital Energies                      R   N=          68
 -1.08129012E+01 -1.07858791E+01 -1.24476952E+00 -9.17227067E-01 -8.52912954E-01
 -8.40540189E-01 -7.42126916E-01 -4.27323192E-01 -1.65434609E-01 -1.51449296E-01
 -1.44014736E-01 -1.34671796E-01 -1.07383015E-01 -8.84114147E-02 -4.90611581E-02
 -4.11826497E-02 -2.03924880E-02 -4.22922535E-03  5.51353757E-03  3.73860591E-02
  1.45162984E-01  1.81452051E-01  1.82918867E-01  2.25990263E-01  2.67714982E-01
  2.74439891E-01  3.05993967E-01  3.63731630E-01  4.68727776E-01  4.90883912E-01
  4.94430555E-01  5.10563517E-01  5.68405436E-01  7.39514067E-01  9.49257696E-01
  9.57806660E-01  1.03173398E+00  1.06419870E+00  1.29749591E+00  1.32323527E+00
  1.39083579E+00  1.41116303E+00  1.45013446E+00  1.45539478E+00  1.48214635E+00
  1.69456577E+00  1.72196310E+00  1.80972052E+00  1.90141602E+00  1.96133883E+00
  2.02756023E+00  2.16399479E+00  2.25581313E+00  2.28433467E+00  2.31086535E+00
  2.34884248E+00  2.36555403E+00  2.51212594E+00  2.52364071E+00  2.68354818E+00
  2.97235312E+00  3.15190077E+00  3.23994600E+00  3.53186826E+00  3.61459023E+00
  3.76865124E+00  2.39195553E+01  2.54050486E+01
Alpha MO coefficients                      R   N=        4624
  3.97040751E-01  3.26780938E-01  9.30977192E-06 -2.45595872E-03  0.00000000E+00
  8.39819606E-03  3.25360296E-06  1.51311000E-03  0.00000000E+00 -1.28442605E-04
 -7.71974645E-05  8.33171438E-04  0.00000000E+00 -8.00366327E-04  6.26693785E-06
 -8.61940505E-04  0.00000000E+00 -2.18677033E-03  0.00000000E+00  0.00000000E+00
 -2.70374653E-03 -6.23267298E-05  3.97040751E-01  3.26780938E-01 -9.30977192E-06
  2.45595872E-03  0.00000000E+00  8.39819606E-03 -3.25360296E-06 -1.51311000E-03
  0.00000000E+00 -1.28442605E-04  7.71974645E-05 -8.33171438E-04  0.00000000E+00
 -8.00366327E-04 -6.26693785E-06  8.61940505E-04  0.00000000E+00 -2.18677033E-03
  0.00000000E+00  0.00000000E+00 -2.70374653E-03 -6.23267298E-05  1.39603544E-04
 -2.88267769E-03  1.31672049E-03 -1.64837336E-03  4.92954053E-04  0.00000000E+00
  1.53768711E-04 -2.76320589E-03  1.31747847E-03  1.60758931E-03  4.40151992E-04
  0.00000000E+00  1.39603544E-04 -2.88267769E-03  1.31672049E-03  1.64837336E-03
 -4.92954053E-04  0.00000000E+00  1.53768711E-04 -2.76320589E-03  1.31747847E-03
 -1.60758931E-03 -4.40151992E-04  0.00000000E+00  3.99188967E-01  3.27444060E-01
  5.20210335E-06 -1.40501971E-03  0.00000000E+00  5.14862874E-02 -7.99700008E-06
 -3.57973264E-02  0.00000000E+00 -1.39561539E-03  3.05371876E-06  4.42299315E-03
  0.00000000E+00 -9.84973903E-03 -2.02677874E-07  2.33618979E-03  0.00000000E+00
 -4.94007254E-03  0.00000000E+00  0.00000000E+00 -9.51912572E-03 -2.96922481E-06
 -3.99188967E-01 -3.27444060E-01  5.20210335E-06 -1.40501971E-03  0.00000000E+00
 -5.14862874E-02 -7.99700008E-06 -3.57973264E-02  0.00000000E+00  1.39561539E-03
  3.05371876E-06  4.42299315E-03  0.00000000E+00  9.84973903E-03 -2.02677874E-07
  2.33618979E-03  0.00000000E+00  4.94007254E-03  0.00000000E+00  0.00000000E+00
  9.51912572E-03  2.96922481E-06  5.75079409E-04  8.24474839E-04 -2.19226879E-03
  1.62784628E-04 -3.82093950E-04  0.00000000E+00  5.81970083E-04  8.18992010E-04
 -2.17246803E-03 -1.80475323E-04 -3.79266335E-04  0.00000000E+00 -5.75079409E-04
 -8.24474839E-04  2.19226879E-03  1.62784628E-04 -3.82093950E-04  0.00000000E+00
 -5.81970083E-04 -8.18992010E-04  2.17246803E-03 -1.80475323E-04 -3.79266335E-04
  0.00000000E+00 -1.06528615E-01 -1.70098997E-01  5.12210434E-05 -1.20624263E-01
  0.00000000E+00  3.65768004E-01  1.37822565E-04 -8.43258191E-02  0.00000000E+00
  1.46833812E-01 -2.75720316E-04 -2.30434724E-02  0.00000000E+00 -3.54282749E-03
  1.38669996E-05  1.69707290E-02  0.00000000E+00 -1.59281356E-02  0.00000000E+00
  0.00000000E+00 -1.42793998E-02 -1.87543641E-04 -1.06528615E-01 -1.70098997E-01
 -5.12210434E-05  1.20624263E-01  0.00000000E+00  3.65768004E-01 -1.37822565E-04
  8.43258191E-02  0.00000000E+00  1.46833812E-01  2.75720316E-04  2.30434724E-02
  0.00000000E+00 -3.54282749E-03 -1.38669996E-05 -1.69707290E-02  0.00000000E+00
 -1.59281356E-02  0.00000000E+00  0.00000000E+00 -1.42793998E-02 -1.87543641E-04
  3.90199521E-02  3.85936469E-02 -3.25319006E-03  6.98544090E-04 -6.40635906E-03
  0.00000000E+00  3.92250520E-02  3.91252593E-02 -3.16994249E-03 -8.91988401E-04
 -6.55244296E-03  0.00000000E+00  3.90199521E-02  3.85936469E-02 -3.25319006E-03
 -6.98544090E-04  6.40635906E-03  0.00000000E+00  3.92250520E-02  3.91252593E-02
 -3.16994249E-03  8.91988401E-04  6.55244296E-03  0.00000000E+00  5.69178690E-02
  9.27343447E-02 -6.27623294E-04 -8.61549686E-02  0.00000000E+00 -2.09361010E-01
 -8.45855324E-04 -1.57994608E-01  0.00000000E+00 -1.69749493E-01 -3.20811871E-04
 -6.60850659E-02  0.00000000E+00  2.27766146E-01 -1.87498729E-05 -4.70616667E-02
  0.00000000E+00  7.42161532E-03  0.00000000E+00  0.00000000E+00 -5.39218855E-03
  7.01628931E-05 -5.69178690E-02 -9.27343447E-02 -6.27623294E-04 -8.61549686E-02
  0.00000000E+00  2.09361010E-01 -8.45855324E-04 -1.57994608E-01  0.00000000E+00
  1.69749493E-01 -3.20811871E-04 -6.60850659E-02  0.00000000E+00 -2.27766146E-01
 -1.87498729E-05 -4.70616667E-02  0.00000000E+00 -7.42161532E-03  0.00000000E+00
  0.00000000E+00  5.39218855E-03 -7.01628931E-05 -1.01813591E-01 -1.33552651E-01
  6.32353749E-04 -1.39749244E-02  8.72751556E-03  0.00000000E+00 -1.02035661E-01
 -1.34118327E-01  5.78044893E-04  1.40962006E-02  8.68993729E-03  0.00000000E+00
  1.01813591E-01  1.33552651E-01 -6.32353749E-04 -1.39749244E-02  8.72751556E-03
  0.00000000E+00  1.02035661E-01  1.34118327E-01 -5.78044893E-04  1.40962006E-02
  8.68993729E-03  0.00000000E+00  2.44657601E-04  4.00140687E-04  1.79057036E-01
 -4.70781372E-04  0.00000000E+00 -1.18633686E-03  2.30521633E-01 -4.24515325E-04
  0.00000000E+00 -1.24951139E-03  1.08260414E-01 -2.06813600E-04  0.00000000E+00
  6.53204658E-03  3.99854944E-03 -1.21079272E-03  0.00000000E+00  2.38134770E-05
  0.00000000E+00  0.00000000E+00  1.14183189E-04 -1.83319942E-02 -2.44657601E-04
 -4.00140687E-04  1.79057036E-01 -4.70781372E-04  0.00000000E+00  1.18633686E-03
  2.30521633E-01 -4.24515325E-04  0.00000000E+00  1.24951139E-03  1.08260414E-01
 -2.06813600E-04  0.00000000E+00 -6.53204658E-03  3.99854944E-03 -1.21079272E-03
  0.00000000E+00 -2.38134770E-05  0.00000000E+00  0.00000000E+00 -1.14183189E-04
  1.83319942E-02 -8.67221772E-02 -1.31598785E-01  3.56152297E-03 -8.60361281E-03
  1.88082759E-02  0.00000000E+00  8.64257668E-02  1.31283971E-01 -3.60936072E-03
 -8.69720930E-03 -1.86668141E-02  0.00000000E+00  8.67221772E-02  1.31598785E-01
 -3.56152297E-03 -8.60361281E-03  1.88082759E-02  0.00000000E+00 -8.64257668E-02
 -1.31283971E-01  3.60936072E-03 -8.69720930E-03 -1.86668141E-02  0.00000000E+00
  1.55249294E-02  2.26886915E-02 -4.79669721E-05  2.24696379E-01  0.00000000E+00
 -7.16891582E-03 -2.84807624E-05  2.32284197E-01  0.00000000E+00  8.39113137E-02
  1.67229445E-04  1.09621041E-01  0.00000000E+00  1.02668287E-02 -3.13481249E-04
  2.42460356E-03  0.00000000E+00  4.05902316E-03  0.00000000E+00  0.00000000E+00
  1.32933252E-02  2.36192550E-04  1.55249294E-02  2.26886915E-02  4.79669721E-05
 -2.24696379E-01  0.00000000E+00 -7.16891582E-03  2.84807624E-05 -2.32284197E-01
  0.00000000E+00  8.39113137E-02 -1.67229445E-04 -1.09621041E-01  0.00000000E+00
  1.02668287E-02  3.13481249E-04 -2.42460356E-03  0.00000000E+00  4.05902316E-03
  0.00000000E+00  0.00000000E+00  1.32933252E-02  2.36192550E-04  9.46233526E-02
  1.43455184E-01  3.35935784E-03  2.12086815E-02 -6.19115935E-03  0.00000000E+00
  9.39726153E-02  1.42323807E-01  3.73260513E-03 -2.10595934E-02 -5.77416362E-03
  0.00000000E+00  9.46233526E-02  1.43455184E-01  3.35935784E-03 -2.12086815E-02
  6.19115935E-03  0.00000000E+00  9.39726153E-02  1.42323807E-01  3.73260513E-03
  2.10595934E-02  5.77416362E-03  0.00000000E+00  0.00000000E+00  0.00000000E+00
  0.00000000E+00  0.00000000E+00  2.13857586E-01  0.00000000E+00  0.00000000E+00
  0.00000000E+00  3.03705067E-01  0.00000000E+00  0.00000000E+00  0.00000000E+00
  1.62348521E-01  0.00000000E+00  0.00000000E+00  0.00000000E+00 -4.05504107E-03
  0.00000000E+00  6.88908092E-05 -2.80576669E-02  0.00000000E+00  0.00000000E+00
  0.00000000E+00  0.00000000E+00  0.00000000E+00  0.00000000E+00  2.13857586E-01
  0.00000000E+00  0.00000000E+00  0.00000000E+00  3.03705067E-01  0.00000000E+00
  0.00000000E+00  0.00000000E+00  1.62348521E-01  0.00000000E+00  0.00000000E+00
  0.00000000E+00 -4.05504107E-03  0.00000000E+00 -6.88908092E-05  2.80576669E-02
  0.00000000E+00  0.00000000E+00  0.00000000E+00  0.00000000E+00  0.00000000E+00
  0.00000000E+00  0.00000000E+00  1.36185088E-02  0.00000000E+00  0.00000000E+00
  0.00000000E+00  0.00000000E+00  0.00000000E+00  1.36168285E-02  0.00000000E+00
  0.00000000E+00  0.00000000E+00  0.00000000E+00  0.00000000E+00  1.36185088E-02
  0.00000000E+00  0.00000000E+00  0.00000000E+00  0.00000000E+00  0.00000000E+00
  1.36168285E-02  2.12656920E-04  3.71184563E-04  1.10411719E-01  1.32289471E-04
  0.00000000E+00 -8.44328274E-04  1.63761605E-01  2.73851538E-05  0.00000000E+00
 -1.37495155E-03  2.45718286E-01 -5.66495326E-04  0.00000000E+00 -8.72116812E-05
  3.47735774E-02 -3.68522832E-04  0.00000000E+00 -7.69946437E-06  0.00000000E+00
  0.00000000E+00  3.28720317E-04  6.54845782E-02  2.12656920E-04  3.71184563E-04
 -1.10411719E-01 -1.32289471E-04  0.00000000E+00 -8.44328274E-04 -1.63761605E-01
 -2.73851538E-05  0.00000000E+00 -1.37495155E-03 -2.45718286E-01  5.66495326E-04
  0.00000000E+00 -8.72116812E-05 -3.47735774E-02  3.68522832E-04  0.00000000E+00
 -7.69946437E-06  0.00000000E+00  0.00000000E+00  3.28720317E-04  6.54845782E-02
 -1.32577509E-01 -2.10759099E-01 -6.34682538E-02  1.63514910E-03  8.72330631E-03
  0.00000000E+00  1.33334922E-01  2.12612513E-01  6.46035411E-02  1.41279694E-03
 -8.78634815E-03  0.00000000E+00 -1.32577509E-01 -2.10759099E-01 -6.34682538E-02
 -1.63514910E-03 -8.72330631E-03  0.00000000E+00  1.33334922E-01  2.12612513E-01
  6.46035411E-02 -1.41279694E-03  8.78634815E-03  0.00000000E+00  9.55448177E-05
  1.71904761E-04 -1.36382050E-01 -2.55598182E-04  0.00000000E+00 -1.07537606E-03
 -1.73649029E-01 -1.77498429E-05  0.00000000E+00 -6.14054598E-03 -3.18967095E-01
  1.54093968E-03  0.00000000E+00  4.40922875E-02  2.03776489E-01 -6.71555781E-03
  0.00000000E+00  5.88472702E-05  0.00000000E+00  0.00000000E+00  3.84439505E-04
  6.13522559E-02 -9.55448177E-05 -1.71904761E-04 -1.36382050E-01 -2.55598182E-04
  0.00000000E+00  1.07537606E-03 -1.73649029E-01 -1.77498429E-05  0.00000000E+00
  6.14054598E-03 -3.18967095E-01  1.54093968E-03  0.00000000E+00 -4.40922875E-02
  2.03776489E-01 -6.71555781E-03  0.00000000E+00 -5.88472702E-05  0.00000000E+00
  0.00000000E+00 -3.84439505E-04 -6.13522559E-02 -7.59375234E-02 -2.23200433E-01
 -4.23799622E-01  1.47191576E-02 -1.84209783E-02  0.00000000E+00  7.63965020E-02
  2.25165632E-01  4.24743079E-01  1.50284315E-02  1.84940207E-02  0.00000000E+00
  7.59375234E-02  2.23200433E-01  4.23799622E-01  1.47191576E-02 -1.84209783E-02
  0.00000000E+00 -7.63965020E-02 -2.25165632E-01 -4.24743079E-01  1.50284315E-02
  1.84940207E-02  0.00000000E+00  2.09896378E-02  3.72781155E-02 -2.49515322E-04
 -6.71274435E-02  0.00000000E+00 -1.09662599E-01 -3.63981278E-04 -9.82170992E-02
  0.00000000E+00 -4.94291875E-01 -3.37697546E-03 -2.15686350E-01  0.00000000E+00
  8.98055626E-01 -3.24225961E-03  6.33760392E-01  0.00000000E+00  6.35259683E-03
  0.00000000E+00  0.00000000E+00  5.38587117E-03 -9.01330769E-05  2.09896378E-02
  3.72781155E-02  2.49515322E-04  6.71274435E-02  0.00000000E+00 -1.09662599E-01
  3.63981278E-04  9.82170992E-02  0.00000000E+00 -4.94291875E-01  3.37697546E-03
  2.15686350E-01  0.00000000E+00  8.98055626E-01  3.24225961E-03 -6.33760392E-01
  0.00000000E+00  6.35259683E-03  0.00000000E+00  0.00000000E+00  5.38587117E-03
 -9.01330769E-05 -8.20475292E-03  8.21796104E-02 -8.77880381E-02 -1.20905762E-02
  8.06884319E-03  0.00000000E+00 -8.21653853E-03  8.21971956E-02 -8.32559179E-02
  1.21507995E-02  7.95371915E-03  0.00000000E+00 -8.20475292E-03  8.21796104E-02
 -8.77880381E-02  1.20905762E-02 -8.06884319E-03  0.00000000E+00 -8.21653853E-03
  8.21971956E-02 -8.32559179E-02 -1.21507995E-02 -7.95371915E-03  0.00000000E+00
  0.00000000E+00  0.00000000E+00  0.00000000E+00  0.00000000E+00  1.26148937E-01
  0.00000000E+00  0.00000000E+00  0.00000000E+00  2.07640751E-01  0.00000000E+00
  0.00000000E+00  0.00000000E+00  6.72903590E-01  0.00000000E+00  0.00000000E+00
  0.00000000E+00  1.24832746E+00  0.00000000E+00  7.24698320E-05  5.52833034E-02
  0.00000000E+00  0.00000000E+00  0.00000000E+00  0.00000000E+00  0.00000000E+00
  0.00000000E+00 -1.26148937E-01  0.00000000E+00  0.00000000E+00  0.00000000E+00
 -2.07640751E-01  0.00000000E+00  0.00000000E+00  0.00000000E+00 -6.72903590E-01
  0.00000000E+00  0.00000000E+00  0.00000000E+00 -1.24832746E+00  0.00000000E+00
  7.24698320E-05  5.52833034E-02  0.00000000E+00  0.00000000E+00  0.00000000E+00
  0.00000000E+00  0.00000000E+00  0.00000000E+00  0.00000000E+00  2.92861105E-02
  0.00000000E+00  0.00000000E+00  0.00000000E+00  0.00000000E+00  0.00000000E+00
  2.92654888E-02  0.00000000E+00  0.00000000E+00  0.00000000E+00  0.00000000E+00
  0.00000000E+00 -2.92861105E-02  0.00000000E+00  0.00000000E+00  0.00000000E+00
  0.00000000E+00  0.00000000E+00 -2.92654888E-02 -2.86462819E-02 -4.95288448E-02
 -2.63365592E-04  4.44553570E-02  0.00000000E+00  1.29170645E-01 -3.54396746E-04
  9.38018427E-02  0.00000000E+00  5.87860144E-01 -5.10048725E-04  5.60171442E-02
  0.00000000E+00  1.90979456E+01  5.46561440E-04 -4.12842771E+00  0.00000000E+00
  2.36981374E-03  0.00000000E+00  0.00000000E+00  6.67658655E-03  1.42817667E-04
  2.86462819E-02  4.95288448E-02 -2.63365592E-04  4.44553570E-02  0.00000000E+00
 -1.29170645E-01 -3.54396746E-04  9.38018427E-02  0.00000000E+00 -5.87860144E-01
 -5.10048725E-04  5.60171442E-02  0.00000000E+00 -1.90979456E+01  5.46561440E-04
 -4.12842771E+00  0.00000000E+00 -2.36981374E-03  0.00000000E+00  0.00000000E+00