 Entering Gaussian System, Link 0=g16
 Initial command:
 /home/szhao/Apps/g16/l1.exe "/home/szhao/tmp/Gau-46984.inp" -scrdir="/home/szhao/tmp/"
 Default is to use a total of  16 processors:
                               16 via shared-memory
                                1 via Linda
 Entering Link 1 = /home/szhao/Apps/g16/l1.exe PID=     46986.
  
 Copyright (c) 1988,1990,1992,1993,1995,1998,2003,2009,2016,
            Gaussian, Inc.  All Rights Reserved.
  
 This is part of the Gaussian(R) 16 program.  It is based on
 the Gaussian(R) 09 system (copyright 2009, Gaussian, Inc.),
 the Gaussian(R) 03 system (copyright 2003, Gaussian, Inc.),
 the Gaussian(R) 98 system (copyright 1998, Gaussian, Inc.),
 the Gaussian(R) 94 system (copyright 1995, Gaussian, Inc.),
 the Gaussian 92(TM) system (copyright 1992, Gaussian, Inc.),
 the Gaussian 90(TM) system (copyright 1990, Gaussian, Inc.),
 the Gaussian 88(TM) system (copyright 1988, Gaussian, Inc.),
 the Gaussian 86(TM) system (copyright 1986, Carnegie Mellon
 University), and the Gaussian 82(TM) system (copyright 1983,
 Carnegie Mellon University). Gaussian is a federally registered
 trademark of Gaussian, Inc.
  
 This software contains proprietary and confidential information,
 including trade secrets, belonging to Gaussian, Inc.
  
 This software is provided under written license and may be
 used, copied, transmitted, or stored only in accord with that
 written license.
  
 The following legend is applicable only to US Government
 contracts under FAR:
  
                    RESTRICTED RIGHTS LEGEND
  
 Use, reproduction and disclosure by the US Government is
 subject to restrictions as set forth in subparagraphs (a)
 and (c) of the Commercial Computer Software - Restricted
 Rights clause in FAR 52.227-19.
  
 Gaussian, Inc.
 340 Quinnipiac St., Bldg. 40, Wallingford CT 06492
  
  
 ---------------------------------------------------------------
 Warning -- This program may not be used in any manner that
 competes with the business of Gaussian, Inc. or will provide
 assistance to any competitor of Gaussian, Inc.  The licensee
 of this program is prohibited from giving any competitor of
 Gaussian, Inc. access to this program.  By using this program,
 the user acknowledges that Gaussian, Inc. is engaged in the
 business of creating and licensing software in the field of
 computational chemistry and represents and warrants to the
 licensee that it is not a competitor of Gaussian, Inc. and that
 it will not use this program in any manner prohibited above.
 ---------------------------------------------------------------
  

 Cite this work as:
 Gaussian 16, Revision A.03,
 M. J. Frisch, G. W. Trucks, H. B. Schlegel, G. E. Scuseria, 
 M. A. Robb, J. R. Cheeseman, G. Scalmani, V. Barone, 
 G. A. Petersson, H. Nakatsuji, X. Li, M. Caricato, A. V. Marenich, 
 J. Bloino, B. G. Janesko, R. Gomperts, B. Mennucci, H. P. Hratchian, 
 J. V. Ortiz, A. F. Izmaylov, J. L. Sonnenberg, D. Williams-Young, 
 F. Ding, F. Lipparini, F. Egidi, J. Goings, B. Peng, A. Petrone, 
 T. Henderson, D. Ranasinghe, V. G. Zakrzewski, J. Gao, N. Rega, 
 G. Zheng, W. Liang, M. Hada, M. Ehara, K. Toyota, R. Fukuda, 
 J. Hasegawa, M. Ishida, T. Nakajima, Y. Honda, O. Kitao, H. Nakai, 
 T. Vreven, K. Throssell, J. A. Montgomery, Jr., J. E. Peralta, 
 F. Ogliaro, M. J. Bearpark, J. J. Heyd, E. N. Brothers, K. N. Kudin, 
 V. N. Staroverov, T. A. Keith, R. Kobayashi, J. Normand, 
 K. Raghavachari, A. P. Rendell, J. C. Burant, S. S. Iyengar, 
 J. Tomasi, M. Cossi, J. M. Millam, M. Klene, C. Adamo, R. Cammi, 
 J. W. Ochterski, R. L. Martin, K. Morokuma, O. Farkas, 
 J. B. Foresman, and D. J. Fox, Gaussian, Inc., Wallingford CT, 2016.
 
 ******************************************
 Gaussian 16:  ES64L-G16RevA.03 25-Dec-2016
                19-Nov-2024 
 ******************************************
 %chk=opt.chk
 %mem=4GB
 %nprocshared=8
 Will use up to    8 processors via shared memory.
 --------------------------------------------
 #p opt UM062X/6-311+G** nosymm int=superfine
 --------------------------------------------
 1/18=20,19=15,26=5,38=1/1,3;
 2/9=110,12=2,15=1,17=6,18=5,40=1/2;
 3/5=4,6=6,7=111,11=2,25=1,30=1,71=1,74=-55,75=-7,116=2/1,2,3;
 4//1;
 5/5=2,38=5/2;
 6/7=2,8=2,9=2,10=2,28=1/1;
 7/30=1/1,2,3,16;
 1/18=20,19=15,26=5/3(2);
 2/9=110,15=1/2;
 99//99;
 2/9=110,15=1/2;
 3/5=4,6=6,7=111,11=2,25=1,30=1,71=1,74=-55,75=-7,116=2/1,2,3;
 4/5=5,16=3,69=1/1;
 5/5=2,38=5/2;
 7/30=1/1,2,3,16;
 1/18=20,19=15,26=5/3(-5);
 2/9=110,15=1/2;
 6/7=2,8=2,9=2,10=2,19=2,28=1/1;
 99/9=1/99;
 Leave Link    1 at Tue Nov 19 10:17:29 2024, MaxMem=   536870912 cpu:               0.7 elap:               0.1
 (Enter /home/szhao/Apps/g16/l101.exe)
 -------------------
 Title Card Required
 -------------------
 Symbolic Z-matrix:
 Charge =  0 Multiplicity = 1
 C                    -1   -0.41761   0.        0. 
 C                    -1    0.41761   0.        0. 
 H                    0    -0.77644  -0.92138   0. 
 H                    0    -0.77441   0.9257    0. 
 H                    0     0.77644   0.92138   0. 
 H                    0     0.77441  -0.9257    0. 
 
 ITRead=  2  2  0  0  0  0
 MicOpt= -2 -2 -1 -1 -1 -1
 NAtoms=      6 NQM=        4 NQMF=       2 NMMI=      0 NMMIF=      0
                NMic=       0 NMicF=      0.
                    Isotopes and Nuclear Properties:
 (Nuclear quadrupole moments (NQMom) in fm**2, nuclear magnetic moments (NMagM)
  in nuclear magnetons)

  Atom         1           2           3           4           5           6
 IAtWgt=          12          12           1           1           1           1
 AtmWgt=  12.0000000  12.0000000   1.0078250   1.0078250   1.0078250   1.0078250
 NucSpn=           0           0           1           1           1           1
 AtZEff=  -0.0000000  -0.0000000  -0.0000000  -0.0000000  -0.0000000  -0.0000000
 NQMom=    0.0000000   0.0000000   0.0000000   0.0000000   0.0000000   0.0000000
 NMagM=    0.0000000   0.0000000   2.7928460   2.7928460   2.7928460   2.7928460
 AtZNuc=   6.0000000   6.0000000   1.0000000   1.0000000   1.0000000   1.0000000
 Leave Link  101 at Tue Nov 19 10:17:29 2024, MaxMem=   536870912 cpu:               2.3 elap:               0.3
 (Enter /home/szhao/Apps/g16/l103.exe)

 GradGradGradGradGradGradGradGradGradGradGradGradGradGradGradGradGradGrad
 Berny optimization.
 Initialization pass.
                           ----------------------------
                           !    Initial Parameters    !
                           ! (Angstroms and Degrees)  !
 --------------------------                            --------------------------
 ! Name  Definition              Value          Derivative Info.                !
 --------------------------------------------------------------------------------
 ! X1    R(1,-1)                -0.4176         Frozen                          !
 ! Y1    R(1,-2)                 0.0            Frozen                          !
 ! Z1    R(1,-3)                 0.0            Frozen                          !
 ! X2    R(2,-1)                 0.4176         Frozen                          !
 ! Y2    R(2,-2)                 0.0            Frozen                          !
 ! Z2    R(2,-3)                 0.0            Frozen                          !
 ! R1    R(1,3)                  0.9888         estimate D2E/DX2                !
 ! R2    R(1,4)                  0.9921         estimate D2E/DX2                !
 ! R3    R(2,5)                  0.9888         estimate D2E/DX2                !
 ! R4    R(2,6)                  0.9921         estimate D2E/DX2                !
 ! A1    A(2,1,3)              111.2784         estimate D2E/DX2                !
 ! A2    A(2,1,4)              111.0783         estimate D2E/DX2                !
 ! A3    A(3,1,4)              137.6434         estimate D2E/DX2                !
 ! A4    A(1,2,5)              111.2784         estimate D2E/DX2                !
 ! A5    A(1,2,6)              111.0783         estimate D2E/DX2                !
 ! A6    A(5,2,6)              137.6434         estimate D2E/DX2                !
 ! D1    D(3,1,2,5)            180.0            estimate D2E/DX2                !
 ! D2    D(3,1,2,6)              0.0            estimate D2E/DX2                !
 ! D3    D(4,1,2,5)              0.0            estimate D2E/DX2                !
 ! D4    D(4,1,2,6)            180.0            estimate D2E/DX2                !
 --------------------------------------------------------------------------------
 Trust Radius=3.00D-01 FncErr=1.00D-07 GrdErr=1.00D-07 EigMax=2.50D+02 EigMin=1.00D-04
 Number of steps in this run=     30 maximum allowed number of steps=    100.
 GradGradGradGradGradGradGradGradGradGradGradGradGradGradGradGradGradGrad

 Leave Link  103 at Tue Nov 19 10:17:29 2024, MaxMem=   536870912 cpu:               0.1 elap:               0.0
 (Enter /home/szhao/Apps/g16/l202.exe)
                          Input orientation:                          
 ---------------------------------------------------------------------
 Center     Atomic      Atomic             Coordinates (Angstroms)
 Number     Number       Type             X           Y           Z
 ---------------------------------------------------------------------
      1          6           0       -0.417609    0.000000    0.000000
      2          6           0        0.417609    0.000000    0.000000
      3          1           0       -0.776440   -0.921382    0.000000
      4          1           0       -0.774405    0.925704    0.000000
      5          1           0        0.776440    0.921382    0.000000
      6          1           0        0.774405   -0.925704    0.000000
 ---------------------------------------------------------------------
                    Distance matrix (angstroms):
                    1          2          3          4          5
     1  C    0.000000
     2  C    0.835219   0.000000
     3  H    0.988789   1.508211   0.000000
     4  H    0.992084   1.509247   1.847087   0.000000
     5  H    1.508211   0.988789   2.409817   1.550852   0.000000
     6  H    1.509247   0.992084   1.550852   2.413820   1.847087
                    6
     6  H    0.000000
 Symmetry turned off by external request.
 Stoichiometry    C2H4
 Framework group  C2H[SGH(C2H4)]
 Deg. of freedom     5
 Full point group                 C2H     NOp   4
 Rotational constants (GHZ):         146.9791719          76.4626137          50.2968217
 Leave Link  202 at Tue Nov 19 10:17:29 2024, MaxMem=   536870912 cpu:               0.0 elap:               0.0
 (Enter /home/szhao/Apps/g16/l301.exe)
 Standard basis: 6-311+G(d,p) (5D, 7F)
 Ernie: Thresh=  0.10000D-02 Tol=  0.10000D-05 Strict=F.
    68 basis functions,   104 primitive gaussians,    70 cartesian basis functions
     8 alpha electrons        8 beta electrons
       nuclear repulsion energy        45.7438573484 Hartrees.
 IExCor= 4336 DFT=T Ex+Corr=M062X ExCW=0 ScaHFX=  0.540000
 ScaDFX=  1.000000  1.000000  1.000000  1.000000 ScalE2=  1.000000  1.000000
 IRadAn=      7 IRanWt=     -1 IRanGd=            0 ICorTp=0 IEmpDi=  4
 NAtoms=    6 NActive=    6 NUniq=    6 SFac= 1.00D+00 NAtFMM=   60 NAOKFM=F Big=F
 Integral buffers will be    131072 words long.
 Raffenetti 2 integral format.
 Two-electron integral symmetry is turned off.
 Leave Link  301 at Tue Nov 19 10:17:29 2024, MaxMem=   536870912 cpu:               0.3 elap:               0.0
 (Enter /home/szhao/Apps/g16/l302.exe)
 NPDir=0 NMtPBC=     1 NCelOv=     1 NCel=       1 NClECP=     1 NCelD=      1
         NCelK=      1 NCelE2=     1 NClLst=     1 CellRange=     0.0.
 One-electron integrals computed using PRISM.
 NBasis=    68 RedAO= T EigKep=  8.55D-06  NBF=    68
 NBsUse=    68 1.00D-06 EigRej= -1.00D+00 NBFU=    68
 Precomputing XC quadrature grid using
 IXCGrd= 4 IRadAn=           7 IRanWt=          -1 IRanGd=           0 AccXCQ= 0.00D+00.
 Generated NRdTot=       0 NPtTot=           0 NUsed=           0 NTot=          32
 NSgBfM=    70    70    70    70    70 MxSgAt=     6 MxSgA2=     6.
 Leave Link  302 at Tue Nov 19 10:17:30 2024, MaxMem=   536870912 cpu:               1.1 elap:               0.1
 (Enter /home/szhao/Apps/g16/l303.exe)
 DipDrv:  MaxL=1.
 Leave Link  303 at Tue Nov 19 10:17:30 2024, MaxMem=   536870912 cpu:               0.3 elap:               0.0
 (Enter /home/szhao/Apps/g16/l401.exe)
 ExpMin= 4.38D-02 ExpMax= 4.56D+03 ExpMxC= 6.82D+02 IAcc=3 IRadAn=         7 AccDes= 0.00D+00
 Harris functional with IExCor= 1009 and IRadAn=       7 diagonalized for initial guess.
 HarFok:  IExCor= 1009 AccDes= 0.00D+00 IRadAn=         7 IDoV= 1 UseB2=F ITyADJ=14
 ICtDFT=  3500011 ScaDFX=  1.000000  1.000000  1.000000  1.000000
 FoFCou: FMM=F IPFlag=           0 FMFlag=      100000 FMFlg1=           0
         NFxFlg=           0 DoJE=T BraDBF=F KetDBF=T FulRan=T
         wScrn=  0.000000 ICntrl=       500 IOpCl=  0 I1Cent=   200000004 NGrid=           0
         NMat0=    1 NMatS0=      1 NMatT0=    0 NMatD0=    1 NMtDS0=    0 NMtDT0=    0
 Symmetry not used in FoFCou.
 Harris En= -78.0514735572641    
 JPrj=0 DoOrth=F DoCkMO=F.
 Initial guess <Sx>= 0.0000 <Sy>= 0.0000 <Sz>= 0.0000 <S**2>=-0.0000 S=-0.0000
 Leave Link  401 at Tue Nov 19 10:17:30 2024, MaxMem=   536870912 cpu:               2.7 elap:               0.3
 (Enter /home/szhao/Apps/g16/l502.exe)
 Keep R1 and R2 ints in memory in canonical form, NReq=12681614.
 FoFCou: FMM=F IPFlag=           0 FMFlag=           0 FMFlg1=           0
         NFxFlg=           0 DoJE=F BraDBF=F KetDBF=F FulRan=T
         wScrn=  0.000000 ICntrl=       600 IOpCl=  0 I1Cent=           0 NGrid=           0
         NMat0=    1 NMatS0=   2346 NMatT0=    0 NMatD0=    1 NMtDS0=    0 NMtDT0=    0
 Symmetry not used in FoFCou.
 Two-electron integral symmetry not used.
 UHF open shell SCF:
 Using DIIS extrapolation, IDIIS=  1040.
 NGot=   536870912 LenX=   531353794 LenY=   531348453
 Requested convergence on RMS density matrix=1.00D-08 within 128 cycles.
 Requested convergence on MAX density matrix=1.00D-06.
 Requested convergence on             energy=1.00D-06.
 No special actions if energy rises.

 Cycle   1  Pass 1  IDiag  1:
 E= -77.1404414435582    
 DIIS: error= 1.35D-01 at cycle   1 NSaved=   1.
 NSaved= 1 IEnMin= 1 EnMin= -77.1404414435582     IErMin= 1 ErrMin= 1.35D-01
 ErrMax= 1.35D-01  0.00D+00 EMaxC= 1.00D-01 BMatC= 2.64D+00 BMatP= 2.64D+00
 IDIUse=3 WtCom= 0.00D+00 WtEn= 1.00D+00
 Coeff-Com:  0.100D+01
 Coeff-En:   0.100D+01
 Coeff:      0.100D+01
 Gap=     0.586 Goal=   None    Shift=    0.000
 Gap=     0.586 Goal=   None    Shift=    0.000
 GapD=    0.586 DampG=2.000 DampE=0.250 DampFc=0.5000 IDamp=-1.
 Damping current iteration by 5.00D-01
 RMSDP=1.63D-02 MaxDP=1.85D-01              OVMax= 4.12D-01

 Cycle   2  Pass 1  IDiag  1:
 E= -77.3789496038216     Delta-E=       -0.238508160263 Rises=F Damp=T
 DIIS: error= 1.35D-02 at cycle   2 NSaved=   2.
 NSaved= 2 IEnMin= 2 EnMin= -77.3789496038216     IErMin= 2 ErrMin= 1.35D-02
 ErrMax= 1.35D-02  0.00D+00 EMaxC= 1.00D-01 BMatC= 6.21D-02 BMatP= 2.64D+00
 IDIUse=3 WtCom= 8.65D-01 WtEn= 1.35D-01
 Coeff-Com: -0.649D-01 0.106D+01
 Coeff-En:   0.773D-02 0.992D+00
 Coeff:     -0.551D-01 0.106D+01
 Gap=     0.544 Goal=   None    Shift=    0.000
 Gap=     0.544 Goal=   None    Shift=    0.000
 RMSDP=5.16D-03 MaxDP=6.80D-02 DE=-2.39D-01 OVMax= 2.64D-01

 Cycle   3  Pass 1  IDiag  1:
 E= -77.6595414915637     Delta-E=       -0.280591887742 Rises=F Damp=F
 DIIS: error= 1.16D-02 at cycle   3 NSaved=   3.
 NSaved= 3 IEnMin= 3 EnMin= -77.6595414915637     IErMin= 3 ErrMin= 1.16D-02
 ErrMax= 1.16D-02  0.00D+00 EMaxC= 1.00D-01 BMatC= 1.54D-02 BMatP= 6.21D-02
 IDIUse=3 WtCom= 8.84D-01 WtEn= 1.16D-01
 Coeff-Com: -0.781D-01 0.124D+00 0.954D+00
 Coeff-En:   0.000D+00 0.000D+00 0.100D+01
 Coeff:     -0.690D-01 0.110D+00 0.959D+00
 Gap=     0.363 Goal=   None    Shift=    0.000
 Gap=     0.363 Goal=   None    Shift=    0.000
 RMSDP=1.59D-03 MaxDP=3.37D-02 DE=-2.81D-01 OVMax= 1.82D-02

 Cycle   4  Pass 1  IDiag  1:
 E= -77.6630960570187     Delta-E=       -0.003554565455 Rises=F Damp=F
 DIIS: error= 6.45D-04 at cycle   4 NSaved=   4.
 NSaved= 4 IEnMin= 4 EnMin= -77.6630960570187     IErMin= 4 ErrMin= 6.45D-04
 ErrMax= 6.45D-04  0.00D+00 EMaxC= 1.00D-01 BMatC= 5.90D-05 BMatP= 1.54D-02
 IDIUse=3 WtCom= 9.94D-01 WtEn= 6.45D-03
 Coeff-Com:  0.110D-01-0.193D-01-0.928D-01 0.110D+01
 Coeff-En:   0.000D+00 0.000D+00 0.000D+00 0.100D+01
 Coeff:      0.110D-01-0.191D-01-0.922D-01 0.110D+01
 Gap=     0.363 Goal=   None    Shift=    0.000
 Gap=     0.363 Goal=   None    Shift=    0.000
 RMSDP=4.88D-04 MaxDP=1.28D-02 DE=-3.55D-03 OVMax= 3.27D-03

 Cycle   5  Pass 1  IDiag  1:
 E= -77.6631214484854     Delta-E=       -0.000025391467 Rises=F Damp=F
 DIIS: error= 6.72D-05 at cycle   5 NSaved=   5.
 NSaved= 5 IEnMin= 5 EnMin= -77.6631214484854     IErMin= 5 ErrMin= 6.72D-05
 ErrMax= 6.72D-05  0.00D+00 EMaxC= 1.00D-01 BMatC= 4.99D-07 BMatP= 5.90D-05
 IDIUse=1 WtCom= 1.00D+00 WtEn= 0.00D+00
 Coeff-Com: -0.264D-03-0.982D-03 0.398D-02-0.258D-01 0.102D+01
 Coeff:     -0.264D-03-0.982D-03 0.398D-02-0.258D-01 0.102D+01
 Gap=     0.363 Goal=   None    Shift=    0.000
 Gap=     0.363 Goal=   None    Shift=    0.000
 RMSDP=4.28D-05 MaxDP=8.39D-04 DE=-2.54D-05 OVMax= 2.93D-04

 Cycle   6  Pass 1  IDiag  1:
 E= -77.6631216763889     Delta-E=       -0.000000227903 Rises=F Damp=F
 DIIS: error= 1.21D-05 at cycle   6 NSaved=   6.
 NSaved= 6 IEnMin= 6 EnMin= -77.6631216763889     IErMin= 6 ErrMin= 1.21D-05
 ErrMax= 1.21D-05  0.00D+00 EMaxC= 1.00D-01 BMatC= 1.21D-08 BMatP= 4.99D-07
 IDIUse=1 WtCom= 1.00D+00 WtEn= 0.00D+00
 Coeff-Com: -0.105D-03 0.274D-03 0.101D-02-0.116D-01-0.883D-01 0.110D+01
 Coeff:     -0.105D-03 0.274D-03 0.101D-02-0.116D-01-0.883D-01 0.110D+01
 Gap=     0.363 Goal=   None    Shift=    0.000
 Gap=     0.363 Goal=   None    Shift=    0.000
 RMSDP=7.13D-06 MaxDP=1.36D-04 DE=-2.28D-07 OVMax= 6.37D-05

 Cycle   7  Pass 1  IDiag  1:
 E= -77.6631216840132     Delta-E=       -0.000000007624 Rises=F Damp=F
 DIIS: error= 2.97D-06 at cycle   7 NSaved=   7.
 NSaved= 7 IEnMin= 7 EnMin= -77.6631216840132     IErMin= 7 ErrMin= 2.97D-06
 ErrMax= 2.97D-06  0.00D+00 EMaxC= 1.00D-01 BMatC= 6.84D-10 BMatP= 1.21D-08
 IDIUse=1 WtCom= 1.00D+00 WtEn= 0.00D+00
 Coeff-Com: -0.281D-05 0.519D-04-0.149D-03 0.198D-03-0.253D-01 0.605D-01
 Coeff-Com:  0.965D+00
 Coeff:     -0.281D-05 0.519D-04-0.149D-03 0.198D-03-0.253D-01 0.605D-01
 Coeff:      0.965D+00
 Gap=     0.363 Goal=   None    Shift=    0.000
 Gap=     0.363 Goal=   None    Shift=    0.000
 RMSDP=1.20D-06 MaxDP=2.17D-05 DE=-7.62D-09 OVMax= 6.53D-06

 Cycle   8  Pass 1  IDiag  1:
 E= -77.6631216842133     Delta-E=       -0.000000000200 Rises=F Damp=F
 DIIS: error= 3.43D-07 at cycle   8 NSaved=   8.
 NSaved= 8 IEnMin= 8 EnMin= -77.6631216842133     IErMin= 8 ErrMin= 3.43D-07
 ErrMax= 3.43D-07  0.00D+00 EMaxC= 1.00D-01 BMatC= 9.16D-12 BMatP= 6.84D-10
 IDIUse=1 WtCom= 1.00D+00 WtEn= 0.00D+00
 Coeff-Com:  0.281D-05-0.631D-05-0.423D-04 0.200D-03 0.226D-02-0.186D-01
 Coeff-Com: -0.520D-01 0.107D+01
 Coeff:      0.281D-05-0.631D-05-0.423D-04 0.200D-03 0.226D-02-0.186D-01
 Coeff:     -0.520D-01 0.107D+01
 Gap=     0.363 Goal=   None    Shift=    0.000
 Gap=     0.363 Goal=   None    Shift=    0.000
 RMSDP=2.52D-07 MaxDP=6.48D-06 DE=-2.00D-10 OVMax= 9.34D-07

 Cycle   9  Pass 1  IDiag  1:
 E= -77.6631216842165     Delta-E=       -0.000000000003 Rises=F Damp=F
 DIIS: error= 6.27D-08 at cycle   9 NSaved=   9.
 NSaved= 9 IEnMin= 9 EnMin= -77.6631216842165     IErMin= 9 ErrMin= 6.27D-08
 ErrMax= 6.27D-08  0.00D+00 EMaxC= 1.00D-01 BMatC= 3.37D-13 BMatP= 9.16D-12
 IDIUse=1 WtCom= 1.00D+00 WtEn= 0.00D+00
 Coeff-Com: -0.196D-06 0.100D-06 0.991D-05-0.172D-04-0.191D-03 0.214D-02
 Coeff-Com: -0.434D-02-0.100D+00 0.110D+01
 Coeff:     -0.196D-06 0.100D-06 0.991D-05-0.172D-04-0.191D-03 0.214D-02
 Coeff:     -0.434D-02-0.100D+00 0.110D+01
 Gap=     0.363 Goal=   None    Shift=    0.000
 Gap=     0.363 Goal=   None    Shift=    0.000
 RMSDP=2.07D-08 MaxDP=5.32D-07 DE=-3.27D-12 OVMax= 1.17D-07

 Cycle  10  Pass 1  IDiag  1:
 E= -77.6631216842166     Delta-E=       -0.000000000000 Rises=F Damp=F
 DIIS: error= 3.07D-09 at cycle  10 NSaved=  10.
 NSaved=10 IEnMin=10 EnMin= -77.6631216842166     IErMin=10 ErrMin= 3.07D-09
 ErrMax= 3.07D-09  0.00D+00 EMaxC= 1.00D-01 BMatC= 1.04D-15 BMatP= 3.37D-13
 IDIUse=1 WtCom= 1.00D+00 WtEn= 0.00D+00
 Coeff-Com: -0.230D-07 0.688D-07-0.515D-06-0.136D-05 0.980D-06 0.113D-04
 Coeff-Com:  0.283D-03-0.677D-03-0.105D+00 0.110D+01
 Coeff:     -0.230D-07 0.688D-07-0.515D-06-0.136D-05 0.980D-06 0.113D-04
 Coeff:      0.283D-03-0.677D-03-0.105D+00 0.110D+01
 Gap=     0.363 Goal=   None    Shift=    0.000
 Gap=     0.363 Goal=   None    Shift=    0.000
 RMSDP=1.15D-09 MaxDP=2.00D-08 DE=-5.68D-14 OVMax= 1.06D-08

 SCF Done:  E(UM062X) =  -77.6631216842     A.U. after   10 cycles
            NFock= 10  Conv=0.11D-08     -V/T= 1.9418
 <Sx>= 0.0000 <Sy>= 0.0000 <Sz>= 0.0000 <S**2>=-0.0000 S=-0.0000
 <L.S>=  0.00000000000    
 KE= 8.246237516075D+01 PE=-2.750669091919D+02 EE= 6.919755499848D+01
 Annihilation of the first spin contaminant:
 S**2 before annihilation    -0.0000,   after    -0.0000
 Leave Link  502 at Tue Nov 19 10:17:36 2024, MaxMem=   536870912 cpu:              50.5 elap:               6.4
 (Enter /home/szhao/Apps/g16/l601.exe)
 Copying SCF densities to generalized density rwf, IOpCl= 1 IROHF=0.

 **********************************************************************

            Population analysis using the SCF density.

 **********************************************************************

 Alpha  occ. eigenvalues --  -10.48793 -10.43162  -1.00200  -0.73369  -0.58409
 Alpha  occ. eigenvalues --   -0.48991  -0.47784  -0.33117
 Alpha virt. eigenvalues --    0.03171   0.03931   0.05286   0.06130   0.08602
 Alpha virt. eigenvalues --    0.09114   0.09710   0.15407   0.16524   0.21091
 Alpha virt. eigenvalues --    0.24265   0.29097   0.35639   0.39998   0.42090
 Alpha virt. eigenvalues --    0.49214   0.49664   0.62432   0.64555   0.66054
 Alpha virt. eigenvalues --    0.74309   0.77120   0.78943   0.79951   0.92897
 Alpha virt. eigenvalues --    1.04592   1.20288   1.31457   1.37723   1.48152
 Alpha virt. eigenvalues --    1.48381   1.70483   1.76705   1.77638   1.79164
 Alpha virt. eigenvalues --    1.81429   1.87104   1.94545   2.03850   2.21936
 Alpha virt. eigenvalues --    2.37870   2.44231   2.50811   2.51482   2.55035
 Alpha virt. eigenvalues --    2.64594   2.79905   2.83792   2.97713   3.01053
 Alpha virt. eigenvalues --    3.03535   3.07210   3.40592   3.67537   3.82796
 Alpha virt. eigenvalues --    4.12213   4.14913   4.89400  24.65642  25.43447
  Beta  occ. eigenvalues --  -10.48793 -10.43162  -1.00200  -0.73369  -0.58409
  Beta  occ. eigenvalues --   -0.48991  -0.47784  -0.33117
  Beta virt. eigenvalues --    0.03171   0.03931   0.05286   0.06130   0.08602
  Beta virt. eigenvalues --    0.09114   0.09710   0.15407   0.16524   0.21091
  Beta virt. eigenvalues --    0.24265   0.29097   0.35639   0.39998   0.42090
  Beta virt. eigenvalues --    0.49214   0.49664   0.62432   0.64555   0.66054
  Beta virt. eigenvalues --    0.74309   0.77120   0.78943   0.79951   0.92897
  Beta virt. eigenvalues --    1.04592   1.20288   1.31457   1.37723   1.48152
  Beta virt. eigenvalues --    1.48381   1.70483   1.76705   1.77638   1.79164
  Beta virt. eigenvalues --    1.81429   1.87104   1.94545   2.03850   2.21936
  Beta virt. eigenvalues --    2.37870   2.44231   2.50811   2.51482   2.55035
  Beta virt. eigenvalues --    2.64594   2.79905   2.83792   2.97713   3.01053
  Beta virt. eigenvalues --    3.03535   3.07210   3.40592   3.67537   3.82796
  Beta virt. eigenvalues --    4.12213   4.14913   4.89400  24.65642  25.43447
          Condensed to atoms (all electrons):
               1          2          3          4          5          6
     1  C    4.971156   0.438217   0.435553   0.434028  -0.057639  -0.057118
     2  C    0.438217   4.971156  -0.057639  -0.057118   0.435553   0.434028
     3  H    0.435553  -0.057639   0.652070  -0.049201   0.035659  -0.098645
     4  H    0.434028  -0.057118  -0.049201   0.653032  -0.098645   0.035910
     5  H   -0.057639   0.435553   0.035659  -0.098645   0.652070  -0.049201
     6  H   -0.057118   0.434028  -0.098645   0.035910  -0.049201   0.653032
          Atomic-Atomic Spin Densities.
               1          2          3          4          5          6
     1  C   -0.000000   0.000000   0.000000  -0.000000   0.000000  -0.000000
     2  C    0.000000  -0.000000  -0.000000   0.000000  -0.000000   0.000000
     3  H    0.000000  -0.000000  -0.000000  -0.000000   0.000000   0.000000
     4  H   -0.000000   0.000000  -0.000000   0.000000  -0.000000   0.000000
     5  H    0.000000  -0.000000   0.000000  -0.000000   0.000000  -0.000000
     6  H   -0.000000   0.000000   0.000000   0.000000  -0.000000  -0.000000
 Mulliken charges and spin densities:
               1          2
     1  C   -0.164197   0.000000
     2  C   -0.164197  -0.000000
     3  H    0.082203  -0.000000
     4  H    0.081994  -0.000000
     5  H    0.082203  -0.000000
     6  H    0.081994   0.000000
 Sum of Mulliken charges =  -0.00000   0.00000
 Mulliken charges and spin densities with hydrogens summed into heavy atoms:
               1          2
     1  C    0.000000   0.000000
     2  C   -0.000000  -0.000000
 Electronic spatial extent (au):  <R**2>=             56.7859
 Charge=             -0.0000 electrons
 Dipole moment (field-independent basis, Debye):
    X=              0.0000    Y=              0.0000    Z=             -0.0000  Tot=              0.0000
 Quadrupole moment (field-independent basis, Debye-Ang):
   XX=            -14.5127   YY=            -10.8872   ZZ=            -12.9875
   XY=              0.0180   XZ=              0.0000   YZ=             -0.0000
 Traceless Quadrupole moment (field-independent basis, Debye-Ang):
   XX=             -1.7169   YY=              1.9086   ZZ=             -0.1917
   XY=              0.0180   XZ=              0.0000   YZ=             -0.0000
 Octapole moment (field-independent basis, Debye-Ang**2):
  XXX=              0.0000  YYY=             -0.0000  ZZZ=             -0.0000  XYY=              0.0000
  XXY=              0.0000  XXZ=             -0.0000  XZZ=             -0.0000  YZZ=             -0.0000
  YYZ=             -0.0000  XYZ=              0.0000
 Hexadecapole moment (field-independent basis, Debye-Ang**3):
 XXXX=            -41.2292 YYYY=            -24.2217 ZZZZ=            -12.3458 XXXY=              0.0589
 XXXZ=              0.0000 YYYX=              0.0551 YYYZ=             -0.0000 ZZZX=              0.0000
 ZZZY=             -0.0000 XXYY=            -11.7636 XXZZ=             -8.5925 YYZZ=             -6.7851
 XXYZ=             -0.0000 YYXZ=              0.0000 ZZXY=              0.0161
 N-N= 4.574385734843D+01 E-N=-2.750669091158D+02  KE= 8.246237516075D+01
                          Isotropic Fermi Contact Couplings
        Atom                 a.u.       MegaHertz       Gauss      10(-4) cm-1
     1  C(13)              0.00000       0.00000       0.00000       0.00000
     2  C(13)              0.00000       0.00000       0.00000       0.00000
     3  H(1)              -0.00000      -0.00000      -0.00000      -0.00000
     4  H(1)               0.00000       0.00000       0.00000       0.00000
     5  H(1)               0.00000       0.00000       0.00000       0.00000
     6  H(1)               0.00000       0.00000       0.00000       0.00000
 --------------------------------------------------------
       Center         ----  Spin Dipole Couplings  ----
                      3XX-RR        3YY-RR        3ZZ-RR
 --------------------------------------------------------
     1   Atom        0.000000     -0.000000      0.000000
     2   Atom       -0.000000      0.000000      0.000000
     3   Atom        0.000000     -0.000000      0.000000
     4   Atom       -0.000000     -0.000000      0.000000
     5   Atom        0.000000     -0.000000      0.000000
     6   Atom        0.000000     -0.000000      0.000000
 --------------------------------------------------------
                        XY            XZ            YZ
 --------------------------------------------------------
     1   Atom       -0.000000      0.000000     -0.000000
     2   Atom        0.000000      0.000000      0.000000
     3   Atom       -0.000000     -0.000000     -0.000000
     4   Atom        0.000000     -0.000000      0.000000
     5   Atom       -0.000000      0.000000      0.000000
     6   Atom        0.000000      0.000000     -0.000000
 --------------------------------------------------------


 ---------------------------------------------------------------------------------
              Anisotropic Spin Dipole Couplings in Principal Axis System
 ---------------------------------------------------------------------------------

       Atom             a.u.   MegaHertz   Gauss  10(-4) cm-1        Axes

              Baa    -0.0000    -0.000    -0.000    -0.000  0.6102  0.7923 -0.0034
     1 C(13)  Bbb     0.0000     0.000     0.000     0.000 -0.0679  0.0565  0.9961
              Bcc     0.0000     0.000     0.000     0.000  0.7894 -0.6075  0.0883
 
              Baa    -0.0000    -0.000    -0.000    -0.000  0.9358 -0.3526  0.0039
     2 C(13)  Bbb     0.0000     0.000     0.000     0.000  0.3520  0.9335 -0.0680
              Bcc     0.0000     0.000     0.000     0.000  0.0204  0.0650  0.9977
 
              Baa    -0.0000    -0.000    -0.000    -0.000  0.3412  0.9400  0.0038
     3 H(1)   Bbb     0.0000     0.000     0.000     0.000  0.0075 -0.0067  0.9999
              Bcc     0.0000     0.000     0.000     0.000  0.9399 -0.3412 -0.0093
 
              Baa    -0.0000    -0.000    -0.000    -0.000 -0.6592  0.7519 -0.0052
     4 H(1)   Bbb     0.0000     0.000     0.000     0.000  0.7484  0.6554 -0.1020
              Bcc     0.0000     0.000     0.000     0.000  0.0733  0.0711  0.9948
 
              Baa    -0.0000    -0.000    -0.000    -0.000  0.3663  0.9304 -0.0119
     5 H(1)   Bbb     0.0000     0.000     0.000     0.000  0.9300 -0.3665 -0.0265
              Bcc     0.0000     0.000     0.000     0.000  0.0290  0.0013  0.9996
 
              Baa    -0.0000    -0.000    -0.000    -0.000 -0.1814  0.9831  0.0243
     6 H(1)   Bbb     0.0000     0.000     0.000     0.000 -0.0198 -0.0284  0.9994
              Bcc     0.0000     0.000     0.000     0.000  0.9832  0.1809  0.0246
 

 ---------------------------------------------------------------------------------

 No NMR shielding tensors so no spin-rotation constants.
 Leave Link  601 at Tue Nov 19 10:17:37 2024, MaxMem=   536870912 cpu:               1.3 elap:               0.2
 (Enter /home/szhao/Apps/g16/l701.exe)
 ... and contract with generalized density number  0.
 Compute integral first derivatives.
 Leave Link  701 at Tue Nov 19 10:17:37 2024, MaxMem=   536870912 cpu:               0.7 elap:               0.1
 (Enter /home/szhao/Apps/g16/l702.exe)
 L702 exits ... SP integral derivatives will be done elsewhere.
 Leave Link  702 at Tue Nov 19 10:17:37 2024, MaxMem=   536870912 cpu:               0.3 elap:               0.0
 (Enter /home/szhao/Apps/g16/l703.exe)
 Integral derivatives from FoFJK, PRISM(SPDF).
 Compute integral first derivatives, UseDBF=F ICtDFT=           0.
 Calling FoFJK, ICntrl=      2127 FMM=F ISym2X=0 I1Cent= 0 IOpClX= 1 NMat=1 NMatS=1 NMatT=0.
 FoFJK:  IHMeth= 1 ICntrl=    2127 DoSepK=F KAlg= 0 I1Cent=           0 FoldK=F
 IRaf=         0 NMat=       1 IRICut=       1 DoRegI=T DoRafI=F ISym2E= 0 IDoP0=0 IntGTp=1.
 FoFCou: FMM=F IPFlag=           0 FMFlag=      100000 FMFlg1=         800
         NFxFlg=           0 DoJE=F BraDBF=F KetDBF=F FulRan=T
         wScrn=  0.000000 ICntrl=      2127 IOpCl=  1 I1Cent=           0 NGrid=           0
         NMat0=    1 NMatS0=      1 NMatT0=    0 NMatD0=    1 NMtDS0=    0 NMtDT0=    0
 Symmetry not used in FoFCou.
 Leave Link  703 at Tue Nov 19 10:17:38 2024, MaxMem=   536870912 cpu:               9.2 elap:               1.2
 (Enter /home/szhao/Apps/g16/l716.exe)
 Dipole        = 3.25739435D-13 5.70654635D-14-8.83748811D-16
 -------------------------------------------------------------------
 Center     Atomic                   Forces (Hartrees/Bohr)
 Number     Number              X              Y              Z
 -------------------------------------------------------------------
      1        6          -0.000000000   -0.000000000   -0.000000000
      2        6          -0.000000000   -0.000000000   -0.000000000
      3        1          -0.109644763   -0.059971863   -0.000000000
      4        1          -0.108285699    0.057275639    0.000000000
      5        1           0.109644763    0.059971863   -0.000000000
      6        1           0.108285699   -0.057275639   -0.000000000
 -------------------------------------------------------------------
 Cartesian Forces:  Max     0.109644763 RMS     0.058333228
 Leave Link  716 at Tue Nov 19 10:17:38 2024, MaxMem=   536870912 cpu:               0.2 elap:               0.0
 (Enter /home/szhao/Apps/g16/l103.exe)

 GradGradGradGradGradGradGradGradGradGradGradGradGradGradGradGradGradGrad
 Berny optimization.
 FormGI is forming the generalized inverse of G from B-inverse, IUseBI=4.
 Internal  Forces:  Max     0.217930462 RMS     0.089610118
 Search for a local minimum.
 Step number   1 out of a maximum of   30
 All quantities printed in internal units (Hartrees-Bohrs-Radians)
 RMS Force = .68446D-01 SwitMx=.10000D-02 MixMth= 1
 Mixed Optimization -- RFO/linear search
 Second derivative matrix not updated -- first step.
 The second derivative matrix:
                          X1        Y1        Z1        X2        Y2
           X1           0.50000
           Y1           0.00000   0.50000
           Z1           0.00000   0.00000   0.50000
           X2           0.00000   0.00000   0.00000   0.50000
           Y2           0.00000   0.00000   0.00000   0.00000   0.50000
           Z2           0.00000   0.00000   0.00000   0.00000   0.00000
           R1           0.00000   0.00000   0.00000   0.00000   0.00000
           R2           0.00000   0.00000   0.00000   0.00000   0.00000
           R3           0.00000   0.00000   0.00000   0.00000   0.00000
           R4           0.00000   0.00000   0.00000   0.00000   0.00000
           A1           0.00000   0.00000   0.00000   0.00000   0.00000
           A2           0.00000   0.00000   0.00000   0.00000   0.00000
           A3           0.00000   0.00000   0.00000   0.00000   0.00000
           A4           0.00000   0.00000   0.00000   0.00000   0.00000
           A5           0.00000   0.00000   0.00000   0.00000   0.00000
           A6           0.00000   0.00000   0.00000   0.00000   0.00000
           D1           0.00000   0.00000   0.00000   0.00000   0.00000
           D2           0.00000   0.00000   0.00000   0.00000   0.00000
           D3           0.00000   0.00000   0.00000   0.00000   0.00000
           D4           0.00000   0.00000   0.00000   0.00000   0.00000
                          Z2        R1        R2        R3        R4
           Z2           0.50000
           R1           0.00000   0.49715
           R2           0.00000   0.00000   0.49108
           R3           0.00000   0.00000   0.00000   0.49715
           R4           0.00000   0.00000   0.00000   0.00000   0.49108
           A1           0.00000   0.00000   0.00000   0.00000   0.00000
           A2           0.00000   0.00000   0.00000   0.00000   0.00000
           A3           0.00000   0.00000   0.00000   0.00000   0.00000
           A4           0.00000   0.00000   0.00000   0.00000   0.00000
           A5           0.00000   0.00000   0.00000   0.00000   0.00000
           A6           0.00000   0.00000   0.00000   0.00000   0.00000
           D1           0.00000   0.00000   0.00000   0.00000   0.00000
           D2           0.00000   0.00000   0.00000   0.00000   0.00000
           D3           0.00000   0.00000   0.00000   0.00000   0.00000
           D4           0.00000   0.00000   0.00000   0.00000   0.00000
                          A1        A2        A3        A4        A5
           A1           0.16000
           A2           0.00000   0.16000
           A3           0.00000   0.00000   0.16000
           A4           0.00000   0.00000   0.00000   0.16000
           A5           0.00000   0.00000   0.00000   0.00000   0.16000
           A6           0.00000   0.00000   0.00000   0.00000   0.00000
           D1           0.00000   0.00000   0.00000   0.00000   0.00000
           D2           0.00000   0.00000   0.00000   0.00000   0.00000
           D3           0.00000   0.00000   0.00000   0.00000   0.00000
           D4           0.00000   0.00000   0.00000   0.00000   0.00000
                          A6        D1        D2        D3        D4
           A6           0.16000
           D1           0.00000   0.09560
           D2           0.00000   0.00000   0.09560
           D3           0.00000   0.00000   0.00000   0.09560
           D4           0.00000   0.00000   0.00000   0.00000   0.09560
 ITU=  0
     Eigenvalues ---    0.09560   0.09560   0.09560   0.16000   0.16000
     Eigenvalues ---    0.16000   0.16000   0.49108   0.49108   0.49715
     Eigenvalues ---    0.497151000.000001000.000001000.000001000.00000
     Eigenvalues --- 1000.000001000.000001000.000001000.000001000.00000
 RFO step:  Lambda=-1.51697067D-01 EMin= 9.55972939D-02
 Linear search not attempted -- first point.
 Maximum step size (   0.300) exceeded in Quadratic search.
    -- Step size scaled by   0.477
 Iteration  1 RMS(Cart)=  0.07136658 RMS(Int)=  0.00325871
 Iteration  2 RMS(Cart)=  0.00345197 RMS(Int)=  0.00000692
 Iteration  3 RMS(Cart)=  0.00000737 RMS(Int)=  0.00000000
 Iteration  4 RMS(Cart)=  0.00000000 RMS(Int)=  0.00000000
 ITry= 1 IFail=0 DXMaxC= 1.62D-01 DCOld= 1.00D+10 DXMaxT= 3.00D-01 DXLimC= 3.00D+00 Rises=F
 Variable       Old X    -DE/DX   Delta X   Delta X   Delta X     New X
                                 (Linear)    (Quad)   (Total)
    X1       -0.78917  -0.21793   0.00000   0.00000   0.00000  -0.78917
    Y1        0.00000  -0.00341   0.00000   0.00000   0.00000   0.00000
    Z1        0.00000   0.00000   0.00000   0.00000   0.00000   0.00000
    X2        0.78917   0.21793   0.00000   0.00000   0.00000   0.78917
    Y2        0.00000   0.00341   0.00000   0.00000   0.00000   0.00000
    Z2        0.00000  -0.00000   0.00000   0.00000   0.00000   0.00000
    R1        1.86854   0.09567   0.00000   0.07032   0.07032   1.93886
    R2        1.87477   0.09239   0.00000   0.06854   0.06854   1.94331
    R3        1.86854   0.09567   0.00000   0.07032   0.07032   1.93886
    R4        1.87477   0.09239   0.00000   0.06854   0.06854   1.94331
    A1        1.94217   0.04989   0.00000   0.07633   0.07633   2.01851
    A2        1.93868   0.05046   0.00000   0.07720   0.07720   2.01588
    A3        2.40233  -0.10035   0.00000  -0.15353  -0.15353   2.24880
    A4        1.94217   0.04989   0.00000   0.07633   0.07633   2.01851
    A5        1.93868   0.05046   0.00000   0.07720   0.07720   2.01588
    A6        2.40233  -0.10035   0.00000  -0.15353  -0.15353   2.24880
    D1        3.14159  -0.00000   0.00000  -0.00000   0.00000   3.14159
    D2        0.00000   0.00000   0.00000   0.00000   0.00000   0.00000
    D3        0.00000  -0.00000   0.00000  -0.00000  -0.00000   0.00000
    D4        3.14159  -0.00000   0.00000  -0.00000   0.00000   3.14159
         Item               Value     Threshold  Converged?
 Maximum Force            0.100351     0.000450     NO 
 RMS     Force            0.068446     0.000300     NO 
 Maximum Displacement     0.162413     0.001800     NO 
 RMS     Displacement     0.072417     0.001200     NO 
 Predicted change in Energy=-6.191831D-02
 Lowest energy point so far.  Saving SCF results.
 GradGradGradGradGradGradGradGradGradGradGradGradGradGradGradGradGradGrad

 Leave Link  103 at Tue Nov 19 10:17:38 2024, MaxMem=   536870912 cpu:               0.0 elap:               0.0
 (Enter /home/szhao/Apps/g16/l202.exe)
                          Input orientation:                          
 ---------------------------------------------------------------------
 Center     Atomic      Atomic             Coordinates (Angstroms)
 Number     Number       Type             X           Y           Z
 ---------------------------------------------------------------------
      1          6           0       -0.417609    0.000000    0.000000
      2          6           0        0.417609    0.000000    0.000000
      3          1           0       -0.861766   -0.924878    0.000000
      4          1           0       -0.860351    0.928168    0.000000
      5          1           0        0.861766    0.924878   -0.000000
      6          1           0        0.860351   -0.928168   -0.000000
 ---------------------------------------------------------------------
                    Distance matrix (angstroms):
                    1          2          3          4          5
     1  C    0.000000
     2  C    0.835219   0.000000
     3  H    1.025999   1.578670   0.000000
     4  H    1.028356   1.579455   1.853046   0.000000
     5  H    1.578670   1.025999   2.528272   1.722120   0.000000
     6  H    1.579455   1.028356   1.722120   2.531165   1.853046
                    6
     6  H    0.000000
 Symmetry turned off by external request.
 Stoichiometry    C2H4
 Framework group  C2H[SGH(C2H4)]
 Deg. of freedom     5
 Full point group                 C2H     NOp   4
 Rotational constants (GHZ):         146.0355934          70.4416131          47.5199350
 Leave Link  202 at Tue Nov 19 10:17:38 2024, MaxMem=   536870912 cpu:               0.0 elap:               0.0
 (Enter /home/szhao/Apps/g16/l301.exe)
 Standard basis: 6-311+G(d,p) (5D, 7F)
 Ernie: Thresh=  0.10000D-02 Tol=  0.10000D-05 Strict=F.
    68 basis functions,   104 primitive gaussians,    70 cartesian basis functions
     8 alpha electrons        8 beta electrons
       nuclear repulsion energy        44.8200771760 Hartrees.
 IExCor= 4336 DFT=T Ex+Corr=M062X ExCW=0 ScaHFX=  0.540000
 ScaDFX=  1.000000  1.000000  1.000000  1.000000 ScalE2=  1.000000  1.000000
 IRadAn=      7 IRanWt=     -1 IRanGd=            0 ICorTp=0 IEmpDi=  4
 NAtoms=    6 NActive=    6 NUniq=    6 SFac= 1.00D+00 NAtFMM=   60 NAOKFM=F Big=F
 Integral buffers will be    131072 words long.
 Raffenetti 2 integral format.
 Two-electron integral symmetry is turned off.
 Leave Link  301 at Tue Nov 19 10:17:38 2024, MaxMem=   536870912 cpu:               0.4 elap:               0.1
 (Enter /home/szhao/Apps/g16/l302.exe)
 NPDir=0 NMtPBC=     1 NCelOv=     1 NCel=       1 NClECP=     1 NCelD=      1
         NCelK=      1 NCelE2=     1 NClLst=     1 CellRange=     0.0.
 One-electron integrals computed using PRISM.
 NBasis=    68 RedAO= T EigKep=  8.80D-06  NBF=    68
 NBsUse=    68 1.00D-06 EigRej= -1.00D+00 NBFU=    68
 Precomputing XC quadrature grid using
 IXCGrd= 4 IRadAn=           7 IRanWt=          -1 IRanGd=           0 AccXCQ= 0.00D+00.
 Generated NRdTot=       0 NPtTot=           0 NUsed=           0 NTot=          32
 NSgBfM=    70    70    70    70    70 MxSgAt=     6 MxSgA2=     6.
 Leave Link  302 at Tue Nov 19 10:17:38 2024, MaxMem=   536870912 cpu:               1.1 elap:               0.1
 (Enter /home/szhao/Apps/g16/l303.exe)
 DipDrv:  MaxL=1.
 Leave Link  303 at Tue Nov 19 10:17:38 2024, MaxMem=   536870912 cpu:               0.3 elap:               0.0
 (Enter /home/szhao/Apps/g16/l401.exe)
 Initial guess from the checkpoint file:  "opt.chk"
 B after Tr=    -0.000000    0.000000    0.000000
         Rot=    1.000000   -0.000000   -0.000000   -0.000214 Ang=  -0.02 deg.
 Guess basis will be translated and rotated to current coordinates.
 JPrj=2 DoOrth=T DoCkMO=T.
 Initial guess <Sx>= 0.0000 <Sy>= 0.0000 <Sz>= 0.0000 <S**2>=-0.0000 S=-0.0000
 Generating alternative initial guess.
 ExpMin= 4.38D-02 ExpMax= 4.56D+03 ExpMxC= 6.82D+02 IAcc=3 IRadAn=         5 AccDes= 0.00D+00
 Harris functional with IExCor= 1009 and IRadAn=       5 diagonalized for initial guess.
 HarFok:  IExCor= 1009 AccDes= 0.00D+00 IRadAn=         5 IDoV= 1 UseB2=F ITyADJ=14
 ICtDFT=  3500011 ScaDFX=  1.000000  1.000000  1.000000  1.000000
 FoFCou: FMM=F IPFlag=           0 FMFlag=      100000 FMFlg1=           0
         NFxFlg=           0 DoJE=T BraDBF=F KetDBF=T FulRan=T
         wScrn=  0.000000 ICntrl=       500 IOpCl=  0 I1Cent=   200000004 NGrid=           0
         NMat0=    1 NMatS0=      1 NMatT0=    0 NMatD0=    1 NMtDS0=    0 NMtDT0=    0
 Symmetry not used in FoFCou.
 Harris En= -78.0869765217095    
 Leave Link  401 at Tue Nov 19 10:17:39 2024, MaxMem=   536870912 cpu:               1.9 elap:               0.2
 (Enter /home/szhao/Apps/g16/l502.exe)
 Keep R1 and R2 ints in memory in canonical form, NReq=12681614.
 FoFCou: FMM=F IPFlag=           0 FMFlag=           0 FMFlg1=           0
         NFxFlg=           0 DoJE=F BraDBF=F KetDBF=F FulRan=T
         wScrn=  0.000000 ICntrl=       600 IOpCl=  0 I1Cent=           0 NGrid=           0
         NMat0=    1 NMatS0=   2346 NMatT0=    0 NMatD0=    1 NMtDS0=    0 NMtDT0=    0
 Symmetry not used in FoFCou.
 Two-electron integral symmetry not used.
 UHF open shell SCF:
 Using DIIS extrapolation, IDIIS=  1040.
 NGot=   536870912 LenX=   531353794 LenY=   531348453
 Requested convergence on RMS density matrix=1.00D-08 within 128 cycles.
 Requested convergence on MAX density matrix=1.00D-06.
 Requested convergence on             energy=1.00D-06.
 No special actions if energy rises.

 Cycle   1  Pass 1  IDiag  1:
 E= -77.7214986572055    
 DIIS: error= 6.68D-03 at cycle   1 NSaved=   1.
 NSaved= 1 IEnMin= 1 EnMin= -77.7214986572055     IErMin= 1 ErrMin= 6.68D-03
 ErrMax= 6.68D-03  0.00D+00 EMaxC= 1.00D-01 BMatC= 8.84D-03 BMatP= 8.84D-03
 IDIUse=3 WtCom= 9.33D-01 WtEn= 6.68D-02
 Coeff-Com:  0.100D+01
 Coeff-En:   0.100D+01
 Coeff:      0.100D+01
 Gap=     0.647 Goal=   None    Shift=    0.000
 Gap=     0.647 Goal=   None    Shift=    0.000
 GapD=    0.647 DampG=2.000 DampE=1.000 DampFc=2.0000 IDamp=-1.
 RMSDP=1.96D-03 MaxDP=3.69D-02              OVMax= 1.37D-02

 Cycle   2  Pass 1  IDiag  1:
 E= -77.7233061984223     Delta-E=       -0.001807541217 Rises=F Damp=F
 DIIS: error= 7.34D-04 at cycle   2 NSaved=   2.
 NSaved= 2 IEnMin= 2 EnMin= -77.7233061984223     IErMin= 2 ErrMin= 7.34D-04
 ErrMax= 7.34D-04  0.00D+00 EMaxC= 1.00D-01 BMatC= 1.21D-04 BMatP= 8.84D-03
 IDIUse=3 WtCom= 9.93D-01 WtEn= 7.34D-03
 Coeff-Com: -0.503D-01 0.105D+01
 Coeff-En:   0.000D+00 0.100D+01
 Coeff:     -0.500D-01 0.105D+01
 Gap=     0.362 Goal=   None    Shift=    0.000
 Gap=     0.362 Goal=   None    Shift=    0.000
 RMSDP=1.36D-04 MaxDP=2.36D-03 DE=-1.81D-03 OVMax= 2.96D-03

 Cycle   3  Pass 1  IDiag  1:
 E= -77.7233322111611     Delta-E=       -0.000026012739 Rises=F Damp=F
 DIIS: error= 6.50D-04 at cycle   3 NSaved=   3.
 NSaved= 3 IEnMin= 3 EnMin= -77.7233322111611     IErMin= 3 ErrMin= 6.50D-04
 ErrMax= 6.50D-04  0.00D+00 EMaxC= 1.00D-01 BMatC= 4.91D-05 BMatP= 1.21D-04
 IDIUse=3 WtCom= 9.94D-01 WtEn= 6.50D-03
 Coeff-Com: -0.308D-01 0.420D+00 0.610D+00
 Coeff-En:   0.000D+00 0.000D+00 0.100D+01
 Coeff:     -0.306D-01 0.418D+00 0.613D+00
 Gap=     0.361 Goal=   None    Shift=    0.000
 Gap=     0.361 Goal=   None    Shift=    0.000
 RMSDP=4.61D-05 MaxDP=4.66D-04 DE=-2.60D-05 OVMax= 9.34D-04

 Cycle   4  Pass 1  IDiag  1:
 E= -77.7233426285466     Delta-E=       -0.000010417386 Rises=F Damp=F
 DIIS: error= 6.83D-05 at cycle   4 NSaved=   4.
 NSaved= 4 IEnMin= 4 EnMin= -77.7233426285466     IErMin= 4 ErrMin= 6.83D-05
 ErrMax= 6.83D-05  0.00D+00 EMaxC= 1.00D-01 BMatC= 8.81D-07 BMatP= 4.91D-05
 IDIUse=1 WtCom= 1.00D+00 WtEn= 0.00D+00
 Coeff-Com:  0.231D-03-0.363D-01 0.817D-01 0.954D+00
 Coeff:      0.231D-03-0.363D-01 0.817D-01 0.954D+00
 Gap=     0.361 Goal=   None    Shift=    0.000
 Gap=     0.361 Goal=   None    Shift=    0.000
 RMSDP=1.58D-05 MaxDP=3.75D-04 DE=-1.04D-05 OVMax= 2.03D-04

 Cycle   5  Pass 1  IDiag  1:
 E= -77.7233428600017     Delta-E=       -0.000000231455 Rises=F Damp=F
 DIIS: error= 5.22D-06 at cycle   5 NSaved=   5.
 NSaved= 5 IEnMin= 5 EnMin= -77.7233428600017     IErMin= 5 ErrMin= 5.22D-06
 ErrMax= 5.22D-06  0.00D+00 EMaxC= 1.00D-01 BMatC= 2.10D-09 BMatP= 8.81D-07
 IDIUse=1 WtCom= 1.00D+00 WtEn= 0.00D+00
 Coeff-Com:  0.249D-03-0.104D-02-0.110D-01-0.901D-01 0.110D+01
 Coeff:      0.249D-03-0.104D-02-0.110D-01-0.901D-01 0.110D+01
 Gap=     0.361 Goal=   None    Shift=    0.000
 Gap=     0.361 Goal=   None    Shift=    0.000
 RMSDP=4.22D-06 MaxDP=9.49D-05 DE=-2.31D-07 OVMax= 2.63D-05

 Cycle   6  Pass 1  IDiag  1:
 E= -77.7233428614944     Delta-E=       -0.000000001493 Rises=F Damp=F
 DIIS: error= 3.81D-07 at cycle   6 NSaved=   6.
 NSaved= 6 IEnMin= 6 EnMin= -77.7233428614944     IErMin= 6 ErrMin= 3.81D-07
 ErrMax= 3.81D-07  0.00D+00 EMaxC= 1.00D-01 BMatC= 1.80D-11 BMatP= 2.10D-09
 IDIUse=1 WtCom= 1.00D+00 WtEn= 0.00D+00
 Coeff-Com: -0.293D-04 0.522D-03 0.558D-04-0.159D-02-0.964D-01 0.110D+01
 Coeff:     -0.293D-04 0.522D-03 0.558D-04-0.159D-02-0.964D-01 0.110D+01
 Gap=     0.361 Goal=   None    Shift=    0.000
 Gap=     0.361 Goal=   None    Shift=    0.000
 RMSDP=4.82D-07 MaxDP=8.91D-06 DE=-1.49D-09 OVMax= 2.21D-06

 Cycle   7  Pass 1  IDiag  1:
 E= -77.7233428615066     Delta-E=       -0.000000000012 Rises=F Damp=F
 DIIS: error= 3.16D-08 at cycle   7 NSaved=   7.
 NSaved= 7 IEnMin= 7 EnMin= -77.7233428615066     IErMin= 7 ErrMin= 3.16D-08
 ErrMax= 3.16D-08  0.00D+00 EMaxC= 1.00D-01 BMatC= 1.56D-13 BMatP= 1.80D-11
 IDIUse=1 WtCom= 1.00D+00 WtEn= 0.00D+00
 Coeff-Com: -0.110D-05 0.170D-06 0.923D-04 0.424D-03-0.482D-02-0.242D-01
 Coeff-Com:  0.103D+01
 Coeff:     -0.110D-05 0.170D-06 0.923D-04 0.424D-03-0.482D-02-0.242D-01
 Coeff:      0.103D+01
 Gap=     0.361 Goal=   None    Shift=    0.000
 Gap=     0.361 Goal=   None    Shift=    0.000
 RMSDP=2.32D-08 MaxDP=4.05D-07 DE=-1.22D-11 OVMax= 1.28D-07

 Cycle   8  Pass 1  IDiag  1:
 E= -77.7233428615066     Delta-E=       -0.000000000000 Rises=F Damp=F
 DIIS: error= 2.34D-09 at cycle   8 NSaved=   8.
 NSaved= 8 IEnMin= 8 EnMin= -77.7233428615066     IErMin= 8 ErrMin= 2.34D-09
 ErrMax= 2.34D-09  0.00D+00 EMaxC= 1.00D-01 BMatC= 1.11D-15 BMatP= 1.56D-13
 IDIUse=1 WtCom= 1.00D+00 WtEn= 0.00D+00
 Coeff-Com:  0.864D-07-0.263D-05 0.242D-05 0.330D-04 0.313D-03-0.675D-02
 Coeff-Com:  0.413D-01 0.965D+00
 Coeff:      0.864D-07-0.263D-05 0.242D-05 0.330D-04 0.313D-03-0.675D-02
 Coeff:      0.413D-01 0.965D+00
 Gap=     0.361 Goal=   None    Shift=    0.000
 Gap=     0.361 Goal=   None    Shift=    0.000
 RMSDP=7.44D-10 MaxDP=1.24D-08 DE=-8.53D-14 OVMax= 1.39D-08

 SCF Done:  E(UM062X) =  -77.7233428615     A.U. after    8 cycles
            NFock=  8  Conv=0.74D-09     -V/T= 1.9458
 <Sx>= 0.0000 <Sy>= 0.0000 <Sz>= 0.0000 <S**2>=-0.0000 S=-0.0000
 <L.S>=  0.00000000000    
 KE= 8.217864283988D+01 PE=-2.731406387746D+02 EE= 6.841857589716D+01
 Annihilation of the first spin contaminant:
 S**2 before annihilation    -0.0000,   after    -0.0000
 Leave Link  502 at Tue Nov 19 10:17:44 2024, MaxMem=   536870912 cpu:              39.1 elap:               5.0
 (Enter /home/szhao/Apps/g16/l701.exe)
 ... and contract with generalized density number  0.
 Compute integral first derivatives.
 Leave Link  701 at Tue Nov 19 10:17:44 2024, MaxMem=   536870912 cpu:               0.7 elap:               0.1
 (Enter /home/szhao/Apps/g16/l702.exe)
 L702 exits ... SP integral derivatives will be done elsewhere.
 Leave Link  702 at Tue Nov 19 10:17:44 2024, MaxMem=   536870912 cpu:               0.3 elap:               0.0
 (Enter /home/szhao/Apps/g16/l703.exe)
 Integral derivatives from FoFJK, PRISM(SPDF).
 Compute integral first derivatives, UseDBF=F ICtDFT=           0.
 Calling FoFJK, ICntrl=      2127 FMM=F ISym2X=0 I1Cent= 0 IOpClX= 1 NMat=1 NMatS=1 NMatT=0.
 FoFJK:  IHMeth= 1 ICntrl=    2127 DoSepK=F KAlg= 0 I1Cent=           0 FoldK=F
 IRaf=         0 NMat=       1 IRICut=       1 DoRegI=T DoRafI=F ISym2E= 0 IDoP0=0 IntGTp=1.
 FoFCou: FMM=F IPFlag=           0 FMFlag=      100000 FMFlg1=         800
         NFxFlg=           0 DoJE=F BraDBF=F KetDBF=F FulRan=T
         wScrn=  0.000000 ICntrl=      2127 IOpCl=  1 I1Cent=           0 NGrid=           0
         NMat0=    1 NMatS0=      1 NMatT0=    0 NMatD0=    1 NMtDS0=    0 NMtDT0=    0
 Symmetry not used in FoFCou.
 Leave Link  703 at Tue Nov 19 10:17:45 2024, MaxMem=   536870912 cpu:               8.8 elap:               1.1
 (Enter /home/szhao/Apps/g16/l716.exe)
 Dipole        = 1.30562228D-13-1.63646874D-13-2.74398446D-15
 -------------------------------------------------------------------
 Center     Atomic                   Forces (Hartrees/Bohr)
 Number     Number              X              Y              Z
 -------------------------------------------------------------------
      1        6          -0.000000000   -0.000000000   -0.000000000
      2        6          -0.000000000   -0.000000000   -0.000000000
      3        1          -0.074819566   -0.028559757    0.000000000
      4        1          -0.073973833    0.027037024    0.000000000
      5        1           0.074819566    0.028559757   -0.000000000
      6        1           0.073973833   -0.027037024   -0.000000000
 -------------------------------------------------------------------
 Cartesian Forces:  Max     0.074819566 RMS     0.037441444
 Leave Link  716 at Tue Nov 19 10:17:45 2024, MaxMem=   536870912 cpu:               0.3 elap:               0.0
 (Enter /home/szhao/Apps/g16/l103.exe)

 GradGradGradGradGradGradGradGradGradGradGradGradGradGradGradGradGradGrad
 Berny optimization.
 Using GEDIIS/GDIIS optimizer.
 FormGI is forming the generalized inverse of G from B-inverse, IUseBI=4.
 Internal  Forces:  Max     0.148793398 RMS     0.060261393
 Search for a local minimum.
 Step number   2 out of a maximum of   30
 All quantities printed in internal units (Hartrees-Bohrs-Radians)
 RMS Force = .44994D-01 SwitMx=.10000D-02 MixMth= 1
 Mixed Optimization -- RFO/linear search
 Update second derivatives using D2CorX and points    1    2
 DE= -6.02D-02 DEPred=-6.19D-02 R= 9.73D-01
 TightC=F SS=  1.41D+00  RLast= 3.00D-01 DXNew= 5.0454D-01 9.0000D-01
 Trust test= 9.73D-01 RLast= 3.00D-01 DXMaxT set to 5.05D-01
 The second derivative matrix:
                          X1        Y1        Z1        X2        Y2
           X1           0.70245
           Y1           0.00431   0.50009
           Z1           0.00000   0.00000   0.50000
           X2          -0.20245  -0.00431  -0.00000   0.70245
           Y2          -0.00431  -0.00009  -0.00000   0.00431   0.50009
           Z2          -0.00000  -0.00000  -0.00000   0.00000   0.00000
           R1          -0.10993  -0.00234  -0.00000   0.10993   0.00234
           R2          -0.10582  -0.00225  -0.00000   0.10582   0.00225
           R3          -0.10993  -0.00234  -0.00000   0.10993   0.00234
           R4          -0.10582  -0.00225  -0.00000   0.10582   0.00225
           A1          -0.04218  -0.00090  -0.00000   0.04218   0.00090
           A2          -0.04287  -0.00091  -0.00000   0.04287   0.00091
           A3           0.08505   0.00181   0.00000  -0.08505  -0.00181
           A4          -0.04218  -0.00090  -0.00000   0.04218   0.00090
           A5          -0.04287  -0.00091  -0.00000   0.04287   0.00091
           A6           0.08505   0.00181   0.00000  -0.08505  -0.00181
           D1           0.00000   0.00000   0.00000  -0.00000  -0.00000
           D2           0.00000   0.00000   0.00000  -0.00000  -0.00000
           D3          -0.00000  -0.00000  -0.00000   0.00000   0.00000
           D4           0.00000   0.00000   0.00000  -0.00000  -0.00000
                          Z2        R1        R2        R3        R4
           Z2           0.50000
           R1           0.00000   0.49821
           R2           0.00000   0.00101   0.49203
           R3           0.00000   0.00106   0.00101   0.49821
           R4           0.00000   0.00101   0.00096   0.00101   0.49203
           A1           0.00000   0.00242   0.00232   0.00242   0.00232
           A2           0.00000   0.00256   0.00246   0.00256   0.00246
           A3          -0.00000  -0.00498  -0.00478  -0.00498  -0.00478
           A4           0.00000   0.00242   0.00232   0.00242   0.00232
           A5           0.00000   0.00256   0.00246   0.00256   0.00246
           A6          -0.00000  -0.00498  -0.00478  -0.00498  -0.00478
           D1          -0.00000  -0.00000  -0.00000  -0.00000  -0.00000
           D2          -0.00000  -0.00000  -0.00000  -0.00000  -0.00000
           D3           0.00000   0.00000   0.00000   0.00000   0.00000
           D4          -0.00000  -0.00000  -0.00000  -0.00000  -0.00000
                          A1        A2        A3        A4        A5
           A1           0.16163
           A2           0.00169   0.16176
           A3          -0.00333  -0.00345   0.16678
           A4           0.00163   0.00169  -0.00333   0.16163
           A5           0.00169   0.00176  -0.00345   0.00169   0.16176
           A6          -0.00333  -0.00345   0.00678  -0.00333  -0.00345
           D1          -0.00000  -0.00000   0.00000  -0.00000  -0.00000
           D2          -0.00000  -0.00000   0.00000  -0.00000  -0.00000
           D3           0.00000   0.00000  -0.00000   0.00000   0.00000
           D4          -0.00000  -0.00000   0.00000  -0.00000  -0.00000
                          A6        D1        D2        D3        D4
           A6           0.16678
           D1           0.00000   0.09560
           D2           0.00000   0.00000   0.09560
           D3          -0.00000  -0.00000  -0.00000   0.09560
           D4           0.00000   0.00000   0.00000  -0.00000   0.09560
 ITU=  1  0
 Use linear search instead of GDIIS.
 Linear search step of   0.600 exceeds DXMaxT=   0.505 but not scaled.
 Quartic linear search produced a step of  2.00000.
 Iteration  1 RMS(Cart)=  0.11967735 RMS(Int)=  0.03453581
 Iteration  2 RMS(Cart)=  0.04147961 RMS(Int)=  0.00092548
 Iteration  3 RMS(Cart)=  0.00092927 RMS(Int)=  0.00000012
 Iteration  4 RMS(Cart)=  0.00000015 RMS(Int)=  0.00000000
 ITry= 1 IFail=0 DXMaxC= 3.37D-01 DCOld= 1.00D+10 DXMaxT= 5.05D-01 DXLimC= 3.00D+00 Rises=F
 Variable       Old X    -DE/DX   Delta X   Delta X   Delta X     New X
                                 (Linear)    (Quad)   (Total)
    X1       -0.78917  -0.14879   0.00000   0.00000   0.00000  -0.78917
    Y1        0.00000  -0.00194   0.00000   0.00000   0.00000   0.00000
    Z1        0.00000   0.00000   0.00000   0.00000   0.00000   0.00000
    X2        0.78917   0.14879   0.00000   0.00000   0.00000   0.78917
    Y2        0.00000   0.00194   0.00000   0.00000   0.00000   0.00000
    Z2        0.00000  -0.00000   0.00000   0.00000   0.00000   0.00000
    R1        1.93886   0.05813   0.14063   0.00000   0.14063   2.07949
    R2        1.94331   0.05625   0.13709   0.00000   0.13709   2.08040
    R3        1.93886   0.05813   0.14063   0.00000   0.14063   2.07949
    R4        1.94331   0.05625   0.13709   0.00000   0.13709   2.08040
    A1        2.01851   0.03549   0.15266   0.00000   0.15266   2.17117
    A2        2.01588   0.03582   0.15440   0.00000   0.15440   2.17028
    A3        2.24880  -0.07131  -0.30706   0.00000  -0.30706   1.94174
    A4        2.01851   0.03549   0.15266   0.00000   0.15266   2.17117
    A5        2.01588   0.03582   0.15440   0.00000   0.15440   2.17028
    A6        2.24880  -0.07131  -0.30706   0.00000  -0.30706   1.94174
    D1        3.14159   0.00000   0.00000   0.00000  -0.00000   3.14159
    D2        0.00000   0.00000   0.00000   0.00000   0.00000   0.00000
    D3       -0.00000  -0.00000   0.00000   0.00000  -0.00000  -0.00000
    D4        3.14159  -0.00000   0.00000   0.00000   0.00000   3.14159
         Item               Value     Threshold  Converged?
 Maximum Force            0.071308     0.000450     NO 
 RMS     Force            0.044994     0.000300     NO 
 Maximum Displacement     0.337128     0.001800     NO 
 RMS     Displacement     0.151174     0.001200     NO 
 Predicted change in Energy=-5.024182D-02
 Lowest energy point so far.  Saving SCF results.
 GradGradGradGradGradGradGradGradGradGradGradGradGradGradGradGradGradGrad

 Leave Link  103 at Tue Nov 19 10:17:45 2024, MaxMem=   536870912 cpu:               0.0 elap:               0.0
 (Enter /home/szhao/Apps/g16/l202.exe)
                          Input orientation:                          
 ---------------------------------------------------------------------
 Center     Atomic      Atomic             Coordinates (Angstroms)
 Number     Number       Type             X           Y           Z
 ---------------------------------------------------------------------
      1          6           0       -0.417609    0.000000    0.000000
      2          6           0        0.417609    0.000000    0.000000
      3          1           0       -1.039290   -0.907984    0.000000
      4          1           0       -1.038751    0.908933    0.000000
      5          1           0        1.039290    0.907984   -0.000000
      6          1           0        1.038751   -0.908933   -0.000000
 ---------------------------------------------------------------------
                    Distance matrix (angstroms):
                    1          2          3          4          5
     1  C    0.000000
     2  C    0.835219   0.000000
     3  H    1.100419   1.716680   0.000000
     4  H    1.100898   1.716725   1.816917   0.000000
     5  H    1.716680   1.100419   2.760115   2.078041   0.000000
     6  H    1.716725   1.100898   2.078041   2.760553   1.816917
                    6
     6  H    0.000000
 Symmetry turned off by external request.
 Stoichiometry    C2H4
 Framework group  C2[X(C2H4)]
 Deg. of freedom     7
 Full point group                 C2      NOp   2
 Rotational constants (GHZ):         151.9014081          59.1945887          42.5955088
 Leave Link  202 at Tue Nov 19 10:17:45 2024, MaxMem=   536870912 cpu:               0.0 elap:               0.0
 (Enter /home/szhao/Apps/g16/l301.exe)
 Standard basis: 6-311+G(d,p) (5D, 7F)
 Ernie: Thresh=  0.10000D-02 Tol=  0.10000D-05 Strict=F.
    68 basis functions,   104 primitive gaussians,    70 cartesian basis functions
     8 alpha electrons        8 beta electrons
       nuclear repulsion energy        43.2208996722 Hartrees.
 IExCor= 4336 DFT=T Ex+Corr=M062X ExCW=0 ScaHFX=  0.540000
 ScaDFX=  1.000000  1.000000  1.000000  1.000000 ScalE2=  1.000000  1.000000
 IRadAn=      7 IRanWt=     -1 IRanGd=            0 ICorTp=0 IEmpDi=  4
 NAtoms=    6 NActive=    6 NUniq=    6 SFac= 1.00D+00 NAtFMM=   60 NAOKFM=F Big=F
 Integral buffers will be    131072 words long.
 Raffenetti 2 integral format.
 Two-electron integral symmetry is turned off.
 Leave Link  301 at Tue Nov 19 10:17:45 2024, MaxMem=   536870912 cpu:               0.3 elap:               0.0
 (Enter /home/szhao/Apps/g16/l302.exe)
 NPDir=0 NMtPBC=     1 NCelOv=     1 NCel=       1 NClECP=     1 NCelD=      1
         NCelK=      1 NCelE2=     1 NClLst=     1 CellRange=     0.0.
 One-electron integrals computed using PRISM.
 NBasis=    68 RedAO= T EigKep=  9.58D-06  NBF=    68
 NBsUse=    68 1.00D-06 EigRej= -1.00D+00 NBFU=    68
 Precomputing XC quadrature grid using
 IXCGrd= 4 IRadAn=           7 IRanWt=          -1 IRanGd=           0 AccXCQ= 0.00D+00.
 Generated NRdTot=       0 NPtTot=           0 NUsed=           0 NTot=          32
 NSgBfM=    70    70    70    70    70 MxSgAt=     6 MxSgA2=     6.
 Leave Link  302 at Tue Nov 19 10:17:45 2024, MaxMem=   536870912 cpu:               1.1 elap:               0.1
 (Enter /home/szhao/Apps/g16/l303.exe)
 DipDrv:  MaxL=1.
 Leave Link  303 at Tue Nov 19 10:17:45 2024, MaxMem=   536870912 cpu:               0.3 elap:               0.0
 (Enter /home/szhao/Apps/g16/l401.exe)
 Initial guess from the checkpoint file:  "opt.chk"
 B after Tr=    -0.000000    0.000000   -0.000000
         Rot=    1.000000    0.000000   -0.000000   -0.000375 Ang=  -0.04 deg.
 Guess basis will be translated and rotated to current coordinates.
 JPrj=2 DoOrth=T DoCkMO=T.
 Initial guess <Sx>= 0.0000 <Sy>= 0.0000 <Sz>= 0.0000 <S**2>=-0.0000 S=-0.0000
 Generating alternative initial guess.
 ExpMin= 4.38D-02 ExpMax= 4.56D+03 ExpMxC= 6.82D+02 IAcc=3 IRadAn=         5 AccDes= 0.00D+00
 Harris functional with IExCor= 1009 and IRadAn=       5 diagonalized for initial guess.
 HarFok:  IExCor= 1009 AccDes= 0.00D+00 IRadAn=         5 IDoV= 1 UseB2=F ITyADJ=14
 ICtDFT=  3500011 ScaDFX=  1.000000  1.000000  1.000000  1.000000
 FoFCou: FMM=F IPFlag=           0 FMFlag=      100000 FMFlg1=           0
         NFxFlg=           0 DoJE=T BraDBF=F KetDBF=T FulRan=T
         wScrn=  0.000000 ICntrl=       500 IOpCl=  0 I1Cent=   200000004 NGrid=           0
         NMat0=    1 NMatS0=      1 NMatT0=    0 NMatD0=    1 NMtDS0=    0 NMtDT0=    0
 Symmetry not used in FoFCou.
 Harris En= -78.1072810099600    
 Leave Link  401 at Tue Nov 19 10:17:45 2024, MaxMem=   536870912 cpu:               2.0 elap:               0.3
 (Enter /home/szhao/Apps/g16/l502.exe)
 Keep R1 and R2 ints in memory in canonical form, NReq=12681614.
 FoFCou: FMM=F IPFlag=           0 FMFlag=           0 FMFlg1=           0
         NFxFlg=           0 DoJE=F BraDBF=F KetDBF=F FulRan=T
         wScrn=  0.000000 ICntrl=       600 IOpCl=  0 I1Cent=           0 NGrid=           0
         NMat0=    1 NMatS0=   2346 NMatT0=    0 NMatD0=    1 NMtDS0=    0 NMtDT0=    0
 Symmetry not used in FoFCou.
 Two-electron integral symmetry not used.
 UHF open shell SCF:
 Using DIIS extrapolation, IDIIS=  1040.
 NGot=   536870912 LenX=   531353794 LenY=   531348453
 Requested convergence on RMS density matrix=1.00D-08 within 128 cycles.
 Requested convergence on MAX density matrix=1.00D-06.
 Requested convergence on             energy=1.00D-06.
 No special actions if energy rises.

 Cycle   1  Pass 1  IDiag  1:
 E= -77.7749244416673    
 DIIS: error= 1.30D-02 at cycle   1 NSaved=   1.
 NSaved= 1 IEnMin= 1 EnMin= -77.7749244416673     IErMin= 1 ErrMin= 1.30D-02
 ErrMax= 1.30D-02  0.00D+00 EMaxC= 1.00D-01 BMatC= 2.90D-02 BMatP= 2.90D-02
 IDIUse=3 WtCom= 8.70D-01 WtEn= 1.30D-01
 Coeff-Com:  0.100D+01
 Coeff-En:   0.100D+01
 Coeff:      0.100D+01
 Recover alternate guess density for next cycle.
 RMSDP=9.42D-03 MaxDP=1.43D-01              OVMax= 0.00D+00

 Cycle   2  Pass 1  IDiag  1:
 E= -77.2715741845155     Delta-E=        0.503350257152 Rises=F Damp=F
 Switch densities from cycles 1 and 2 for lowest energy.
 DIIS: error= 1.25D-01 at cycle   2 NSaved=   2.
 NSaved= 2 IEnMin= 1 EnMin= -77.7749244416673     IErMin= 1 ErrMin= 1.30D-02
 ErrMax= 1.25D-01  0.00D+00 EMaxC= 1.00D+00 BMatC= 2.48D+00 BMatP= 2.90D-02
 IDIUse=1 WtCom= 1.00D+00 WtEn= 0.00D+00
 Coeff-Com:  0.101D+01-0.911D-02
 Coeff:      0.101D+01-0.911D-02
 Gap=     0.383 Goal=   None    Shift=    0.000
 Gap=     0.383 Goal=   None    Shift=    0.000
 RMSDP=3.32D-03 MaxDP=5.32D-02 DE= 5.03D-01 OVMax= 2.07D-01

 Cycle   3  Pass 1  IDiag  1:
 E= -77.7814077216443     Delta-E=       -0.509833537129 Rises=F Damp=F
 DIIS: error= 1.28D-03 at cycle   3 NSaved=   3.
 NSaved= 3 IEnMin= 3 EnMin= -77.7814077216443     IErMin= 3 ErrMin= 1.28D-03
 ErrMax= 1.28D-03  0.00D+00 EMaxC= 1.00D+00 BMatC= 3.09D-04 BMatP= 2.90D-02
 IDIUse=1 WtCom= 1.00D+00 WtEn= 0.00D+00
 Coeff-Com: -0.699D-01 0.532D-02 0.106D+01
 Coeff:     -0.699D-01 0.532D-02 0.106D+01
 Gap=     0.348 Goal=   None    Shift=    0.000
 Gap=     0.348 Goal=   None    Shift=    0.000
 RMSDP=3.75D-04 MaxDP=6.53D-03 DE=-5.10D-01 OVMax= 3.58D-03

 Cycle   4  Pass 1  IDiag  1:
 E= -77.7815186583055     Delta-E=       -0.000110936661 Rises=F Damp=F
 DIIS: error= 3.20D-04 at cycle   4 NSaved=   4.
 NSaved= 4 IEnMin= 4 EnMin= -77.7815186583055     IErMin= 4 ErrMin= 3.20D-04
 ErrMax= 3.20D-04  0.00D+00 EMaxC= 1.00D+00 BMatC= 4.26D-06 BMatP= 3.09D-04
 IDIUse=1 WtCom= 1.00D+00 WtEn= 0.00D+00
 Coeff-Com: -0.172D-02-0.867D-03-0.305D-01 0.103D+01
 Coeff:     -0.172D-02-0.867D-03-0.305D-01 0.103D+01
 Gap=     0.347 Goal=   None    Shift=    0.000
 Gap=     0.347 Goal=   None    Shift=    0.000
 RMSDP=5.51D-05 MaxDP=1.22D-03 DE=-1.11D-04 OVMax= 8.51D-04

 Cycle   5  Pass 1  IDiag  1:
 E= -77.7815204685024     Delta-E=       -0.000001810197 Rises=F Damp=F
 DIIS: error= 2.78D-05 at cycle   5 NSaved=   5.
 NSaved= 5 IEnMin= 5 EnMin= -77.7815204685024     IErMin= 5 ErrMin= 2.78D-05
 ErrMax= 2.78D-05  0.00D+00 EMaxC= 1.00D+00 BMatC= 1.18D-07 BMatP= 4.26D-06
 IDIUse=1 WtCom= 1.00D+00 WtEn= 0.00D+00
 Coeff-Com:  0.879D-03-0.441D-04-0.205D-01 0.558D-01 0.964D+00
 Coeff:      0.879D-03-0.441D-04-0.205D-01 0.558D-01 0.964D+00
 Gap=     0.347 Goal=   None    Shift=    0.000
 Gap=     0.347 Goal=   None    Shift=    0.000
 RMSDP=4.54D-06 MaxDP=6.32D-05 DE=-1.81D-06 OVMax= 8.81D-05

 Cycle   6  Pass 1  IDiag  1:
 E= -77.7815205142749     Delta-E=       -0.000000045772 Rises=F Damp=F
 DIIS: error= 5.25D-06 at cycle   6 NSaved=   6.
 NSaved= 6 IEnMin= 6 EnMin= -77.7815205142749     IErMin= 6 ErrMin= 5.25D-06
 ErrMax= 5.25D-06  0.00D+00 EMaxC= 1.00D+00 BMatC= 1.20D-09 BMatP= 1.18D-07
 IDIUse=1 WtCom= 1.00D+00 WtEn= 0.00D+00
 Coeff-Com:  0.131D-04 0.561D-05 0.120D-02-0.194D-01-0.439D-01 0.106D+01
 Coeff:      0.131D-04 0.561D-05 0.120D-02-0.194D-01-0.439D-01 0.106D+01
 Gap=     0.347 Goal=   None    Shift=    0.000
 Gap=     0.347 Goal=   None    Shift=    0.000
 RMSDP=1.71D-06 MaxDP=2.72D-05 DE=-4.58D-08 OVMax= 1.99D-05

 Cycle   7  Pass 1  IDiag  1:
 E= -77.7815205149696     Delta-E=       -0.000000000695 Rises=F Damp=F
 DIIS: error= 2.26D-07 at cycle   7 NSaved=   7.
 NSaved= 7 IEnMin= 7 EnMin= -77.7815205149696     IErMin= 7 ErrMin= 2.26D-07
 ErrMax= 2.26D-07  0.00D+00 EMaxC= 1.00D+00 BMatC= 8.05D-12 BMatP= 1.20D-09
 IDIUse=1 WtCom= 1.00D+00 WtEn= 0.00D+00
 Coeff-Com: -0.998D-05 0.138D-05 0.779D-04 0.936D-03-0.744D-03-0.101D+00
 Coeff-Com:  0.110D+01
 Coeff:     -0.998D-05 0.138D-05 0.779D-04 0.936D-03-0.744D-03-0.101D+00
 Coeff:      0.110D+01
 Gap=     0.347 Goal=   None    Shift=    0.000
 Gap=     0.347 Goal=   None    Shift=    0.000
 RMSDP=1.63D-07 MaxDP=2.23D-06 DE=-6.95D-10 OVMax= 1.25D-06

 Cycle   8  Pass 1  IDiag  1:
 E= -77.7815205149738     Delta-E=       -0.000000000004 Rises=F Damp=F
 DIIS: error= 2.66D-08 at cycle   8 NSaved=   8.
 NSaved= 8 IEnMin= 8 EnMin= -77.7815205149738     IErMin= 8 ErrMin= 2.66D-08
 ErrMax= 2.66D-08  0.00D+00 EMaxC= 1.00D+00 BMatC= 8.87D-14 BMatP= 8.05D-12
 IDIUse=1 WtCom= 1.00D+00 WtEn= 0.00D+00
 Coeff-Com:  0.429D-06-0.216D-06-0.726D-05 0.200D-04 0.312D-03-0.477D-03
 Coeff-Com: -0.480D-01 0.105D+01
 Coeff:      0.429D-06-0.216D-06-0.726D-05 0.200D-04 0.312D-03-0.477D-03
 Coeff:     -0.480D-01 0.105D+01
 Gap=     0.347 Goal=   None    Shift=    0.000
 Gap=     0.347 Goal=   None    Shift=    0.000
 RMSDP=1.50D-08 MaxDP=3.27D-07 DE=-4.26D-12 OVMax= 9.45D-08

 Cycle   9  Pass 1  IDiag  1:
 E= -77.7815205149739     Delta-E=       -0.000000000000 Rises=F Damp=F
 DIIS: error= 1.98D-09 at cycle   9 NSaved=   9.
 NSaved= 9 IEnMin= 9 EnMin= -77.7815205149739     IErMin= 9 ErrMin= 1.98D-09
 ErrMax= 1.98D-09  0.00D+00 EMaxC= 1.00D+00 BMatC= 5.57D-16 BMatP= 8.87D-14
 IDIUse=1 WtCom= 1.00D+00 WtEn= 0.00D+00
 Coeff-Com: -0.127D-07 0.255D-07 0.327D-06-0.391D-05-0.250D-04 0.323D-03
 Coeff-Com:  0.916D-03-0.145D+00 0.114D+01
 Coeff:     -0.127D-07 0.255D-07 0.327D-06-0.391D-05-0.250D-04 0.323D-03
 Coeff:      0.916D-03-0.145D+00 0.114D+01
 Gap=     0.347 Goal=   None    Shift=    0.000
 Gap=     0.347 Goal=   None    Shift=    0.000
 RMSDP=9.75D-10 MaxDP=2.10D-08 DE=-5.68D-14 OVMax= 1.78D-08

 SCF Done:  E(UM062X) =  -77.7815205150     A.U. after    9 cycles
            NFock=  9  Conv=0.98D-09     -V/T= 1.9522
 <Sx>= 0.0000 <Sy>= 0.0000 <Sz>= 0.0000 <S**2>=-0.0000 S=-0.0000
 <L.S>=  0.00000000000    
 KE= 8.168589833992D+01 PE=-2.696814644437D+02 EE= 6.699314591659D+01
 Annihilation of the first spin contaminant:
 S**2 before annihilation    -0.0000,   after    -0.0000
 Leave Link  502 at Tue Nov 19 10:17:51 2024, MaxMem=   536870912 cpu:              44.7 elap:               5.7
 (Enter /home/szhao/Apps/g16/l701.exe)
 ... and contract with generalized density number  0.
 Compute integral first derivatives.
 Leave Link  701 at Tue Nov 19 10:17:51 2024, MaxMem=   536870912 cpu:               0.7 elap:               0.1
 (Enter /home/szhao/Apps/g16/l702.exe)
 L702 exits ... SP integral derivatives will be done elsewhere.
 Leave Link  702 at Tue Nov 19 10:17:51 2024, MaxMem=   536870912 cpu:               0.2 elap:               0.0
 (Enter /home/szhao/Apps/g16/l703.exe)
 Integral derivatives from FoFJK, PRISM(SPDF).
 Compute integral first derivatives, UseDBF=F ICtDFT=           0.
 Calling FoFJK, ICntrl=      2127 FMM=F ISym2X=0 I1Cent= 0 IOpClX= 1 NMat=1 NMatS=1 NMatT=0.
 FoFJK:  IHMeth= 1 ICntrl=    2127 DoSepK=F KAlg= 0 I1Cent=           0 FoldK=F
 IRaf=         0 NMat=       1 IRICut=       1 DoRegI=T DoRafI=F ISym2E= 0 IDoP0=0 IntGTp=1.
 FoFCou: FMM=F IPFlag=           0 FMFlag=      100000 FMFlg1=         800
         NFxFlg=           0 DoJE=F BraDBF=F KetDBF=F FulRan=T
         wScrn=  0.000000 ICntrl=      2127 IOpCl=  1 I1Cent=           0 NGrid=           0
         NMat0=    1 NMatS0=      1 NMatT0=    0 NMatD0=    1 NMtDS0=    0 NMtDT0=    0
 Symmetry not used in FoFCou.
 Leave Link  703 at Tue Nov 19 10:17:52 2024, MaxMem=   536870912 cpu:               8.8 elap:               1.1
 (Enter /home/szhao/Apps/g16/l716.exe)
 Dipole        =-1.12354570D-13-1.50102153D-13-3.30783278D-09
 -------------------------------------------------------------------
 Center     Atomic                   Forces (Hartrees/Bohr)
 Number     Number              X              Y              Z
 -------------------------------------------------------------------
      1        6          -0.000000000   -0.000000000   -0.000000000
      2        6          -0.000000000   -0.000000000   -0.000000000
      3        1          -0.015365063    0.006881810    0.000000000
      4        1          -0.015279708   -0.007068460   -0.000000000
      5        1           0.015365063   -0.006881810    0.000000001
      6        1           0.015279708    0.007068460    0.000000000
 -------------------------------------------------------------------
 Cartesian Forces:  Max     0.015365063 RMS     0.007936394
 Leave Link  716 at Tue Nov 19 10:17:52 2024, MaxMem=   536870912 cpu:               0.2 elap:               0.0
 (Enter /home/szhao/Apps/g16/l103.exe)

 GradGradGradGradGradGradGradGradGradGradGradGradGradGradGradGradGradGrad
 Berny optimization.
 Using GEDIIS/GDIIS optimizer.
 FormGI is forming the generalized inverse of G from B-inverse, IUseBI=4.
 Internal  Forces:  Max     0.030644771 RMS     0.013225933
 Search for a local minimum.
 Step number   3 out of a maximum of   30
 All quantities printed in internal units (Hartrees-Bohrs-Radians)
 RMS Force = .10757D-01 SwitMx=.10000D-02 MixMth= 1
 Mixed Optimization -- RFO/linear search
 Update second derivatives using D2CorX and points    2    3
 The second derivative matrix:
                          X1        Y1        Z1        X2        Y2
           X1           0.68695
           Y1           0.00259   0.50004
           Z1          -0.00000  -0.00000   0.50000
           X2          -0.18695  -0.00259   0.00000   0.68695
           Y2          -0.00259  -0.00004   0.00000   0.00259   0.50004
           Z2           0.00000   0.00000  -0.00000  -0.00000  -0.00000
           R1          -0.08724  -0.00121   0.00000   0.08724   0.00121
           R2          -0.08460  -0.00117   0.00000   0.08460   0.00117
           R3          -0.08724  -0.00121   0.00000   0.08724   0.00121
           R4          -0.08460  -0.00117   0.00000   0.08460   0.00117
           A1          -0.03803  -0.00053   0.00000   0.03803   0.00053
           A2          -0.03841  -0.00053   0.00000   0.03841   0.00053
           A3           0.07644   0.00106  -0.00000  -0.07644  -0.00106
           A4          -0.03803  -0.00053   0.00000   0.03803   0.00053
           A5          -0.03841  -0.00053   0.00000   0.03841   0.00053
           A6           0.07644   0.00106  -0.00000  -0.07644  -0.00106
           D1          -0.00000  -0.00000  -0.00000   0.00000   0.00000
           D2          -0.00000  -0.00000   0.00000   0.00000   0.00000
           D3          -0.00000  -0.00000  -0.00000   0.00000   0.00000
           D4          -0.00000  -0.00000   0.00000   0.00000   0.00000
                          Z2        R1        R2        R3        R4
           Z2           0.50000
           R1          -0.00000   0.47923
           R2          -0.00000  -0.01697   0.47501
           R3          -0.00000  -0.01792  -0.01697   0.47923
           R4          -0.00000  -0.01697  -0.01607  -0.01697   0.47501
           A1          -0.00000  -0.00273  -0.00251  -0.00273  -0.00251
           A2          -0.00000  -0.00279  -0.00256  -0.00279  -0.00256
           A3           0.00000   0.00553   0.00507   0.00553   0.00507
           A4          -0.00000  -0.00273  -0.00251  -0.00273  -0.00251
           A5          -0.00000  -0.00279  -0.00256  -0.00279  -0.00256
           A6           0.00000   0.00553   0.00507   0.00553   0.00507
           D1           0.00000   0.00000   0.00000   0.00000   0.00000
           D2          -0.00000   0.00000   0.00000   0.00000   0.00000
           D3           0.00000   0.00000   0.00000   0.00000   0.00000
           D4          -0.00000   0.00000   0.00000   0.00000   0.00000
                          A1        A2        A3        A4        A5
           A1           0.16058
           A2           0.00058   0.16057
           A3          -0.00116  -0.00115   0.16231
           A4           0.00058   0.00058  -0.00116   0.16058
           A5           0.00058   0.00057  -0.00115   0.00058   0.16057
           A6          -0.00116  -0.00115   0.00231  -0.00116  -0.00115
           D1           0.00000   0.00000  -0.00000   0.00000   0.00000
           D2           0.00000   0.00000  -0.00000   0.00000   0.00000
           D3           0.00000   0.00000  -0.00000   0.00000   0.00000
           D4           0.00000   0.00000  -0.00000   0.00000   0.00000
                          A6        D1        D2        D3        D4
           A6           0.16231
           D1          -0.00000   0.09560
           D2          -0.00000  -0.00000   0.09560
           D3          -0.00000  -0.00000  -0.00000   0.09560
           D4          -0.00000  -0.00000   0.00000  -0.00000   0.09560
 ITU=  0  1  0
 Use linear search instead of GDIIS.
     Eigenvalues ---    0.09560   0.09560   0.09560   0.16000   0.16000
     Eigenvalues ---    0.16000   0.16563   0.42745   0.49108   0.49409
     Eigenvalues ---    0.497151000.000001000.000001000.000001000.00000
     Eigenvalues --- 1000.000001000.000001000.000001000.000001000.00000
 RFO step:  Lambda=-3.63870989D-03 EMin= 9.55972939D-02
 Quartic linear search produced a step of  0.38487.
 Iteration  1 RMS(Cart)=  0.07924183 RMS(Int)=  0.00338360
 Iteration  2 RMS(Cart)=  0.00342190 RMS(Int)=  0.00000263
 Iteration  3 RMS(Cart)=  0.00000316 RMS(Int)=  0.00000000
 Iteration  4 RMS(Cart)=  0.00000000 RMS(Int)=  0.00000001
 ITry= 1 IFail=0 DXMaxC= 1.53D-01 DCOld= 1.00D+10 DXMaxT= 5.05D-01 DXLimC= 3.00D+00 Rises=F
 Variable       Old X    -DE/DX   Delta X   Delta X   Delta X     New X
                                 (Linear)    (Quad)   (Total)
    X1       -0.78917  -0.03064   0.00000   0.00000   0.00000  -0.78917
    Y1        0.00000  -0.00030   0.00000   0.00000   0.00000   0.00000
[...]
           A5          -0.03233   0.00011  -0.00000   0.03233  -0.00011
           A6           0.06442  -0.00024   0.00000  -0.06442   0.00024
           D1          -0.00000  -0.00000   0.00000   0.00000   0.00000
           D2          -0.00000  -0.00000   0.00000   0.00000   0.00000
           D3          -0.00000  -0.00000   0.00000   0.00000   0.00000
           D4          -0.00000  -0.00000  -0.00000   0.00000   0.00000
                          Z2        R1        R2        R3        R4
           Z2           0.50000
           R1          -0.00000   0.45567
           R2          -0.00000  -0.04039   0.45173
           R3          -0.00000  -0.04148  -0.04039   0.45567
           R4          -0.00000  -0.04039  -0.03934  -0.04039   0.45173
           A1           0.00000  -0.00507  -0.00481  -0.00507  -0.00481
           A2           0.00000  -0.00498  -0.00472  -0.00498  -0.00472
           A3          -0.00000   0.01006   0.00953   0.01006   0.00953
           A4           0.00000  -0.00507  -0.00481  -0.00507  -0.00481
           A5           0.00000  -0.00498  -0.00472  -0.00498  -0.00472
           A6          -0.00000   0.01006   0.00953   0.01006   0.00953
           D1           0.00000   0.00000   0.00000   0.00000   0.00000
           D2           0.00000   0.00000   0.00000   0.00000   0.00000
           D3           0.00000   0.00000   0.00000   0.00000   0.00000
           D4           0.00000   0.00000   0.00000   0.00000   0.00000
                          A1        A2        A3        A4        A5
           A1           0.15959
           A2          -0.00046   0.15950
           A3           0.00087   0.00096   0.15818
           A4          -0.00041  -0.00046   0.00087   0.15959
           A5          -0.00046  -0.00050   0.00096  -0.00046   0.15950
           A6           0.00087   0.00096  -0.00182   0.00087   0.00096
           D1           0.00000   0.00000  -0.00000   0.00000   0.00000
           D2           0.00000   0.00000  -0.00000   0.00000   0.00000
           D3           0.00000   0.00000  -0.00000   0.00000   0.00000
           D4           0.00000   0.00000  -0.00000   0.00000   0.00000
                          A6        D1        D2        D3        D4
           A6           0.15818
           D1          -0.00000   0.09560
           D2          -0.00000  -0.00000   0.09560
           D3          -0.00000  -0.00000  -0.00000   0.09560
           D4          -0.00000  -0.00000  -0.00000  -0.00000   0.09560
 ITU=  1  1  0  1  0
     Eigenvalues ---    0.09560   0.09560   0.09560   0.14828   0.16000
     Eigenvalues ---    0.16000   0.16000   0.33875   0.49108   0.49408
     Eigenvalues ---    0.497151000.000001000.000001000.000001000.00000
     Eigenvalues --- 1000.000001000.000001000.000001000.000001000.00000
 En-DIIS/RFO-DIIS/Sim-DIIS IScMMF=       -3 using points:     5    4
 RFO step:  Lambda=-1.94329640D-06.
 NNeg= 0 NGDIIS= 2 SimSw=  2.50D-01 Rises=F DC= -2.09D-05 SmlDif=  1.00D-05
 NRisDI= 0 DoIntr=F SqrtH=F CThrHd= 10.0 CDAdj=  3.0
 RMS Error=  0.5403148399D-03 NUsed= 2 OKEnD=T EnDIS=F
 InvSVX:  RCond= 4.19D-05 Info=           0 Equed=N FErr=  1.26D-15 BErr=  5.00D-17
 DidBck=F Rises=F RFO-DIIS coefs:    1.11028   -0.11028
 Iteration  1 RMS(Cart)=  0.00054038 RMS(Int)=  0.00000001
 Iteration  2 RMS(Cart)=  0.00000001 RMS(Int)=  0.00000000
 ITry= 1 IFail=0 DXMaxC= 9.55D-04 DCOld= 1.00D+10 DXMaxT= 8.49D-01 DXLimC= 3.00D+00 Rises=F
 Variable       Old X    -DE/DX   Delta X   Delta X   Delta X     New X
                                 (Linear)    (Quad)   (Total)
    X1       -0.78917   0.00045   0.00000   0.00000   0.00000  -0.78917
    Y1        0.00000  -0.00000   0.00000   0.00000   0.00000   0.00000
    Z1        0.00000  -0.00000   0.00000   0.00000   0.00000   0.00000
    X2        0.78917  -0.00045   0.00000   0.00000   0.00000   0.78917
    Y2        0.00000   0.00000   0.00000   0.00000   0.00000   0.00000
    Z2        0.00000   0.00000   0.00000   0.00000   0.00000   0.00000
    R1        2.09488  -0.00040  -0.00043  -0.00078  -0.00121   2.09367
    R2        2.09488  -0.00040  -0.00042  -0.00079  -0.00121   2.09367
    R3        2.09488  -0.00040  -0.00043  -0.00078  -0.00121   2.09367
    R4        2.09488  -0.00040  -0.00042  -0.00079  -0.00121   2.09367
    A1        2.25243   0.00002  -0.00034   0.00033  -0.00001   2.25243
    A2        2.25241   0.00003  -0.00033   0.00034   0.00001   2.25243
    A3        1.77834  -0.00005   0.00066  -0.00067  -0.00001   1.77833
    A4        2.25243   0.00002  -0.00034   0.00033  -0.00001   2.25243
    A5        2.25241   0.00003  -0.00033   0.00034   0.00001   2.25243
    A6        1.77834  -0.00005   0.00066  -0.00067  -0.00001   1.77833
    D1        3.14159  -0.00000   0.00000  -0.00000   0.00000   3.14159
    D2       -0.00000   0.00000   0.00000   0.00000   0.00000   0.00000
    D3       -0.00000   0.00000   0.00000   0.00000   0.00000   0.00000
    D4        3.14159   0.00000   0.00000   0.00000   0.00000  -3.14159
         Item               Value     Threshold  Converged?
 Maximum Force            0.000403     0.000450     YES
 RMS     Force            0.000216     0.000300     YES
 Maximum Displacement     0.000955     0.001800     YES
 RMS     Displacement     0.000540     0.001200     YES
 Predicted change in Energy=-9.714431D-07
 Optimization completed.
    -- Stationary point found.
                           ----------------------------
                           !   Optimized Parameters   !
                           ! (Angstroms and Degrees)  !
 --------------------------                            --------------------------
 ! Name  Definition              Value          Derivative Info.                !
 --------------------------------------------------------------------------------
 ! X1    R(1,-1)                -0.4176         -DE/DX =    0.0005              !
 ! Y1    R(1,-2)                 0.0            -DE/DX =    0.0                 !
 ! Z1    R(1,-3)                 0.0            -DE/DX =    0.0                 !
 ! X2    R(2,-1)                 0.4176         -DE/DX =   -0.0005              !
 ! Y2    R(2,-2)                 0.0            -DE/DX =    0.0                 !
 ! Z2    R(2,-3)                 0.0            -DE/DX =    0.0                 !
 ! R1    R(1,3)                  1.1086         -DE/DX =   -0.0004              !
 ! R2    R(1,4)                  1.1086         -DE/DX =   -0.0004              !
 ! R3    R(2,5)                  1.1086         -DE/DX =   -0.0004              !
 ! R4    R(2,6)                  1.1086         -DE/DX =   -0.0004              !
 ! A1    A(2,1,3)              129.0548         -DE/DX =    0.0                 !
 ! A2    A(2,1,4)              129.0538         -DE/DX =    0.0                 !
 ! A3    A(3,1,4)              101.8913         -DE/DX =    0.0                 !
 ! A4    A(1,2,5)              129.0548         -DE/DX =    0.0                 !
 ! A5    A(1,2,6)              129.0538         -DE/DX =    0.0                 !
 ! A6    A(5,2,6)              101.8913         -DE/DX =    0.0                 !
 ! D1    D(3,1,2,5)            180.0            -DE/DX =    0.0                 !
 ! D2    D(3,1,2,6)              0.0            -DE/DX =    0.0                 !
 ! D3    D(4,1,2,5)              0.0            -DE/DX =    0.0                 !
 ! D4    D(4,1,2,6)           -180.0            -DE/DX =    0.0                 !
 --------------------------------------------------------------------------------
 Lowest energy point so far.  Saving SCF results.
 Largest change from initial coordinates is atom    4       0.348 Angstoms.
 GradGradGradGradGradGradGradGradGradGradGradGradGradGradGradGradGradGrad

 Leave Link  103 at Tue Nov 19 10:18:05 2024, MaxMem=   536870912 cpu:               0.0 elap:               0.0
 (Enter /home/szhao/Apps/g16/l202.exe)
                          Input orientation:                          
 ---------------------------------------------------------------------
 Center     Atomic      Atomic             Coordinates (Angstroms)
 Number     Number       Type             X           Y           Z
 ---------------------------------------------------------------------
      1          6           0       -0.417609    0.000000    0.000000
      2          6           0        0.417609    0.000000    0.000000
      3          1           0       -1.116075   -0.860848    0.000000
      4          1           0       -1.116060    0.860859    0.000000
      5          1           0        1.116075    0.860848   -0.000000
      6          1           0        1.116060   -0.860859    0.000000
 ---------------------------------------------------------------------
                    Distance matrix (angstroms):
                    1          2          3          4          5
     1  C    0.000000
     2  C    0.835219   0.000000
     3  H    1.108564   1.758763   0.000000
     4  H    1.108562   1.758755   1.721706   0.000000
     5  H    1.758763   1.108564   2.818995   2.232135   0.000000
     6  H    1.758755   1.108562   2.232135   2.818983   1.721706
                    6
     6  H    0.000000
 Symmetry turned off by external request.
 Stoichiometry    C2H4
 Framework group  C2[X(C2H4)]
 Deg. of freedom     7
 Full point group                 C2      NOp   2
 Rotational constants (GHZ):         169.1663009          54.8909985          41.4434486
 Leave Link  202 at Tue Nov 19 10:18:05 2024, MaxMem=   536870912 cpu:               0.0 elap:               0.0
 (Enter /home/szhao/Apps/g16/l601.exe)
 Copying SCF densities to generalized density rwf, IOpCl= 1 IROHF=0.

 **********************************************************************

            Population analysis using the SCF density.

 **********************************************************************

 Alpha  occ. eigenvalues --  -10.51551 -10.45940  -0.95030  -0.61479  -0.61150
 Alpha  occ. eigenvalues --   -0.53603  -0.48304  -0.30484
 Alpha virt. eigenvalues --    0.03099   0.03569   0.04239   0.06118   0.07865
 Alpha virt. eigenvalues --    0.09166   0.09854   0.16034   0.16037   0.18595
 Alpha virt. eigenvalues --    0.23288   0.25291   0.36044   0.42110   0.43155
 Alpha virt. eigenvalues --    0.48183   0.49421   0.51245   0.57128   0.63550
 Alpha virt. eigenvalues --    0.75495   0.76439   0.77143   0.81772   0.90510
 Alpha virt. eigenvalues --    1.01216   1.26075   1.33156   1.33554   1.40785
 Alpha virt. eigenvalues --    1.61047   1.62566   1.67457   1.75020   1.75843
 Alpha virt. eigenvalues --    1.77846   1.87482   2.01749   2.16501   2.17314
 Alpha virt. eigenvalues --    2.25758   2.35176   2.40148   2.54187   2.58183
 Alpha virt. eigenvalues --    2.58921   2.59604   2.63196   2.64920   2.77973
 Alpha virt. eigenvalues --    2.83603   2.99032   3.42991   3.52764   3.58909
 Alpha virt. eigenvalues --    3.88736   4.26634   4.32046  24.69382  25.39541
  Beta  occ. eigenvalues --  -10.51551 -10.45940  -0.95030  -0.61479  -0.61150
  Beta  occ. eigenvalues --   -0.53603  -0.48304  -0.30484
  Beta virt. eigenvalues --    0.03099   0.03569   0.04239   0.06118   0.07865
  Beta virt. eigenvalues --    0.09166   0.09854   0.16034   0.16037   0.18595
  Beta virt. eigenvalues --    0.23288   0.25291   0.36044   0.42110   0.43155
  Beta virt. eigenvalues --    0.48183   0.49421   0.51245   0.57128   0.63550
  Beta virt. eigenvalues --    0.75495   0.76439   0.77143   0.81772   0.90510
  Beta virt. eigenvalues --    1.01216   1.26075   1.33156   1.33554   1.40785
  Beta virt. eigenvalues --    1.61047   1.62566   1.67457   1.75020   1.75843
  Beta virt. eigenvalues --    1.77846   1.87482   2.01749   2.16501   2.17314
  Beta virt. eigenvalues --    2.25758   2.35176   2.40148   2.54187   2.58183
  Beta virt. eigenvalues --    2.58921   2.59604   2.63196   2.64920   2.77973
  Beta virt. eigenvalues --    2.83603   2.99032   3.42991   3.52764   3.58909
  Beta virt. eigenvalues --    3.88736   4.26634   4.32046  24.69382  25.39541
          Condensed to atoms (all electrons):
               1          2          3          4          5          6
     1  C    4.936857   0.568081   0.402953   0.402955  -0.033118  -0.033124
     2  C    0.568081   4.936857  -0.033118  -0.033124   0.402953   0.402955
     3  H    0.402953  -0.033118   0.595719  -0.064028   0.020281  -0.044109
     4  H    0.402955  -0.033124  -0.064028   0.595724  -0.044109   0.020282
     5  H   -0.033118   0.402953   0.020281  -0.044109   0.595719  -0.064028
     6  H   -0.033124   0.402955  -0.044109   0.020282  -0.064028   0.595724
          Atomic-Atomic Spin Densities.
               1          2          3          4          5          6
     1  C    0.000000   0.000000  -0.000000   0.000000  -0.000000   0.000000
     2  C    0.000000  -0.000000   0.000000  -0.000000   0.000000  -0.000000
     3  H   -0.000000   0.000000   0.000000  -0.000000   0.000000  -0.000000
     4  H    0.000000  -0.000000  -0.000000  -0.000000   0.000000   0.000000
     5  H   -0.000000   0.000000   0.000000   0.000000  -0.000000  -0.000000
     6  H    0.000000  -0.000000  -0.000000   0.000000  -0.000000   0.000000
 Mulliken charges and spin densities:
               1          2
     1  C   -0.244603  -0.000000
     2  C   -0.244603   0.000000
     3  H    0.122303   0.000000
     4  H    0.122301   0.000000
     5  H    0.122303  -0.000000
     6  H    0.122301   0.000000
 Sum of Mulliken charges =  -0.00000  -0.00000
 Mulliken charges and spin densities with hydrogens summed into heavy atoms:
               1          2
     1  C    0.000000  -0.000000
     2  C   -0.000000   0.000000
 Electronic spatial extent (au):  <R**2>=             64.5962
 Charge=             -0.0000 electrons
 Dipole moment (field-independent basis, Debye):
    X=              0.0000    Y=             -0.0000    Z=              0.0000  Tot=              0.0000
 Quadrupole moment (field-independent basis, Debye-Ang):
   XX=            -12.6352   YY=            -12.5000   ZZ=            -13.5273
   XY=              0.0000   XZ=             -0.0000   YZ=             -0.0000
 Traceless Quadrupole moment (field-independent basis, Debye-Ang):
   XX=              0.2523   YY=              0.3875   ZZ=             -0.6398
   XY=              0.0000   XZ=             -0.0000   YZ=             -0.0000
 Octapole moment (field-independent basis, Debye-Ang**2):
  XXX=              0.0000  YYY=              0.0000  ZZZ=             -0.0000  XYY=              0.0000
  XXY=             -0.0000  XXZ=              0.0000  XZZ=             -0.0000  YZZ=              0.0000
  YYZ=              0.0000  XYZ=             -0.0000
 Hexadecapole moment (field-independent basis, Debye-Ang**3):
 XXXX=            -50.1908 YYYY=            -28.1610 ZZZZ=            -13.2153 XXXY=              0.0001
 XXXZ=              0.0000 YYYX=              0.0000 YYYZ=              0.0000 ZZZX=              0.0000
 ZZZY=              0.0000 XXYY=            -12.7974 XXZZ=            -11.0339 YYZZ=             -7.3202
 XXYZ=              0.0000 YYXZ=              0.0000 ZZXY=              0.0000
 N-N= 4.295079135645D+01 E-N=-2.690837350956D+02  KE= 8.161506418498D+01
                          Isotropic Fermi Contact Couplings
        Atom                 a.u.       MegaHertz       Gauss      10(-4) cm-1
     1  C(13)             -0.00000      -0.00000      -0.00000      -0.00000
     2  C(13)              0.00000       0.00000       0.00000       0.00000
     3  H(1)              -0.00000      -0.00000      -0.00000      -0.00000
     4  H(1)              -0.00000      -0.00000      -0.00000      -0.00000
     5  H(1)               0.00000       0.00000       0.00000       0.00000
     6  H(1)               0.00000       0.00000       0.00000       0.00000
 --------------------------------------------------------
       Center         ----  Spin Dipole Couplings  ----
                      3XX-RR        3YY-RR        3ZZ-RR
 --------------------------------------------------------
     1   Atom       -0.000000      0.000000      0.000000
     2   Atom       -0.000000      0.000000      0.000000
     3   Atom        0.000000      0.000000     -0.000000
     4   Atom       -0.000000      0.000000     -0.000000
     5   Atom       -0.000000     -0.000000      0.000000
     6   Atom        0.000000     -0.000000      0.000000
 --------------------------------------------------------
                        XY            XZ            YZ
 --------------------------------------------------------
     1   Atom       -0.000000      0.000000      0.000000
     2   Atom        0.000000     -0.000000      0.000000
     3   Atom        0.000000     -0.000000      0.000000
     4   Atom        0.000000      0.000000     -0.000000
     5   Atom       -0.000000     -0.000000     -0.000000
     6   Atom        0.000000     -0.000000      0.000000
 --------------------------------------------------------


 ---------------------------------------------------------------------------------
              Anisotropic Spin Dipole Couplings in Principal Axis System
 ---------------------------------------------------------------------------------

       Atom             a.u.   MegaHertz   Gauss  10(-4) cm-1        Axes

              Baa    -0.0000    -0.000    -0.000    -0.000  0.8487  0.5276 -0.0370
     1 C(13)  Bbb     0.0000     0.000     0.000     0.000  0.0564 -0.0207  0.9982
              Bcc     0.0000     0.000     0.000     0.000 -0.5259  0.8492  0.0473
 
              Baa    -0.0000    -0.000    -0.000    -0.000  0.7347 -0.6757  0.0606
     2 C(13)  Bbb     0.0000     0.000     0.000     0.000 -0.0605  0.0237  0.9979
              Bcc     0.0000     0.000     0.000     0.000  0.6757  0.7368  0.0234
 
              Baa    -0.0000    -0.000    -0.000    -0.000  0.0077 -0.0074  0.9999
     3 H(1)   Bbb    -0.0000    -0.000    -0.000    -0.000  0.8488 -0.5286 -0.0105
              Bcc     0.0000     0.000     0.000     0.000  0.5287  0.8488  0.0022
 
              Baa    -0.0000    -0.000    -0.000    -0.000  0.9998 -0.0045 -0.0188
     4 H(1)   Bbb    -0.0000    -0.000    -0.000    -0.000  0.0188  0.0100  0.9998
              Bcc     0.0000     0.000     0.000     0.000  0.0043  0.9999 -0.0101
 
              Baa    -0.0000    -0.000    -0.000    -0.000  0.5946  0.8040  0.0040
     5 H(1)   Bbb     0.0000     0.000     0.000     0.000  0.2203 -0.1677  0.9609
              Bcc     0.0000     0.000     0.000     0.000  0.7732 -0.5705 -0.2769
 
              Baa    -0.0000    -0.000    -0.000    -0.000 -0.1579  0.9873 -0.0200
     6 H(1)   Bbb     0.0000     0.000     0.000     0.000  0.0101  0.0218  0.9997
              Bcc     0.0000     0.000     0.000     0.000  0.9874  0.1576 -0.0134
 

 ---------------------------------------------------------------------------------

 No NMR shielding tensors so no spin-rotation constants.
 Leave Link  601 at Tue Nov 19 10:18:06 2024, MaxMem=   536870912 cpu:               1.2 elap:               0.2
 (Enter /home/szhao/Apps/g16/l9999.exe)
 1\1\GINC-NODE01\FOpt\UM062X\6-311+G(d,p)\C2H4\SZHAO\19-Nov-2024\0\\#p 
 opt UM062X/6-311+G** nosymm int=superfine\\Title Card Required\\0,1\C,
 -0.41760936,0.,0.\C,0.41760936,0.,0.\H,-1.1160754181,-0.8608475359,0.0
 000000023\H,-1.1160595422,0.8608588956,0.0000000105\H,1.1160754181,0.8
 608475359,-0.0000000022\H,1.1160595422,-0.8608588956,0.0000000072\\Ver
 sion=ES64L-G16RevA.03\HF=-77.7872022\S2=0.\S2-1=0.\S2A=0.\RMSD=1.128e-
 09\RMSF=1.901e-04\Dipole=0.,0.,0.\Quadrupole=0.1875915,0.2880975,-0.47
 56889,0.000018,0.,0.\PG=C02 [X(C2H4)]\\@


 REALITY IS FOR PEOPLE WHO CAN'T FACE SCIENCE FICTION.
 Job cpu time:       0 days  0 hours  4 minutes 43.3 seconds.
 Elapsed time:       0 days  0 hours  0 minutes 35.9 seconds.
 File lengths (MBytes):  RWF=     10 Int=      0 D2E=      0 Chk=      2 Scr=      1
 Normal termination of Gaussian 16 at Tue Nov 19 10:18:06 2024.
