 running on   28 total cores
 distrk:  each k-point on   28 cores,    1 groups
 distr:  one band on   14 cores,    2 groups
 vasp.6.3.1 04May22 (build Aug 04 2022 13:02:54) complex                        
  
 POSCAR found type information on POSCAR C 
 POSCAR found :  1 types and       2 ions
 scaLAPACK will be used
 -----------------------------------------------------------------------------
|                                                                             |
|           W    W    AA    RRRRR   N    N  II  N    N   GGGG   !!!           |
|           W    W   A  A   R    R  NN   N  II  NN   N  G    G  !!!           |
|           W    W  A    A  R    R  N N  N  II  N N  N  G       !!!           |
|           W WW W  AAAAAA  RRRRR   N  N N  II  N  N N  G  GGG   !            |
|           WW  WW  A    A  R   R   N   NN  II  N   NN  G    G                |
|           W    W  A    A  R    R  N    N  II  N    N   GGGG   !!!           |
|                                                                             |
|     For optimal performance we recommend to set                             |
|       NCORE = 2 up to number-of-cores-per-socket                            |
|     NCORE specifies how many cores store one orbital (NPAR=cpu/NCORE).      |
|     This setting can greatly improve the performance of VASP for DFT.       |
|     The default, NCORE=1 might be grossly inefficient on modern             |
|     multi-core architectures or massively parallel machines. Do your        |
|     own testing! More info at https://www.vasp.at/wiki/index.php/NCORE      |
|     Unfortunately you need to use the default for GW and RPA                |
|     calculations (for HF NCORE is supported but not extensively tested      |
|     yet).                                                                   |
|                                                                             |
 -----------------------------------------------------------------------------

 LDA part: xc-table for Pade appr. of Perdew
 POSCAR, INCAR and KPOINTS ok, starting setup
 FFT: planning ... GRIDC
 FFT: planning ... GRID_SOFT
 FFT: planning ... GRID
 WAVECAR not read
 WARNING: random wavefunctions but no delay for mixing, default for NELMDL
 entering main loop
       N       E                     dE             d eps       ncg     rms          rms(c)
DAV:   1     0.451355921429E+02    0.45136E+02   -0.29621E+03  1808   0.702E+02
DAV:   2    -0.107251097040E+02   -0.55861E+02   -0.50183E+02  2912   0.111E+02
DAV:   3    -0.146362872051E+02   -0.39112E+01   -0.38898E+01  2432   0.457E+01
DAV:   4    -0.146870272545E+02   -0.50740E-01   -0.50740E-01  3072   0.549E+00
DAV:   5    -0.146871389710E+02   -0.11172E-03   -0.11172E-03  2440   0.240E-01    0.278E+00
DAV:   6    -0.146393025702E+02    0.47836E-01   -0.47456E-02  2368   0.146E+00    0.169E+00
DAV:   7    -0.146175162188E+02    0.21786E-01   -0.86462E-02  2504   0.200E+00    0.176E-01
DAV:   8    -0.146171961127E+02    0.32011E-03   -0.18061E-03  2576   0.333E-01    0.467E-02
DAV:   9    -0.146170133945E+02    0.18272E-03   -0.15909E-04  2608   0.114E-01    0.258E-02
DAV:  10    -0.146170493361E+02   -0.35942E-04   -0.11294E-04  2336   0.576E-02    0.144E-02
DAV:  11    -0.146171364619E+02   -0.87126E-04   -0.23351E-05  2040   0.249E-02    0.113E-02
DAV:  12    -0.146171886634E+02   -0.52201E-04   -0.55788E-05  1896   0.342E-02    0.472E-03
DAV:  13    -0.146172110625E+02   -0.22399E-04   -0.50437E-06  2328   0.132E-02    0.292E-03
DAV:  14    -0.146173440488E+02   -0.13299E-03   -0.14902E-05  2624   0.148E-02    0.155E-03
DAV:  15    -0.146173750301E+02   -0.30981E-04   -0.23444E-06  2296   0.569E-03    0.142E-03
DAV:  16    -0.146173943068E+02   -0.19277E-04   -0.16561E-06  2088   0.554E-03    0.223E-04
DAV:  17    -0.146173953216E+02   -0.10148E-05   -0.36947E-08  2656   0.102E-03    0.186E-04
DAV:  18    -0.146173970035E+02   -0.16819E-05   -0.96618E-08  1960   0.104E-03    0.263E-05
DAV:  19    -0.146173970576E+02   -0.54109E-07   -0.23644E-09  2448   0.171E-04    0.178E-05
DAV:  20    -0.146173970834E+02   -0.25808E-07   -0.37502E-10  2016   0.868E-05    0.447E-06
DAV:  21    -0.146173970857E+02   -0.22645E-08   -0.39918E-11  2432   0.265E-05
   1 F= -.14743759E+02 E0= -.14743508E+02  d E =-.501501E-03
