Title Card Required                                                     
FOpt      UM062X                                                      6-311+G(d,p)        
Number of atoms                            I                4
Info1-9                                    I   N=           9
          13          13           0           0           0         100
           2          18        -502
Full Title                                 C   N=           2
Title Card Required     
Route                                      C   N=           4
#p opt UM062X/6-311+G** nosymm int=superfine    
Charge                                     I                1
Multiplicity                               I                2
Number of electrons                        I               13
Number of alpha electrons                  I                7
Number of beta electrons                   I                6
Number of basis functions                  I               56
Number of independent functions            I               56
Number of point charges in /Mol/           I                0
Number of translation vectors              I                0
Atomic numbers                             I   N=           4
           6           6           1           1
Nuclear charges                            R   N=           4
  6.00000000E+00  6.00000000E+00  1.00000000E+00  1.00000000E+00
Current cartesian coordinates              R   N=          12
 -1.70254238E+00  0.00000000E+00  0.00000000E+00  1.70254238E+00  0.00000000E+00
  0.00000000E+00 -2.41400618E+00 -1.92476369E+00 -2.61969755E-01  2.69000126E+00
  4.21421099E-01  1.76705353E+00
Number of symbols in /Mol/                 I                0
Force Field                                I                0
Atom Types                                 C   N=           4
                                                
Int Atom Types                             I   N=           4
           0           0           0           0
MM charges                                 R   N=           4
  0.00000000E+00  0.00000000E+00  0.00000000E+00  0.00000000E+00
Integer atomic weights                     I   N=           4
          12          12           1           1
Real atomic weights                        R   N=           4
  1.20000000E+01  1.20000000E+01  1.00782504E+00  1.00782504E+00
Atom fragment info                         I   N=           4
           0           0           0           0
Atom residue num                           I   N=           4
           0           0           0           0
Nuclear spins                              I   N=           4
           0           0           1           1
Nuclear ZEff                               R   N=           4
 -3.60000000E+00 -3.60000000E+00 -1.00000000E+00 -1.00000000E+00
Nuclear ZNuc                               R   N=           4
  6.00000000E+00  6.00000000E+00  1.00000000E+00  1.00000000E+00
Nuclear QMom                               R   N=           4
  0.00000000E+00  0.00000000E+00  0.00000000E+00  0.00000000E+00
Nuclear GFac                               R   N=           4
  0.00000000E+00  0.00000000E+00  2.79284600E+00  2.79284600E+00
MicOpt                                     I   N=           4
          -2          -2          -1          -1
Number of residues                         I                0
Number of secondary structures             I                0
Redundant internal dimensions              I   N=           4
          12           8           4           0
Redundant internal coordinate indices      I   N=          48
           1          -1           0           0           1          -2
           0           0           1          -3           0           0
           2          -1           0           0           2          -2
           0           0           2          -3           0           0
           1           3           0           0           2           4
           0           0           2           1           3          -4
           1           2           4          -4           2           1
           3          -8           1           2           4          -8
Redundant internal coordinates             R   N=          12
 -1.70254238E+00  0.00000000E+00  0.00000000E+00  1.70254238E+00  0.00000000E+00
  0.00000000E+00  2.06870107E+00  2.06764333E+00  3.49439927E+00  4.20280198E+00
  1.92485688E+00  2.73822095E+00
ZRed-IntVec                                I   N=          12
          -1          -1          -1          -1          -1          -1
           0           0           0           0           0           0
ZRed-FPVec                                 R   N=          12
  0.00000000E+00  0.00000000E+00  0.00000000E+00  0.00000000E+00  0.00000000E+00
  0.00000000E+00  0.00000000E+00  0.00000000E+00  0.00000000E+00  0.00000000E+00
  0.00000000E+00  0.00000000E+00
ZRed-Constraint1                           R   N=          12
 -1.70254238E+00  0.00000000E+00  0.00000000E+00  1.70254238E+00  0.00000000E+00
  0.00000000E+00  2.96224026E+00  2.96221014E+00  3.14159265E+00  3.14159265E+00
  3.14159265E+00  3.14159265E+00
ZRed-Constraint2                           R   N=          12
 -1.70254238E+00  0.00000000E+00  0.00000000E+00  1.70254238E+00  0.00000000E+00
  0.00000000E+00  0.00000000E+00  0.00000000E+00  0.00000000E+00  0.00000000E+00
  0.00000000E+00  0.00000000E+00
Number of contracted shells                I               20
Number of primitive shells                 I               38
Pure/Cartesian d shells                    I                0
Pure/Cartesian f shells                    I                0
Highest angular momentum                   I                2
Largest degree of contraction              I                6
Shell types                                I   N=          20
           0          -1          -1          -1          -1          -2
           0          -1          -1          -1          -1          -2
           0           0           0           1           0           0
           0           1
Number of primitives per shell             I   N=          20
           6           3           1           1           1           1
           6           3           1           1           1           1
           3           1           1           1           3           1
           1           1
Shell to atom map                          I   N=          20
           1           1           1           1           1           1
           2           2           2           2           2           2
           3           3           3           3           4           4
           4           4
Primitive exponents                        R   N=          38
  4.56324000E+03  6.82024000E+02  1.54973000E+02  4.44553000E+01  1.30290000E+01
  1.82773000E+00  2.09642000E+01  4.80331000E+00  1.45933000E+00  4.83456000E-01
  1.45585000E-01  4.38000000E-02  6.26000000E-01  4.56324000E+03  6.82024000E+02
  1.54973000E+02  4.44553000E+01  1.30290000E+01  1.82773000E+00  2.09642000E+01
  4.80331000E+00  1.45933000E+00  4.83456000E-01  1.45585000E-01  4.38000000E-02
  6.26000000E-01  3.38650000E+01  5.09479000E+00  1.15879000E+00  3.25840000E-01
  1.02741000E-01  7.50000000E-01  3.38650000E+01  5.09479000E+00  1.15879000E+00
  3.25840000E-01  1.02741000E-01  7.50000000E-01
Contraction coefficients                   R   N=          38
  1.96665025E-03  1.52306019E-02  7.61269097E-02  2.60801033E-01  6.16462078E-01
  2.21006028E-01  1.14660081E-01  9.19999648E-01 -3.03068213E-03  1.00000000E+00
  1.00000000E+00  1.00000000E+00  1.00000000E+00  1.96665025E-03  1.52306019E-02
  7.61269097E-02  2.60801033E-01  6.16462078E-01  2.21006028E-01  1.14660081E-01
  9.19999648E-01 -3.03068213E-03  1.00000000E+00  1.00000000E+00  1.00000000E+00
  1.00000000E+00  2.54938145E-02  1.90373109E-01  8.52161486E-01  1.00000000E+00
  1.00000000E+00  1.00000000E+00  2.54938145E-02  1.90373109E-01  8.52161486E-01
  1.00000000E+00  1.00000000E+00  1.00000000E+00
P(S=P) Contraction coefficients            R   N=          38
  0.00000000E+00  0.00000000E+00  0.00000000E+00  0.00000000E+00  0.00000000E+00
  0.00000000E+00  4.02486927E-02  2.37593957E-01  8.15853851E-01  1.00000000E+00
  1.00000000E+00  1.00000000E+00  0.00000000E+00  0.00000000E+00  0.00000000E+00
  0.00000000E+00  0.00000000E+00  0.00000000E+00  0.00000000E+00  4.02486927E-02
  2.37593957E-01  8.15853851E-01  1.00000000E+00  1.00000000E+00  1.00000000E+00
  0.00000000E+00  0.00000000E+00  0.00000000E+00  0.00000000E+00  0.00000000E+00
  0.00000000E+00  0.00000000E+00  0.00000000E+00  0.00000000E+00  0.00000000E+00
  0.00000000E+00  0.00000000E+00  0.00000000E+00
Coordinates of each shell                  R   N=          60
 -1.70254238E+00  0.00000000E+00  0.00000000E+00 -1.70254238E+00  0.00000000E+00
  0.00000000E+00 -1.70254238E+00  0.00000000E+00  0.00000000E+00 -1.70254238E+00
  0.00000000E+00  0.00000000E+00 -1.70254238E+00  0.00000000E+00  0.00000000E+00
 -1.70254238E+00  0.00000000E+00  0.00000000E+00  1.70254238E+00  0.00000000E+00
  0.00000000E+00  1.70254238E+00  0.00000000E+00  0.00000000E+00  1.70254238E+00
  0.00000000E+00  0.00000000E+00  1.70254238E+00  0.00000000E+00  0.00000000E+00
  1.70254238E+00  0.00000000E+00  0.00000000E+00  1.70254238E+00  0.00000000E+00
  0.00000000E+00 -2.41400618E+00 -1.92476369E+00 -2.61969755E-01 -2.41400618E+00
 -1.92476369E+00 -2.61969755E-01 -2.41400618E+00 -1.92476369E+00 -2.61969755E-01
 -2.41400618E+00 -1.92476369E+00 -2.61969755E-01  2.69000126E+00  4.21421099E-01
  1.76705353E+00  2.69000126E+00  4.21421099E-01  1.76705353E+00  2.69000126E+00
  4.21421099E-01  1.76705353E+00  2.69000126E+00  4.21421099E-01  1.76705353E+00
Num ILSW                                   I              100
ILSW                                       I   N=         100
           1           0           0           0           0           0
           0           0           0           0        4336          -1
           7           0           0           0           0           0
           0           0           0           0           1           0
           1           1           0           0           0           0
           0           0      100000           0          -1           0
           0           0           0           0           0           0
           0           0           0           1           0           0
           0 -2000000000           1           0           0           0
           0           0           4          52           0           0
           0           0          55           0           0           0
           0           0           0           4           0           1
           0           0           0           0           0           0
           0           0           0           0           0           0
           0           0           0           0           0           0
           0           0           0           0           0           0
           0           0           0           0
Num RLSW                                   I               52
RLSW                                       R   N=          52
  1.00000000E+00  1.00000000E+00  1.00000000E+00  1.00000000E+00  5.40000000E-01
  0.00000000E+00  0.00000000E+00  1.00000000E+00  0.00000000E+00  0.00000000E+00
  0.00000000E+00  0.00000000E+00  1.00000000E+00  0.00000000E+00  0.00000000E+00
  0.00000000E+00  0.00000000E+00  1.00000000E+00  0.00000000E+00  0.00000000E+00
  0.00000000E+00  0.00000000E+00  1.00000000E+00  0.00000000E+00  0.00000000E+00
  0.00000000E+00  0.00000000E+00  1.00000000E+00  0.00000000E+00  0.00000000E+00
  0.00000000E+00  0.00000000E+00  1.00000000E+00  0.00000000E+00  0.00000000E+00
  0.00000000E+00  0.00000000E+00  0.00000000E+00  1.00000000E+00  1.00000000E+00
  0.00000000E+00  1.00000000E+00  0.00000000E+00  0.00000000E+00  0.00000000E+00
  0.00000000E+00  0.00000000E+00  0.00000000E+00  0.00000000E+00  0.00000000E+00
  0.00000000E+00  0.00000000E+00
MxBond                                     I                2
NBond                                      I   N=           4
           2           2           1           1
IBond                                      I   N=           8
           2           3           1           4           1           0
           2           0
RBond                                      R   N=           8
  1.00000000E+00  1.00000000E-01  1.00000000E+00  1.00000000E-01  1.00000000E-01
  0.00000000E+00  1.00000000E-01  0.00000000E+00
Virial Ratio                               R      2.007604807743659E+00
SCF Energy                                 R     -7.672398413301380E+01
Total Energy                               R     -7.672398413301380E+01
S**2                                       R      8.990147528901131E-01
S**2 after annihilation                    R      7.508693221000192E-01
RMS Force                                  R      4.310628921590243E-03
RMS Density                                R      2.227030764902953E-09
Job Status                                 I                3
Nuclear derivative order                   I                1
External E-field                           R   N=          35
  0.00000000E+00  0.00000000E+00  0.00000000E+00  0.00000000E+00  0.00000000E+00
  0.00000000E+00  0.00000000E+00  0.00000000E+00  0.00000000E+00  0.00000000E+00
  0.00000000E+00  0.00000000E+00  0.00000000E+00  0.00000000E+00  0.00000000E+00
  0.00000000E+00  0.00000000E+00  0.00000000E+00  0.00000000E+00  0.00000000E+00
  0.00000000E+00  0.00000000E+00  0.00000000E+00  0.00000000E+00  0.00000000E+00
  0.00000000E+00  0.00000000E+00  0.00000000E+00  0.00000000E+00  0.00000000E+00
  0.00000000E+00  0.00000000E+00  0.00000000E+00  0.00000000E+00  0.00000000E+00
IOpCl                                      I                1
IROHF                                      I                0
Alpha Orbital Energies                     R   N=          56
 -1.10047421E+01 -1.09796052E+01 -1.10166676E+00 -9.99306768E-01 -7.94833028E-01
 -6.70569115E-01 -6.53485113E-01 -3.74288834E-01 -3.52169833E-01 -2.11777882E-01
 -1.50109373E-01 -1.13148992E-01 -9.43745256E-02 -8.94974366E-02 -7.35439218E-02
 -5.39051914E-02 -5.17104044E-02 -1.04018186E-02  8.19673976E-03  1.16045697E-02
  2.29137626E-01  2.39118450E-01  3.14829018E-01  3.25274539E-01  3.52455143E-01
  3.59529090E-01  3.71221505E-01  3.92895418E-01  4.85281878E-01  5.53376027E-01
  8.02076099E-01  8.47464496E-01  9.08173880E-01  9.42845413E-01  9.81066999E-01
  1.10649935E+00  1.13476045E+00  1.32448512E+00  1.37393655E+00  1.45776310E+00
  1.54100313E+00  1.62812351E+00  1.68156958E+00  1.80714400E+00  2.14831545E+00
  2.17389581E+00  2.26265855E+00  2.28512939E+00  2.35594146E+00  2.43277420E+00
  2.46078544E+00  2.62287759E+00  2.88291034E+00  3.32696904E+00  2.32426764E+01
  2.33058926E+01
Beta Orbital Energies                      R   N=          56
 -1.09983069E+01 -1.09737887E+01 -1.07557446E+00 -9.76757898E-01 -7.77559396E-01
 -6.35843865E-01 -3.96700270E-01 -3.66631489E-01 -3.13929114E-01 -1.93631266E-01
 -1.55266198E-01 -1.10098998E-01 -9.37042167E-02 -8.61677817E-02 -7.75040409E-02
 -5.46388536E-02 -4.84000928E-02 -7.79044150E-03  8.64258406E-03  1.63386152E-02
  2.21359257E-01  2.40445410E-01  3.16787399E-01  3.23888882E-01  3.52111029E-01
  3.59965809E-01  3.74724815E-01  3.99910792E-01  4.97164649E-01  5.56799335E-01
  8.25985293E-01  8.68951753E-01  9.47403401E-01  9.73138749E-01  9.97808684E-01
  1.11483831E+00  1.16018393E+00  1.34287013E+00  1.38183489E+00  1.47243495E+00
  1.55050306E+00  1.64059530E+00  1.69238590E+00  1.82059506E+00  2.19705035E+00
  2.22850313E+00  2.27422028E+00  2.30220064E+00  2.39875984E+00  2.43191081E+00
  2.46282291E+00  2.67154356E+00  2.93248681E+00  3.35851110E+00  2.32468053E+01
  2.33102543E+01
Alpha MO coefficients                      R   N=        3136
  4.88771303E-03  3.98601947E-03  1.08588951E-04  3.41449108E-05  1.40108300E-05
  1.16445434E-04  9.51737333E-05 -2.20447348E-04 -2.20759654E-06  1.65841755E-03
  8.98901404E-04 -6.38746155E-05 -3.28047591E-05 -5.20650972E-03 -1.59538218E-03
  3.20088411E-04  3.29032602E-04 -1.02853041E-04  2.02146440E-05  1.79215519E-05
 -7.97068735E-05  5.35424721E-05  5.64159878E-01  4.64320888E-01 -2.95268596E-04
  4.02764140E-04  5.33921151E-04  1.03185947E-02  1.02837970E-03  2.76433656E-04
  1.91955254E-03 -5.54181775E-03  1.02568253E-03  1.00079821E-04 -1.63796213E-04
  4.95172759E-03 -2.28530330E-03 -3.10105418E-04 -8.01961879E-04  8.31074066E-04
  8.59604534E-04  3.36907498E-04  5.79685929E-05  1.77824817E-04 -7.98881330E-07
 -5.63818483E-04  6.50108594E-04 -7.93083664E-05 -1.32544447E-04 -1.65915485E-05
  1.84506191E-04 -3.22474819E-03  2.62306070E-03  9.65961810E-04  4.55100411E-04
  1.89489878E-03  5.64085961E-01  4.64440813E-01  7.55290954E-04 -8.66209128E-04
 -2.30340053E-04  1.02137733E-02 -8.93507323E-04 -1.91398700E-03 -1.42117254E-04
 -5.65262638E-03 -9.79936812E-04  1.43689343E-04 -1.01648585E-04  5.00898666E-03
  2.11816460E-03  8.12809277E-04  2.32670406E-04 -5.19317178E-04  8.50611104E-05
  1.94894426E-04 -9.04243989E-04  6.74020458E-04 -4.91192456E-03 -4.08399637E-03
 -1.10352890E-04 -3.39629056E-05 -4.51809499E-05 -5.57978049E-05 -5.10306551E-05
  5.22155482E-05  2.25987050E-04  1.78125347E-03 -9.74254856E-04  2.26644945E-05
  4.63789420E-05 -5.21734948E-03  1.61757089E-03 -3.11566371E-04 -2.83798767E-04
  9.25881067E-05  5.98736873E-05  3.86434915E-05  5.79605655E-05  9.64240458E-06
  1.67513673E-04 -3.04500688E-03  2.48472589E-03 -6.54341396E-04 -2.03679628E-03
 -2.65016073E-04  1.67117360E-05 -5.72541178E-04  6.85402573E-04  1.44457638E-04
  2.27451549E-05  9.83585551E-05 -7.69152803E-02 -1.24810677E-01  2.57481886E-02
 -2.92661228E-02 -9.01022779E-03  3.56898507E-01  5.07128876E-02 -4.08766154E-02
 -1.44908642E-02  2.17078739E-01  1.85053692E-02 -2.03109933E-02 -2.61650777E-03
  8.13802821E-03 -4.41734159E-03 -6.37543097E-03 -3.64896786E-03 -9.16751410E-03
  2.02790717E-03 -9.34160863E-04  6.91562689E-03 -1.96060035E-04 -8.85297768E-02
 -1.44391114E-01 -1.54517347E-02  8.94355181E-03  2.83699770E-02  4.16510935E-01
 -3.54154480E-02  1.28139691E-02  3.91916129E-02  2.57254700E-01 -1.49078278E-02
  2.60530869E-03  1.95235408E-02 -1.34102269E-02  1.25227386E-02  3.95929683E-03
  6.80500888E-03 -1.41487673E-03  8.05348356E-04 -6.83952904E-06  1.04222302E-02
  2.10536808E-03  7.18744919E-02  8.20199878E-02 -1.65003677E-02  6.11988375E-03
  1.31031798E-02  2.39718478E-03  8.18626909E-02  9.46793309E-02 -1.84068756E-02
 -9.03355696E-03 -3.49308854E-03 -1.34349865E-02 -7.90632171E-02 -1.28947655E-01
 -3.92217155E-02 -6.02959896E-02 -2.10959443E-02  3.78102359E-01 -5.68107194E-02
 -9.01473708E-02 -3.34205585E-02  2.60984889E-01 -1.01191183E-02 -3.27172145E-02
 -1.29922091E-02 -8.29182011E-02 -2.75228623E-02 -5.71013289E-04  1.59977654E-03
 -4.93742114E-03  8.39517949E-04  1.28927208E-03 -1.14310664E-02  5.14781025E-03
  6.98559417E-02  1.14490510E-01 -6.30268267E-02 -2.24912694E-02 -5.13106697E-02
 -3.38725760E-01 -9.57500229E-02 -3.45861608E-02 -7.65369849E-02 -2.34791196E-01
 -2.50545409E-02 -1.38419529E-02 -2.61813307E-02  8.22342433E-02 -2.61168662E-02
  1.01646811E-03 -1.39457019E-03 -1.09807987E-02 -6.89678799E-03 -3.02206154E-03
  2.95199703E-03 -8.71661633E-04  1.15482427E-01  1.40099107E-01  7.33889464E-03
  6.06636009E-03  1.72099144E-02  3.02635919E-03 -1.12106136E-01 -1.37430965E-01
 -6.86499923E-03  7.68227666E-03  3.82435468E-03  1.52148449E-02  6.44742990E-03
  1.11203170E-02 -1.31764716E-01 -1.12623962E-01  2.78832065E-03 -3.51078670E-02
 -2.13180051E-01 -1.67630999E-01  7.66574623E-03 -4.21652505E-02 -1.04515201E-01
 -9.22304664E-02  4.46578230E-03 -1.79567137E-03  1.04400529E-02  4.26244362E-04
 -1.67882828E-03 -9.72871673E-04  9.62848910E-03  4.93855329E-03 -2.85046694E-02
  1.05335046E-02  1.81483711E-02  3.06691170E-02  1.40888514E-01  9.04261113E-03
  1.19759080E-01 -9.60019582E-02  2.26650741E-01  9.22691271E-03  1.78610294E-01
 -1.03100452E-01  1.17632832E-01  5.37763960E-03  1.01350842E-01  1.28420782E-02
 -1.47755266E-02  1.53954918E-03  4.89374775E-06  1.89326008E-02  1.28561949E-02
  7.27985419E-03 -9.59171416E-03  1.08214858E-02  1.11994972E-01  1.64233748E-01
  3.13638011E-02  6.05823224E-04  1.09957219E-02  2.96821427E-03  1.14575733E-01
  1.68186302E-01  2.83374308E-02 -3.31474437E-03 -3.81884130E-03 -1.01945569E-02
 -3.84824331E-02 -6.40495727E-02  1.39272492E-02  1.32139068E-01  3.10550993E-02
  2.00224843E-01  2.37151081E-02  2.00333594E-01  5.28120956E-02  2.05842874E-01
  4.67384011E-03  1.38702058E-01  3.67379189E-02 -7.90958488E-02 -3.26038742E-02
 -4.02313548E-03  1.78823225E-03  7.80415350E-03  1.45792950E-02 -7.92182039E-03
  1.29029012E-02  2.44337388E-03  4.48174987E-02  7.54916254E-02 -6.71914062E-02
  4.01829754E-02  1.98565434E-01 -2.45512389E-01 -1.08471949E-01  6.56794945E-02
  3.02848697E-01 -2.41100788E-01 -7.72061215E-02  4.84889913E-02  2.24387018E-01
  8.41749561E-02 -2.83113077E-02  1.72265188E-03 -4.06122153E-03  1.15660101E-02
 -5.91492019E-04  1.00715497E-02  7.43328335E-03 -1.06929309E-02 -6.76056222E-02
 -1.02007956E-01 -3.78783384E-02 -4.74830305E-03 -2.94264954E-03  2.00982185E-04
  7.07350330E-02  1.01071470E-01  2.69010867E-02 -1.07641220E-02 -5.40566951E-04
  8.47493046E-04 -3.44722601E-02 -5.81987035E-02 -1.29349737E-01  1.55841049E-01
 -7.77077299E-02  1.90441995E-01 -2.05641052E-01  2.39761646E-01 -1.24827802E-01
  1.99078581E-01 -1.37307063E-01  1.92302828E-01 -9.84252100E-02 -1.26087724E-02
 -3.10594725E-03 -2.06122026E-03  1.86727419E-03  1.72885210E-02 -6.99409272E-03
 -1.95455766E-03  2.19403998E-03  1.56695316E-02 -6.21567807E-03 -1.09904115E-02
  1.24837710E-01  8.29871622E-02 -1.00280381E-01  4.37862888E-02  1.99896447E-01
  1.36526369E-01 -1.57630808E-01  3.07459597E-02  1.36677640E-01  1.08063489E-01
 -1.31826979E-01  8.71185738E-03 -8.24372186E-03 -3.18854748E-04  2.58761101E-04
 -2.79957210E-03  1.12319274E-02  6.90603759E-04 -7.70405310E-03 -1.21755916E-02
 -3.54900703E-02 -4.75411927E-02 -1.21270210E-02 -1.13100339E-02  3.67542226E-03
 -5.59187228E-03  1.06227419E-03  8.46400198E-03  1.08668103E-02  7.50094713E-03
  4.99034934E-03 -6.09249542E-03  1.61925624E-02  2.72232226E-02  5.46025538E-02
 -9.08005318E-02  2.11122762E-03 -8.15553325E-02  9.03175995E-02 -1.29259705E-01
  3.37427919E-03 -1.76346038E-01  8.56870337E-02 -9.39275062E-02  6.69210405E-03
 -3.78025801E-02  4.56595786E-03 -1.46753312E-02  1.70771789E-03 -6.07798004E-03
 -3.90452850E-03  3.99748790E-03 -5.07697614E-03  2.05445309E-02  5.80448004E-03
  9.13052490E-03 -4.32099633E-02  2.63160813E-01 -1.82350353E-02 -2.23623128E-02
 -7.25320369E-02  4.24554193E-01 -3.18877383E-02 -6.06123624E-02 -6.22412382E-02
  4.14760150E-01 -4.14098595E-02 -1.57183995E-02 -5.93617553E-03  5.14838986E-02
 -5.47884151E-03 -5.99773356E-03 -1.54649461E-04  1.02027456E-02 -5.03586931E-03
  2.44818644E-03  5.38089064E-02  1.18009003E-01  9.07690401E-02  5.65533686E-03
  3.57047540E-03  1.59417462E-03  9.38394913E-03  2.08180861E-02  1.73095687E-02
 -4.80865295E-03  2.23632935E-02 -4.36676021E-03 -1.02411326E-02 -1.55609085E-02
 -4.13990443E-02  7.28759681E-03  2.62258635E-01  3.55947392E-02 -6.68689790E-02
  1.06999916E-02  4.17055223E-01  8.97012425E-02 -5.94003496E-02  7.24299392E-05
  4.36584602E-01  4.12504530E-02 -3.94080012E-03 -1.38772578E-03  6.53247739E-02
 -1.17318809E-02  6.71608800E-03 -1.55520676E-02 -2.35575485E-03  4.56223744E-03
 -9.71342505E-03 -1.65637727E-02  4.44408138E-02  2.34178606E-02 -7.79836610E-02
  5.01385416E-02  7.48526475E-02  3.91956871E-02 -1.12141831E-01  1.40906146E-01
  8.41911996E-02  5.02360214E-02 -7.35310638E-02  2.25261418E-02  9.52030341E-03
  9.44195116E-03 -1.33401590E-02 -4.56216722E-03 -2.62572806E-02 -2.42907683E-03
 -2.69167108E-03 -8.11351338E-04 -9.06330097E-03 -1.75615718E-02 -1.78412210E-02
 -5.25102865E-03 -3.15983014E-03  2.31224265E-02 -4.44517226E-02 -1.10385116E-01
 -9.84207788E-02  5.68838209E-03  3.92988762E-03  3.42404203E-04  4.81456279E-02
  8.14477646E-02 -2.02955581E-01  2.31715782E-02 -9.20540212E-03 -2.50754265E-01
 -3.23948650E-01  4.63252740E-02 -1.50916324E-02 -7.16296433E-01 -5.56714243E-01
  9.47261672E-02 -1.51589990E-02 -1.10342772E+00 -5.64233363E-01 -4.38279471E-02
  1.10571195E-02 -1.45961411E-02  8.58742105E-03  1.47819993E-03  2.42947205E-02
  1.43445451E-02 -5.14554841E-02 -8.74936929E-02 -1.81377749E-01  5.83123987E-03
  3.93732515E-02  2.70706654E-01 -2.88424049E-01  9.10731865E-03  7.18026509E-02
  7.74430475E-01 -5.04428180E-01  2.81609970E-02  1.43168535E-01  1.12138025E+00
 -5.84741982E-01  2.07828411E-02 -3.33698603E-02  1.71459882E-02 -1.12351186E-02
 -1.45543136E-03 -3.30472549E-02 -7.40312802E-03  1.91386649E-02  8.46988825E-02
  1.58416664E-01 -2.29396831E-02  5.12109019E-03 -1.33379654E-03 -3.32385703E-02
 -1.22279385E-01 -2.20566324E-01 -2.24490225E-02  9.53834245E-04  7.59064825E-03
  2.97051516E-02  5.05561564E-02  2.10313820E-02  4.27802374E-02 -5.13779703E-03
 -1.61998708E-01  1.90757345E-02  9.27866876E-02 -9.46263428E-03 -5.98826458E-01
  7.02884831E-02  1.01774728E-01 -1.14494554E-02  8.58582864E-01  1.83883232E-02
 -3.04152100E-01 -6.03689106E-02  8.47284895E-03 -3.38153411E-03 -2.41581600E-03
 -4.94853093E-03 -1.78536577E-03  2.81458776E-02  4.83416986E-02 -3.75099832E-02
  2.58984653E-03 -3.88553744E-02 -1.60238843E-01 -4.93123411E-02 -1.82082162E-04
 -8.70841566E-02 -5.60484993E-01 -1.27144823E-01  8.96247963E-03 -9.54869844E-02
  7.46079030E-01  8.76240417E-02  5.50148726E-02  3.12891209E-01  2.70072121E-03
 -4.22411943E-03 -2.82478272E-03 -1.25055629E-02 -4.36551470E-03  3.52998481E-03
  1.17455702E-01 -1.72810861E-02  4.42230229E-04 -1.15002196E-02 -1.01381936E-03
  6.28347402E-04  1.24296067E-01 -3.42258495E-02 -7.27785029E-04  1.80637848E-03
  1.12847880E-02  6.36301725E-05  1.86000653E-04  9.48735354E-02  7.10513498E-02
  3.13974826E-02 -2.09723392E-03  1.38821845E-01  1.11796565E-01  4.34592152E-02
 -7.96709555E-02  3.82678799E-01  2.49184919E-01  1.00173418E-01  8.02607321E-01
  5.12153455E-02 -4.58036135E-01 -1.20551866E-01  7.18071682E-03  3.55645315E-03
 -4.17546745E-03 -5.35131747E-03 -6.69833175E-05  1.38949037E-03  2.26004841E-03
  9.83974594E-02  4.06669874E-02  6.41133514E-02 -4.52410585E-03  1.46349823E-01
  5.57383936E-02  9.83187711E-02  3.70219672E-02  4.00011774E-01  1.32687526E-01
  2.31160353E-01 -8.00195331E-01 -8.25583595E-02 -2.60397395E-01 -5.07828380E-01
 -2.91390865E-03  9.05100835E-04  3.97755066E-03  8.80374819E-03 -4.28574531E-03
  2.80300855E-03  1.05689986E-01  1.75978625E-01  2.90106667E-03 -1.60699789E-02
 -2.95012417E-03  9.30419740E-04 -1.08507108E-01 -1.75220898E-01 -4.60363447E-04
 -5.60656473E-03 -1.67264899E-02 -7.04335323E-03 -1.23155582E-02 -3.08953608E-03
  4.31471221E-02 -5.78706827E-02  4.40323586E-02  7.85133678E-03  4.76481123E-02
 -7.18056630E-02  1.25554679E-01 -1.26205469E-02  1.52745363E-01 -1.77643208E-01
 -3.70897823E-01  2.83009861E-02 -3.50198224E-01  4.24421953E-01  2.55539116E-03
 -7.34506348E-03  2.55213510E-03  5.21713935E-03  5.75462546E-03 -7.57476201E-03
 -1.33594358E-02  1.57048284E-02  4.98059381E-02 -6.11364151E-02  5.34277179E-02
  9.50893677E-03  6.04575391E-02 -6.79877114E-02  9.26223271E-02  4.83965833E-02
  1.51789288E-01 -2.22642852E-01 -1.85264675E-01 -2.32091256E-01 -4.31804178E-01
  5.12118504E-01 -5.01241067E-03  8.93480117E-03  1.40273131E-03  2.02546409E-03
 -4.88691073E-03 -2.93839796E-03  2.15613708E-02 -4.82828382E-03 -5.92538457E-04
 -5.50746959E-03  3.22032674E-03  1.73757071E-03  3.68606339E-02  6.78588765E-02
  7.38450796E-04 -3.14468563E-03  6.46419884E-03 -4.44857284E-03 -7.83547476E-03
 -1.03857234E-01  1.89294309E-02  3.50753052E-02  4.22859058E-02 -1.45209203E-01
  1.58829657E-02  5.51286674E-02 -2.19464018E-02 -4.11527642E-01  9.75126938E-02
  1.02613947E-01  1.02078816E+00  9.18814474E-01 -5.87742881E-02 -3.63413848E-01
 -4.93526351E-03  6.47223576E-03 -1.54232532E-03  1.07927824E-02  1.05522230E-02
 -1.45160728E-03 -2.00780820E-03 -1.03180501E-01  5.16033387E-02  1.93726675E-02
 -1.46595214E-02 -1.44903224E-01  7.04792007E-02  1.95120488E-02  1.77921658E-01
 -4.01363749E-01  1.63230200E-01  9.28559787E-02 -1.06864482E+00  1.14898027E+00
 -5.25174396E-01 -2.33215479E-02  3.22692623E-03 -9.90142732E-03  1.61416807E-03
 -6.69283263E-03 -6.76624679E-03  3.69319768E-04  7.79961577E-03  2.42988545E-02
 -1.30935231E-03  5.52656765E-03  1.30495850E-04 -1.00552443E-02 -2.84975740E-02
 -7.58544361E-02  2.43532927E-03 -1.11244309E-03  4.42817508E-03 -5.71041671E-03
 -9.53566633E-03  5.21339112E-02  1.16852288E-02  1.40269010E-02  2.26874917E-02
  7.92373107E-02  6.90485947E-03  1.98636375E-02  2.74166981E-01  1.52693819E-01
  5.99971488E-02  5.04732213E-02  4.67295919E-01 -1.08251338E+00 -5.18057747E-01
 -2.91662823E-01 -1.01537191E-02 -1.60794074E-04 -8.10905444E-05  2.66648191E-02
 -1.79875493E-03 -5.01720847E-03 -8.78210066E-03 -3.84541314E-02 -1.48735722E-02
 -1.93887128E-02  3.15946144E-02 -6.19280645E-02 -2.06651625E-02 -1.45659000E-02
  1.75588970E-01 -9.30648875E-02 -6.30605215E-02 -1.37634810E-01 -3.91906610E-01
  1.13125128E+00  4.12146049E-01  2.71586537E-01 -1.38502221E-02  2.71773182E-03
  6.52632063E-04  2.47397590E-02  3.10177749E-03 -1.43654158E-02 -1.45769025E-02
 -5.01187130E-02 -1.63846819E-02  5.60425247E-04 -5.93510524E-04  4.34703117E-03
  3.25999273E-02  2.43173536E-01  1.73788115E-02  9.23129713E-04 -1.92141710E-03
  1.42731684E-03  2.23187589E-03  1.92183243E-02 -5.13246268E-02 -7.91892805E-02
 -9.81759068E-03  2.19747852E-02 -7.24458964E-02 -1.09354729E-01  8.00676268E-02
  5.12436737E-02 -2.14507806E-01 -2.67895751E-01  7.67074871E-01 -2.30224722E-01
  7.20495409E-01  1.24250411E+00 -6.74107804E-04 -4.21319294E-03  4.21315262E-03