Title Card Required                                                     
FOpt      UM062X                                                      6-311+G(d,p)        
Number of atoms                            I                4
Info1-9                                    I   N=           9
          13          13           0           0           0         110
           2          18        -502
Full Title                                 C   N=           2
Title Card Required     
Route                                      C   N=           4
#p opt UM062X/6-311+G** nosymm int=superfine    
Charge                                     I                1
Multiplicity                               I                2
Number of electrons                        I               13
Number of alpha electrons                  I                7
Number of beta electrons                   I                6
Number of basis functions                  I               56
Number of independent functions            I               56
Number of point charges in /Mol/           I                0
Number of translation vectors              I                0
Atomic numbers                             I   N=           4
           6           6           1           1
Nuclear charges                            R   N=           4
  6.00000000E+00  6.00000000E+00  1.00000000E+00  1.00000000E+00
Current cartesian coordinates              R   N=          12
 -1.47945061E+00  0.00000000E+00  0.00000000E+00  1.47945061E+00  0.00000000E+00
  0.00000000E+00 -3.54234129E+00 -2.94410954E-08 -1.24667816E-07  3.54233128E+00
 -3.77914250E-08 -1.19637405E-07
Number of symbols in /Mol/                 I                0
Force Field                                I                0
Atom Types                                 C   N=           4
                                                
Int Atom Types                             I   N=           4
           0           0           0           0
MM charges                                 R   N=           4
  0.00000000E+00  0.00000000E+00  0.00000000E+00  0.00000000E+00
Integer atomic weights                     I   N=           4
          12          12           1           1
Real atomic weights                        R   N=           4
  1.20000000E+01  1.20000000E+01  1.00782504E+00  1.00782504E+00
Atom fragment info                         I   N=           4
           0           0           0           0
Atom residue num                           I   N=           4
           0           0           0           0
Nuclear spins                              I   N=           4
           0           0           1           1
Nuclear ZEff                               R   N=           4
 -3.60000000E+00 -3.60000000E+00 -1.00000000E+00 -1.00000000E+00
Nuclear ZNuc                               R   N=           4
  6.00000000E+00  6.00000000E+00  1.00000000E+00  1.00000000E+00
Nuclear QMom                               R   N=           4
  0.00000000E+00  0.00000000E+00  0.00000000E+00  0.00000000E+00
Nuclear GFac                               R   N=           4
  0.00000000E+00  0.00000000E+00  2.79284600E+00  2.79284600E+00
MicOpt                                     I   N=           4
          -2          -2          -1          -1
Number of residues                         I                0
Number of secondary structures             I                0
Redundant internal dimensions              I   N=           4
          12           8           4           0
Redundant internal coordinate indices      I   N=          48
           1          -1           0           0           1          -2
           0           0           1          -3           0           0
           2          -1           0           0           2          -2
           0           0           2          -3           0           0
           1           3           0           0           2           4
           0           0           2           1           3          -4
           1           2           4          -4           2           1
           3          -8           1           2           4          -8
Redundant internal coordinates             R   N=          12
 -1.47945061E+00  0.00000000E+00  0.00000000E+00  1.47945061E+00  0.00000000E+00
  0.00000000E+00  2.06289067E+00  2.06288067E+00  3.14159271E+00  3.14159260E+00
  3.14159265E+00  3.14159267E+00
ZRed-IntVec                                I   N=          12
          -1          -1          -1          -1          -1          -1
           0           0           0           0           0           0
ZRed-FPVec                                 R   N=          12
  0.00000000E+00  0.00000000E+00  0.00000000E+00  0.00000000E+00  0.00000000E+00
  0.00000000E+00  0.00000000E+00  0.00000000E+00  0.00000000E+00  0.00000000E+00
  0.00000000E+00  0.00000000E+00
ZRed-Constraint1                           R   N=          12
 -1.47945061E+00  0.00000000E+00  0.00000000E+00  1.47945061E+00  0.00000000E+00
  0.00000000E+00  2.57408466E+00  2.57405847E+00  3.14159265E+00  3.14159265E+00
  3.14159265E+00  3.14159265E+00
ZRed-Constraint2                           R   N=          12
 -1.47945061E+00  0.00000000E+00  0.00000000E+00  1.47945061E+00  0.00000000E+00
  0.00000000E+00  0.00000000E+00  0.00000000E+00  0.00000000E+00  0.00000000E+00
  0.00000000E+00  0.00000000E+00
Number of contracted shells                I               20
Number of primitive shells                 I               38
Pure/Cartesian d shells                    I                0
Pure/Cartesian f shells                    I                0
Highest angular momentum                   I                2
Largest degree of contraction              I                6
Shell types                                I   N=          20
           0          -1          -1          -1          -1          -2
           0          -1          -1          -1          -1          -2
           0           0           0           1           0           0
           0           1
Number of primitives per shell             I   N=          20
           6           3           1           1           1           1
           6           3           1           1           1           1
           3           1           1           1           3           1
           1           1
Shell to atom map                          I   N=          20
           1           1           1           1           1           1
           2           2           2           2           2           2
           3           3           3           3           4           4
           4           4
Primitive exponents                        R   N=          38
  4.56324000E+03  6.82024000E+02  1.54973000E+02  4.44553000E+01  1.30290000E+01
  1.82773000E+00  2.09642000E+01  4.80331000E+00  1.45933000E+00  4.83456000E-01
  1.45585000E-01  4.38000000E-02  6.26000000E-01  4.56324000E+03  6.82024000E+02
  1.54973000E+02  4.44553000E+01  1.30290000E+01  1.82773000E+00  2.09642000E+01
  4.80331000E+00  1.45933000E+00  4.83456000E-01  1.45585000E-01  4.38000000E-02
  6.26000000E-01  3.38650000E+01  5.09479000E+00  1.15879000E+00  3.25840000E-01
  1.02741000E-01  7.50000000E-01  3.38650000E+01  5.09479000E+00  1.15879000E+00
  3.25840000E-01  1.02741000E-01  7.50000000E-01
Contraction coefficients                   R   N=          38
  1.96665025E-03  1.52306019E-02  7.61269097E-02  2.60801033E-01  6.16462078E-01
  2.21006028E-01  1.14660081E-01  9.19999648E-01 -3.03068213E-03  1.00000000E+00
  1.00000000E+00  1.00000000E+00  1.00000000E+00  1.96665025E-03  1.52306019E-02
  7.61269097E-02  2.60801033E-01  6.16462078E-01  2.21006028E-01  1.14660081E-01
  9.19999648E-01 -3.03068213E-03  1.00000000E+00  1.00000000E+00  1.00000000E+00
  1.00000000E+00  2.54938145E-02  1.90373109E-01  8.52161486E-01  1.00000000E+00
  1.00000000E+00  1.00000000E+00  2.54938145E-02  1.90373109E-01  8.52161486E-01
  1.00000000E+00  1.00000000E+00  1.00000000E+00
P(S=P) Contraction coefficients            R   N=          38
  0.00000000E+00  0.00000000E+00  0.00000000E+00  0.00000000E+00  0.00000000E+00
  0.00000000E+00  4.02486927E-02  2.37593957E-01  8.15853851E-01  1.00000000E+00
  1.00000000E+00  1.00000000E+00  0.00000000E+00  0.00000000E+00  0.00000000E+00
  0.00000000E+00  0.00000000E+00  0.00000000E+00  0.00000000E+00  4.02486927E-02
  2.37593957E-01  8.15853851E-01  1.00000000E+00  1.00000000E+00  1.00000000E+00
  0.00000000E+00  0.00000000E+00  0.00000000E+00  0.00000000E+00  0.00000000E+00
  0.00000000E+00  0.00000000E+00  0.00000000E+00  0.00000000E+00  0.00000000E+00
  0.00000000E+00  0.00000000E+00  0.00000000E+00
Coordinates of each shell                  R   N=          60
 -1.47945061E+00  0.00000000E+00  0.00000000E+00 -1.47945061E+00  0.00000000E+00
  0.00000000E+00 -1.47945061E+00  0.00000000E+00  0.00000000E+00 -1.47945061E+00
  0.00000000E+00  0.00000000E+00 -1.47945061E+00  0.00000000E+00  0.00000000E+00
 -1.47945061E+00  0.00000000E+00  0.00000000E+00  1.47945061E+00  0.00000000E+00
  0.00000000E+00  1.47945061E+00  0.00000000E+00  0.00000000E+00  1.47945061E+00
  0.00000000E+00  0.00000000E+00  1.47945061E+00  0.00000000E+00  0.00000000E+00
  1.47945061E+00  0.00000000E+00  0.00000000E+00  1.47945061E+00  0.00000000E+00
  0.00000000E+00 -3.54234129E+00 -2.94410954E-08 -1.24667816E-07 -3.54234129E+00
 -2.94410954E-08 -1.24667816E-07 -3.54234129E+00 -2.94410954E-08 -1.24667816E-07
 -3.54234129E+00 -2.94410954E-08 -1.24667816E-07  3.54233128E+00 -3.77914250E-08
 -1.19637405E-07  3.54233128E+00 -3.77914250E-08 -1.19637405E-07  3.54233128E+00
 -3.77914250E-08 -1.19637405E-07  3.54233128E+00 -3.77914250E-08 -1.19637405E-07
Num ILSW                                   I              100
ILSW                                       I   N=         100
           1           0           0           1           2           0
           0           0           0           0        4336          -1
           7           0           0           0           2           0
           0           0           0           0           1           0
           1           1           0           0           0           0
           0           0      100000           0          -1           0
           0           0           0           0           0           0
           0           0           0           1           0           0
           0 -2000000000           1           0           0           0
           0           0           4          52           0           0
           0           0          55           0           0           0
           0           0           0           4           0           1
           0           0           0           0           0           0
           0           0           0           0           0           0
           0           0           0           0           0           0
           0           0           0           0           0           0
           0           0           0           0
Num RLSW                                   I               52
RLSW                                       R   N=          52
  1.00000000E+00  1.00000000E+00  1.00000000E+00  1.00000000E+00  5.40000000E-01
  0.00000000E+00  0.00000000E+00  1.00000000E+00  0.00000000E+00  0.00000000E+00
  0.00000000E+00  0.00000000E+00  1.00000000E+00  0.00000000E+00  0.00000000E+00
  0.00000000E+00  0.00000000E+00  1.00000000E+00  0.00000000E+00  0.00000000E+00
  0.00000000E+00  0.00000000E+00  1.00000000E+00  0.00000000E+00  0.00000000E+00
  0.00000000E+00  0.00000000E+00  1.00000000E+00  0.00000000E+00  0.00000000E+00
  0.00000000E+00  0.00000000E+00  1.00000000E+00  0.00000000E+00  0.00000000E+00
  0.00000000E+00  0.00000000E+00  0.00000000E+00  1.00000000E+00  1.00000000E+00
  0.00000000E+00  1.00000000E+00  0.00000000E+00  0.00000000E+00  0.00000000E+00
  0.00000000E+00  0.00000000E+00  0.00000000E+00  0.00000000E+00  0.00000000E+00
  0.00000000E+00  0.00000000E+00
MxBond                                     I                2
NBond                                      I   N=           4
           2           2           1           1
IBond                                      I   N=           8
           2           3           1           4           1           0
           2           0
RBond                                      R   N=           8
  1.00000000E+00  1.00000000E-01  1.00000000E+00  1.00000000E-01  1.00000000E-01
  0.00000000E+00  1.00000000E-01  0.00000000E+00
Virial Ratio                               R      2.013283965188286E+00
SCF Energy                                 R     -7.679627904340101E+01
Total Energy                               R     -7.679627904340101E+01
S**2                                       R      7.523429542180633E-01
S**2 after annihilation                    R      7.500036948614452E-01
RMS Force                                  R      4.901953423254930E-05
RMS Density                                R      7.601677403018376E-09
Job Status                                 I                1
Nuclear derivative order                   I                1
External E-field                           R   N=          35
  0.00000000E+00  0.00000000E+00  0.00000000E+00  0.00000000E+00  0.00000000E+00
  0.00000000E+00  0.00000000E+00  0.00000000E+00  0.00000000E+00  0.00000000E+00
  0.00000000E+00  0.00000000E+00  0.00000000E+00  0.00000000E+00  0.00000000E+00
  0.00000000E+00  0.00000000E+00  0.00000000E+00  0.00000000E+00  0.00000000E+00
  0.00000000E+00  0.00000000E+00  0.00000000E+00  0.00000000E+00  0.00000000E+00
  0.00000000E+00  0.00000000E+00  0.00000000E+00  0.00000000E+00  0.00000000E+00
  0.00000000E+00  0.00000000E+00  0.00000000E+00  0.00000000E+00  0.00000000E+00
IOpCl                                      I                1
IROHF                                      I                0
Alpha Orbital Energies                     R   N=          56
 -1.09881164E+01 -1.09876167E+01 -1.12869338E+00 -9.87785146E-01 -8.61025961E-01
 -6.56143847E-01 -6.33941445E-01 -3.43685838E-01 -3.23615543E-01 -2.32152540E-01
 -1.42716311E-01 -1.08672752E-01 -1.05672067E-01 -9.36288323E-02 -9.12135131E-02
 -5.24273029E-02 -4.90429038E-02  1.78794178E-02  4.08245606E-02  9.22261575E-02
  2.15925495E-01  3.13670374E-01  3.27389386E-01  3.59397570E-01  3.65658331E-01
  3.98246724E-01  4.45492258E-01  5.04812058E-01  5.50679499E-01  6.98064768E-01
  7.11198256E-01  7.77015750E-01  9.26697240E-01  9.28210374E-01  1.08932536E+00
  1.09616646E+00  1.12981365E+00  1.13103478E+00  1.32077382E+00  1.44068595E+00
  1.44994317E+00  1.59006310E+00  1.90695846E+00  1.92418442E+00  2.16733692E+00
  2.35075678E+00  2.37777349E+00  2.40468360E+00  2.45217553E+00  2.48226318E+00
  2.51198950E+00  2.86579306E+00  2.92628749E+00  3.26385058E+00  2.32051150E+01
  2.36109949E+01
Beta Orbital Energies                      R   N=          56
 -1.09856953E+01 -1.09853363E+01 -1.08743930E+00 -9.70672651E-01 -8.53860480E-01
 -6.12818120E-01 -4.20153763E-01 -3.06557758E-01 -2.65933482E-01 -2.11293596E-01
 -1.53718609E-01 -1.12252110E-01 -1.07981420E-01 -9.71970143E-02 -9.52193948E-02
 -5.08463919E-02 -4.72489661E-02  1.04601880E-02  4.20413394E-02  9.67279622E-02
  2.24524466E-01  3.07590556E-01  3.26797611E-01  3.45117100E-01  3.63104306E-01
  4.08117673E-01  4.28158520E-01  5.09496808E-01  5.62650071E-01  7.28601007E-01
  7.35552307E-01  7.49568231E-01  9.60296798E-01  9.83020953E-01  1.10325313E+00
  1.11355203E+00  1.15754410E+00  1.17974791E+00  1.33959464E+00  1.45576239E+00
  1.46481850E+00  1.60786523E+00  1.92920589E+00  1.93725092E+00  2.19892463E+00
  2.37072738E+00  2.41124652E+00  2.41886735E+00  2.47117465E+00  2.52013604E+00
  2.52984919E+00  2.94470194E+00  2.95911627E+00  3.28025859E+00  2.32156774E+01
  2.36251563E+01
Alpha MO coefficients                      R   N=        3136
  3.99213377E-01  3.28318953E-01  7.63229845E-04  9.60864351E-12  8.88972860E-11
  7.25750933E-03 -2.04322647E-03 -3.38349003E-11 -1.66175784E-10 -3.38637934E-03
  6.28721715E-04  8.32310456E-12  4.64355636E-11 -4.10608644E-04  1.47351756E-03
  5.11173266E-12  3.36649873E-11 -3.43751436E-04  9.28423006E-11 -2.06211393E-05
  6.52118935E-04  2.18901664E-11  3.98898878E-01  3.28060470E-01 -7.63060718E-04
  6.78518218E-12  8.65113296E-11  7.25130302E-03  2.04239488E-03 -3.97080608E-11
 -1.60316760E-10 -3.38069261E-03 -6.34401594E-04  9.87599978E-12  4.45727194E-11
 -4.11708891E-04 -1.47305778E-03  1.42195058E-11  2.88748472E-11 -3.42920602E-04
 -8.81078288E-11 -2.06029996E-05  6.50629990E-04 -2.96164481E-11  1.41176762E-04
 -2.55031380E-03  2.98437404E-03 -1.54360174E-03 -1.94059332E-11 -7.89607192E-11
  1.41074965E-04 -2.54655141E-03  2.98477835E-03  1.54195297E-03 -2.48231618E-11
 -7.56454796E-11 -3.98966237E-01 -3.27899990E-01 -2.16372534E-04 -5.13555726E-12
 -7.56093682E-11 -7.93525962E-03  1.12149909E-03  2.21454377E-11  1.36324211E-10
  7.21401584E-03  7.22744224E-03  4.50148422E-11  1.57235669E-10 -1.17505045E-03
 -5.26882203E-04  9.96486314E-12  4.64990640E-11  1.07112279E-03 -1.76709188E-10
  2.29890337E-05 -1.91847661E-03 -4.58387946E-11  3.99280680E-01  3.28158588E-01
 -2.16974429E-04  2.86332494E-12  7.29899528E-11  7.94102875E-03  1.12317118E-03
 -3.17792725E-11 -1.28356835E-10 -7.21663260E-03  7.22696035E-03 -4.94122335E-11
 -1.55565091E-10  1.17471733E-03 -5.28040130E-04 -1.06262315E-11 -4.57577781E-11
 -1.07140767E-03 -1.70725650E-10 -2.30052594E-05  1.91901467E-03 -5.56079084E-11
 -1.14784861E-04  4.87499298E-03  4.65461583E-04  2.13969219E-03  4.01398936E-11
  1.73226801E-10  1.14877722E-04 -4.87708851E-03 -4.63109330E-04  2.14094607E-03
 -5.37527468E-11 -1.65326971E-10 -8.69930088E-02 -1.41908145E-01  3.34307507E-02
 -4.57743710E-10 -1.19866632E-09  4.02842248E-01  5.46590570E-02 -6.31273501E-10
 -1.48515621E-09  2.38544618E-01  1.13488086E-02 -3.04427964E-10 -7.85085233E-10
 -2.82328327E-03 -2.02150368E-02 -4.48373816E-11 -3.54592487E-10 -6.44384143E-03
  5.06672850E-10 -2.80293396E-03  1.88711218E-02  2.67612970E-10 -8.69934248E-02
 -1.41908823E-01 -3.34300742E-02 -5.41736043E-10 -1.20452999E-09  4.02844034E-01
 -5.46583118E-02 -7.72530481E-10 -1.49664938E-09  2.38545883E-01 -1.13488891E-02
 -3.65186935E-10 -7.85658655E-10 -2.82316983E-03  2.02150101E-02 -1.27545784E-10
 -2.97755914E-10 -6.44388402E-03 -4.80946420E-10 -2.80294695E-03  1.88712313E-02
 -3.03355546E-10  5.58982707E-02  6.63962792E-02 -2.14969482E-02  9.32528586E-03
  6.30208290E-11  3.61834060E-10  5.58992933E-02  6.63972911E-02 -2.14970421E-02
 -9.32542324E-03  8.74776886E-11  3.44349465E-10 -7.05398450E-02 -1.15899333E-01
 -8.88118986E-02 -9.37263402E-10 -3.13624223E-09  3.33509991E-01 -1.21659687E-01
 -1.22661874E-09 -3.99100350E-09  2.54399262E-01 -3.72287525E-02 -7.06736610E-10
 -1.82300875E-09 -1.90638343E-01 -6.38770200E-02 -2.29823275E-10 -1.01006003E-09
 -2.78823901E-03  1.12483549E-09 -2.19468756E-03  1.08663390E-02  5.04541750E-10
  7.05393737E-02  1.15898540E-01 -8.88143516E-02  1.24699509E-09  3.00747323E-09
 -3.33507472E-01 -1.21662991E-01  1.68995815E-09  3.81356394E-09 -2.54397210E-01
 -3.72296187E-02  8.80546425E-10  1.75380545E-09  1.90638305E-01 -6.38767454E-02
  2.46188243E-10  9.98308432E-10  2.78819247E-03  1.09883942E-09  2.19466826E-03
 -1.08662053E-02  5.73534100E-10  1.19515316E-01  1.50888117E-01 -8.02215782E-03
  1.97535586E-02  3.24169694E-10  1.31245977E-09 -1.19516921E-01 -1.50889553E-01
  8.02189576E-03  1.97537520E-02 -4.02627519E-10 -1.26611818E-09  8.52583938E-04
  9.81787920E-04  1.84833273E-01  1.61314595E-09  6.36186656E-09  3.32124187E-03
  2.71166866E-01  2.40831769E-09  9.15676073E-09 -3.02941189E-02  1.19841407E-01
  1.04215677E-09  4.52858029E-09 -7.27721081E-03  2.01799838E-03  2.37811097E-11
  1.50033683E-10 -2.41130751E-03 -3.30414700E-10 -1.77705265E-04  4.66529930E-03
 -1.59551774E-10  8.51798721E-04  9.80468926E-04 -1.84832547E-01  1.97826120E-09
  6.12309627E-09  3.32524711E-03 -2.71165456E-01  2.89196797E-09  8.83431004E-09
 -3.02902503E-02 -1.19840519E-01  1.35013959E-09  4.33499734E-09 -7.28093261E-03
 -2.01668514E-03  8.04593097E-11  1.17597284E-10 -2.41128665E-03  3.01359794E-10
 -1.77733468E-04  4.66534074E-03  2.71852465E-10 -1.25308868E-01 -1.69235345E-01
 -3.76147477E-03 -2.06667265E-02 -3.43918759E-10 -1.43971007E-09 -1.25308011E-01
 -1.69233515E-01 -3.76158824E-03  2.06665123E-02 -4.52901524E-10 -1.38289772E-09
 -1.09622757E-09 -1.90413803E-09 -7.14252405E-09 -6.07485794E-02  1.86852340E-01
  6.06564210E-09 -1.21945234E-08 -9.98169578E-02  3.07020059E-01  5.53720772E-09
 -3.78792368E-09 -7.39730880E-02  2.27528619E-01 -8.67779316E-10  1.65460602E-09
  1.27090214E-03 -3.90906188E-03  3.31674291E-10  2.50263971E-02 -2.09984747E-10
 -3.66383978E-10 -8.13647801E-03 -8.80519747E-10 -1.53354940E-09  7.14329835E-09
 -6.07485987E-02  1.86852400E-01  4.89630543E-09  1.20773918E-08 -9.98170081E-02
  3.07020213E-01  3.65690286E-09  4.69538053E-09 -7.39730955E-02  2.27528642E-01
 -1.26111289E-09 -1.39496847E-09  1.27091406E-03 -3.90909853E-03  2.70916773E-10
 -2.50263797E-02 -2.41916566E-10 -3.49454023E-10  8.13647233E-03 -1.17046248E-09
  2.33852255E-10  3.55728168E-09 -1.12510758E-09 -4.31562985E-03  1.32741438E-02
 -8.35171343E-10  5.33060422E-10  3.16623464E-09  1.02077610E-09 -4.31566479E-03
  1.32742512E-02 -6.14822997E-10 -1.04645613E-09 -4.62882712E-09  1.85576865E-01
  6.03339143E-02  3.20036024E-09 -7.86256428E-09  3.06156818E-01  9.95363267E-02
  3.15192629E-09 -3.31237687E-09  2.26738403E-01  7.37161444E-02 -4.94366594E-10
  5.93943773E-10 -1.02714978E-04 -3.33882907E-05  2.05131574E-10  8.08269551E-03
  6.03228041E-12 -1.27630887E-11  2.48610294E-02 -7.93805179E-10 -1.34966407E-09
  4.70274482E-09  1.85576903E-01  6.03339267E-02  4.13697021E-09  8.08133115E-09
  3.06156923E-01  9.95363608E-02  4.47055457E-09  2.95839998E-09  2.26738400E-01
  7.37161435E-02 -7.01229793E-10 -6.09931203E-10 -1.02752728E-04 -3.34005644E-05
  2.46142303E-10 -8.08269359E-03 -2.77237938E-11  2.63676039E-11 -2.48610235E-02
 -4.38918274E-10  3.27670558E-10  1.80240712E-09 -7.60142148E-10  1.45775591E-02
  4.73938947E-03 -6.56627372E-10  9.64392095E-11  2.02660362E-09  8.62942224E-10
  1.45776742E-02  4.73942687E-03 -6.29798147E-09 -1.07541395E-08  2.37290505E-09
 -6.78655795E-02  2.08743392E-01  3.42697998E-08  2.48969117E-09 -1.07820468E-01
  3.31638057E-01  5.24290251E-08 -1.66926892E-08 -1.23791274E-01  3.80761589E-01
 -4.26094702E-10 -3.49161910E-09 -2.58166852E-02  7.94079273E-02  2.25750518E-09
 -2.38478574E-02 -5.21404351E-10 -3.27116593E-09  7.75328175E-03  6.21376920E-09
  1.06053318E-08  2.97597555E-09  6.78655540E-02 -2.08743314E-01 -3.38296891E-08
  3.49285105E-09  1.07820449E-01 -3.31637998E-01 -5.11135095E-08 -1.56894969E-08
  1.23791221E-01 -3.80761426E-01  6.82200277E-10 -3.39941835E-09  2.58166581E-02
 -7.94078441E-02 -2.18023843E-09 -2.38478944E-02  5.65470723E-10  3.22759844E-09
  7.75329378E-03 -1.24924341E-08 -3.07775231E-08 -2.94283165E-08 -1.02824172E-09
 -7.31458013E-03  2.24984420E-02  1.21559125E-08  3.00137670E-08  2.88519445E-08
 -9.59462652E-10  7.31459410E-03 -2.24984849E-02 -4.69489637E-09 -8.00767479E-09
  2.68625369E-09  2.05714584E-01  6.68808781E-02  2.55305618E-08  3.57703451E-09
  3.24419100E-01  1.05473478E-01  3.98340080E-08 -1.14460498E-08  3.87737339E-01
  1.26059166E-01  6.82608009E-09 -2.48063810E-10  1.02728591E-01  3.33986086E-02
  1.80469250E-09 -8.11628585E-03 -3.59945204E-10 -2.14782180E-09 -2.49643267E-02
  4.77902776E-09  8.14865913E-09  2.18897360E-09 -2.05714528E-01 -6.68808597E-02
 -2.58955233E-08  2.75995026E-09 -3.24419059E-01 -1.05473465E-01 -4.10577168E-08
 -1.23014047E-08 -3.87737214E-01 -1.26059126E-01 -7.10685881E-09 -3.69522633E-10
 -1.02728496E-01 -3.33985779E-02 -1.87264976E-09 -8.11629351E-03  3.96657525E-10
  2.14127464E-09 -2.49643502E-02 -8.74590425E-09 -2.24571138E-08 -2.31594868E-08
 -6.22611184E-10  2.39583459E-02  7.78921311E-03  9.02879834E-09  2.30902429E-08
  2.36672890E-08 -6.86035369E-10 -2.39583937E-02 -7.78922864E-03  6.89446771E-02
  1.17872208E-01 -8.49404562E-02  6.92028965E-09  2.14032393E-08 -3.66350948E-01
 -1.21683079E-01  1.09437147E-08  3.45100242E-08 -9.57396002E-01 -1.95899112E-01
  1.76378418E-08  5.56430614E-08 -2.07388617E+00 -7.15409104E-01  6.21891811E-09
  1.55500719E-08 -3.04783397E-02 -1.12027336E-09  3.52081142E-03  4.31052972E-02
 -7.39833217E-10 -6.89442936E-02 -1.17871578E-01 -8.49422753E-02 -7.27797045E-09
 -2.11624641E-08  3.66349122E-01 -1.21685720E-01 -1.16148934E-08 -3.40694616E-08
  9.57391573E-01 -1.95902084E-01 -1.88598316E-08 -5.47897013E-08  2.07388760E+00
 -7.15405579E-01 -6.27805913E-09 -1.54571937E-08  3.04781472E-02 -1.25800505E-09
 -3.52079665E-03 -4.31050043E-02 -5.13846754E-10  1.14374013E-01  2.96321744E-01
  3.95448997E-01 -9.80309312E-03  1.09856647E-09  3.39060583E-09 -1.14372729E-01
 -2.96317991E-01 -3.95443314E-01 -9.80283067E-03 -1.15432798E-09 -3.35092197E-09
  2.50466287E-02  4.38169079E-02  3.70308961E-02  6.18531121E-10  1.63805894E-09
 -1.60025633E-01  6.80932853E-02  1.19794122E-09  3.98552083E-09 -3.43031125E-01
  7.42982615E-02  1.10105987E-09  2.13603142E-09  9.32297055E-01 -5.38083089E-01
 -4.87833252E-09 -1.87234967E-08  9.17707825E-03 -6.93473924E-10 -3.49365701E-04
 -1.49341849E-02 -1.68082724E-10  2.50470799E-02  4.38177003E-02 -3.70300759E-02
  6.87903544E-10  1.60073784E-09 -1.60028253E-01 -6.80923683E-02  1.43165422E-09
  3.83670303E-09 -3.43039276E-01 -7.42935330E-02  9.78251880E-10  2.18443957E-09
  9.32289704E-01  5.38087035E-01 -7.99550236E-09 -1.70868458E-08  9.17692775E-03
  6.58805773E-10 -3.49343225E-04 -1.49339860E-02  2.31639182E-10 -1.64585261E-02
  6.13459895E-02 -2.23624752E-01 -1.03104768E-02 -2.13700683E-10 -8.83074985E-10
 -1.64580675E-02  6.13478376E-02 -2.23624426E-01  1.03103645E-02 -2.84233273E-10
 -8.42885328E-10 -1.49637285E-03 -1.69915999E-03 -9.51960517E-02 -9.23064413E-10
 -6.54191266E-09 -2.69509511E-02 -1.47808926E-01 -1.34310752E-09 -8.29067372E-09
  2.11292933E-01 -2.94988436E-01 -4.57929844E-09 -2.83776864E-08  3.57452197E-01
  6.91017743E-01  2.80373373E-09  2.79478057E-08  2.50704071E-02 -3.48425698E-09
 -1.93410068E-03 -3.81030626E-02 -6.77390584E-10 -1.49720003E-03 -1.70057972E-03
  9.51929240E-02 -1.48994314E-09 -6.17903994E-09 -2.69468841E-02  1.47804113E-01
 -2.14229227E-09 -7.78731218E-09  2.11312519E-01  2.94980732E-01 -7.06404610E-09
 -2.69024324E-08  3.57445824E-01 -6.91005951E-01  3.39511775E-09  2.74596855E-08
  2.50710359E-02  3.44730173E-09 -1.93416306E-03 -3.81039801E-02  7.04184586E-10
 -5.77546739E-02 -2.03898582E-01 -6.62182370E-01  2.18595855E-02  2.11098975E-10
  8.16848462E-10 -5.77559031E-02 -2.03901950E-01 -6.62191654E-01 -2.18594927E-02
  1.79291504E-10  8.38512884E-10 -9.47939271E-03 -1.57484122E-02  8.62785233E-02
 -7.98979069E-10 -3.01257535E-09  2.97966580E-02  1.39989119E-01 -1.09963378E-09
 -3.75621275E-09  2.88565589E-01  1.51292239E-01 -4.30789306E-09 -1.67019287E-08
 -3.36143557E+00 -1.97737738E+00 -2.12520152E-08 -6.67544134E-08  1.82484538E-02
 -6.74887138E-10 -1.47422023E-03 -2.75521113E-02 -9.25209387E-11  9.47937284E-03
  1.57483902E-02  8.62797579E-02  6.22549181E-10  3.13476290E-09 -2.97968953E-02
  1.39991028E-01  8.58254451E-10  3.91551066E-09 -2.88565209E-01  1.51294835E-01
  4.23333179E-09  1.67807439E-08  3.36144326E+00 -1.97738239E+00  2.40609338E-08
  6.48654165E-08 -1.82481232E-02 -6.14601048E-10  1.47419700E-03  2.75516026E-02
 -2.10984883E-10 -6.08892844E-02 -9.45783453E-02 -4.67269508E-01 -1.26998127E-02
 -5.94125383E-10 -2.23110015E-09  6.08884799E-02  9.45757976E-02  4.67259427E-01
 -1.26999674E-02  6.90532881E-10  2.16696873E-09  3.01545527E-10  5.34922033E-10
  5.11761387E-09  2.27672414E-02 -7.00284330E-02 -1.44787690E-09  8.04339668E-09
  2.67169176E-02 -8.21770945E-02 -9.31121095E-10  8.76234735E-09  7.04325656E-02
 -2.16639345E-01 -6.63687330E-09 -7.20220012E-08 -1.95786744E-01  6.02209022E-01
 -1.19168222E-09 -1.30613618E-02  1.05324788E-10  1.87306219E-09  4.24643802E-03
  3.08444591E-10  5.45063664E-10 -4.94792016E-09  2.27671564E-02 -7.00281714E-02
 -1.44067688E-09 -7.72139470E-09  2.67168024E-02 -8.21767399E-02 -5.27421268E-10
 -1.12569284E-08  7.04323449E-02 -2.16638666E-01  1.83154276E-08  6.02070084E-08
 -1.95785334E-01  6.02204686E-01 -1.22919364E-09  1.30613343E-02  1.21624222E-10
  1.94061612E-09 -4.24642908E-03  2.60532215E-09  5.09274373E-09  1.20907183E-08
 -8.32113632E-10 -1.95308558E-03  6.00737929E-03  2.72010083E-09  6.09076250E-09
  1.54986680E-08  8.12581827E-10 -1.95304595E-03  6.00725740E-03  2.45797412E-10
  4.37942704E-10  2.54813408E-09 -6.95183494E-02 -2.26014059E-02 -1.53916705E-09
  4.09957111E-09 -8.87829545E-02 -2.88646303E-02  1.63057623E-09  5.10541702E-09
 -2.14010010E-01 -6.95776737E-02  2.16649794E-08 -3.52093881E-08  6.00617895E-01
  1.95269421E-01 -5.95736073E-10 -4.27251930E-03  6.84680026E-11  8.90104346E-10
 -1.31416041E-02  2.51839392E-10  4.47047544E-10 -2.65962821E-09 -6.95180726E-02
 -2.26013158E-02 -1.56432287E-09 -4.34270428E-09 -8.87825799E-02 -2.88645085E-02
  8.96553221E-10 -2.65749205E-09 -2.14009241E-01 -6.95774235E-02 -1.96976432E-09
  4.57717415E-08  6.00613308E-01  1.95267930E-01 -5.84809913E-10  4.27251184E-03
  7.14474480E-11  8.44332352E-10  1.31415811E-02  1.21757121E-09  2.25369137E-09
  3.22738882E-09 -4.11035349E-10  5.45252077E-03  1.77269114E-03  1.16238833E-09
  1.45081330E-09  4.62937458E-10  4.31305659E-10  5.45240126E-03  1.77265229E-03
 -2.98023970E-10 -5.09084768E-10  7.51463866E-10 -2.46677751E-02  7.58738629E-02
  1.96135689E-09  1.83515229E-09 -3.07830532E-02  9.46834591E-02  5.86784466E-09
  2.54555295E-08 -8.84414866E-02  2.72030758E-01  3.69733492E-07  1.40666669E-07
  5.80757408E-01 -1.78631047E+00  2.83546545E-10  3.14887462E-03 -5.09092541E-11