Title Card Required                                                     
FOpt      UM062X                                                      6-311+G(d,p)        
Number of atoms                            I                6
Info1-9                                    I   N=           9
          15          15           0           0           0         110
           2          18        -502
Full Title                                 C   N=           2
Title Card Required     
Route                                      C   N=           4
#p opt UM062X/6-311+G** nosymm int=superfine    
Charge                                     I                0
Multiplicity                               I                1
Number of electrons                        I               16
Number of alpha electrons                  I                8
Number of beta electrons                   I                8
Number of basis functions                  I               68
Number of independent functions            I               68
Number of point charges in /Mol/           I                0
Number of translation vectors              I                0
Atomic numbers                             I   N=           6
           6           6           1           1           1           1
Nuclear charges                            R   N=           6
  6.00000000E+00  6.00000000E+00  1.00000000E+00  1.00000000E+00  1.00000000E+00
  1.00000000E+00
Current cartesian coordinates              R   N=          18
 -3.42152867E+00  0.00000000E+00  0.00000000E+00  3.42152867E+00  0.00000000E+00
  0.00000000E+00 -4.76060521E+00 -1.62011060E+00 -6.91117010E-09 -4.76054001E+00
  1.62016691E+00 -6.95303962E-09  4.76060521E+00  1.62011060E+00  6.84979722E-09
  4.76054001E+00 -1.62016691E+00  6.80900964E-09
Number of symbols in /Mol/                 I                0
Force Field                                I                0
Atom Types                                 C   N=           6
                                                            
            
Int Atom Types                             I   N=           6
           0           0           0           0           0           0
MM charges                                 R   N=           6
  0.00000000E+00  0.00000000E+00  0.00000000E+00  0.00000000E+00  0.00000000E+00
  0.00000000E+00
Integer atomic weights                     I   N=           6
          12          12           1           1           1           1
Real atomic weights                        R   N=           6
  1.20000000E+01  1.20000000E+01  1.00782504E+00  1.00782504E+00  1.00782504E+00
  1.00782504E+00
Atom fragment info                         I   N=           6
           0           0           0           0           0           0
Atom residue num                           I   N=           6
           0           0           0           0           0           0
Nuclear spins                              I   N=           6
           0           0           1           1           1           1
Nuclear ZEff                               R   N=           6
 -3.60000000E+00 -3.60000000E+00 -1.00000000E+00 -1.00000000E+00 -1.00000000E+00
 -1.00000000E+00
Nuclear ZNuc                               R   N=           6
  6.00000000E+00  6.00000000E+00  1.00000000E+00  1.00000000E+00  1.00000000E+00
  1.00000000E+00
Nuclear QMom                               R   N=           6
  0.00000000E+00  0.00000000E+00  0.00000000E+00  0.00000000E+00  0.00000000E+00
  0.00000000E+00
Nuclear GFac                               R   N=           6
  0.00000000E+00  0.00000000E+00  2.79284600E+00  2.79284600E+00  2.79284600E+00
  2.79284600E+00
MicOpt                                     I   N=           6
          -2          -2          -1          -1          -1          -1
Number of residues                         I                0
Number of secondary structures             I                0
Redundant internal dimensions              I   N=           4
          20          10           6           4
Redundant internal coordinate indices      I   N=          80
           1          -1           0           0           1          -2
           0           0           1          -3           0           0
           2          -1           0           0           2          -2
           0           0           2          -3           0           0
           1           3           0           0           1           4
           0           0           2           5           0           0
           2           6           0           0           2           1
           3           0           2           1           4           0
           3           1           4           0           1           2
           5           0           1           2           6           0
           5           2           6           0           3           1
           2           5           3           1           2           6
           4           1           2           5           4           1
           2           6
Redundant internal coordinates             R   N=          20
 -3.42152867E+00  0.00000000E+00  0.00000000E+00  3.42152867E+00  0.00000000E+00
  0.00000000E+00  2.10187638E+00  2.10187825E+00  2.10187638E+00  2.10187825E+00
  2.26150846E+00  2.26146748E+00  1.76020937E+00  2.26150846E+00  2.26146748E+00
  1.76020937E+00  3.14159265E+00 -0.00000000E+00  0.00000000E+00  3.14159265E+00
ZRed-IntVec                                I   N=          20
          -1          -1          -1          -1          -1          -1
           0           0           0           0           0           0
           0           0           0           0           0           0
           0           0
ZRed-FPVec                                 R   N=          20
  0.00000000E+00  0.00000000E+00  0.00000000E+00  0.00000000E+00  0.00000000E+00
  0.00000000E+00  0.00000000E+00  0.00000000E+00  0.00000000E+00  0.00000000E+00
  0.00000000E+00  0.00000000E+00  0.00000000E+00  0.00000000E+00  0.00000000E+00
  0.00000000E+00  0.00000000E+00  0.00000000E+00  0.00000000E+00  0.00000000E+00
ZRed-Constraint1                           R   N=          20
 -3.42152867E+00  0.00000000E+00  0.00000000E+00  3.42152867E+00  0.00000000E+00
  0.00000000E+00  2.03694512E+00  2.03669844E+00  2.03694512E+00  2.03669844E+00
  2.00316847E+00  2.00313852E+00  2.27687832E+00  2.00316847E+00  2.00313852E+00
  2.27687832E+00  3.14159265E+00  0.00000000E+00  0.00000000E+00  3.14159265E+00
ZRed-Constraint2                           R   N=          20
 -3.42152867E+00  0.00000000E+00  0.00000000E+00  3.42152867E+00  0.00000000E+00
  0.00000000E+00  0.00000000E+00  0.00000000E+00  0.00000000E+00  0.00000000E+00
  0.00000000E+00  0.00000000E+00  0.00000000E+00  0.00000000E+00  0.00000000E+00
  0.00000000E+00  0.00000000E+00  0.00000000E+00  0.00000000E+00  0.00000000E+00
Number of contracted shells                I               28
Number of primitive shells                 I               50
Pure/Cartesian d shells                    I                0
Pure/Cartesian f shells                    I                0
Highest angular momentum                   I                2
Largest degree of contraction              I                6
Shell types                                I   N=          28
           0          -1          -1          -1          -1          -2
           0          -1          -1          -1          -1          -2
           0           0           0           1           0           0
           0           1           0           0           0           1
           0           0           0           1
Number of primitives per shell             I   N=          28
           6           3           1           1           1           1
           6           3           1           1           1           1
           3           1           1           1           3           1
           1           1           3           1           1           1
           3           1           1           1
Shell to atom map                          I   N=          28
           1           1           1           1           1           1
           2           2           2           2           2           2
           3           3           3           3           4           4
           4           4           5           5           5           5
           6           6           6           6
Primitive exponents                        R   N=          50
  4.56324000E+03  6.82024000E+02  1.54973000E+02  4.44553000E+01  1.30290000E+01
  1.82773000E+00  2.09642000E+01  4.80331000E+00  1.45933000E+00  4.83456000E-01
  1.45585000E-01  4.38000000E-02  6.26000000E-01  4.56324000E+03  6.82024000E+02
  1.54973000E+02  4.44553000E+01  1.30290000E+01  1.82773000E+00  2.09642000E+01
  4.80331000E+00  1.45933000E+00  4.83456000E-01  1.45585000E-01  4.38000000E-02
  6.26000000E-01  3.38650000E+01  5.09479000E+00  1.15879000E+00  3.25840000E-01
  1.02741000E-01  7.50000000E-01  3.38650000E+01  5.09479000E+00  1.15879000E+00
  3.25840000E-01  1.02741000E-01  7.50000000E-01  3.38650000E+01  5.09479000E+00
  1.15879000E+00  3.25840000E-01  1.02741000E-01  7.50000000E-01  3.38650000E+01
  5.09479000E+00  1.15879000E+00  3.25840000E-01  1.02741000E-01  7.50000000E-01
Contraction coefficients                   R   N=          50
  1.96665025E-03  1.52306019E-02  7.61269097E-02  2.60801033E-01  6.16462078E-01
  2.21006028E-01  1.14660081E-01  9.19999648E-01 -3.03068213E-03  1.00000000E+00
  1.00000000E+00  1.00000000E+00  1.00000000E+00  1.96665025E-03  1.52306019E-02
  7.61269097E-02  2.60801033E-01  6.16462078E-01  2.21006028E-01  1.14660081E-01
  9.19999648E-01 -3.03068213E-03  1.00000000E+00  1.00000000E+00  1.00000000E+00
  1.00000000E+00  2.54938145E-02  1.90373109E-01  8.52161486E-01  1.00000000E+00
  1.00000000E+00  1.00000000E+00  2.54938145E-02  1.90373109E-01  8.52161486E-01
  1.00000000E+00  1.00000000E+00  1.00000000E+00  2.54938145E-02  1.90373109E-01
  8.52161486E-01  1.00000000E+00  1.00000000E+00  1.00000000E+00  2.54938145E-02
  1.90373109E-01  8.52161486E-01  1.00000000E+00  1.00000000E+00  1.00000000E+00
P(S=P) Contraction coefficients            R   N=          50
  0.00000000E+00  0.00000000E+00  0.00000000E+00  0.00000000E+00  0.00000000E+00
  0.00000000E+00  4.02486927E-02  2.37593957E-01  8.15853851E-01  1.00000000E+00
  1.00000000E+00  1.00000000E+00  0.00000000E+00  0.00000000E+00  0.00000000E+00
  0.00000000E+00  0.00000000E+00  0.00000000E+00  0.00000000E+00  4.02486927E-02
  2.37593957E-01  8.15853851E-01  1.00000000E+00  1.00000000E+00  1.00000000E+00
  0.00000000E+00  0.00000000E+00  0.00000000E+00  0.00000000E+00  0.00000000E+00
  0.00000000E+00  0.00000000E+00  0.00000000E+00  0.00000000E+00  0.00000000E+00
  0.00000000E+00  0.00000000E+00  0.00000000E+00  0.00000000E+00  0.00000000E+00
  0.00000000E+00  0.00000000E+00  0.00000000E+00  0.00000000E+00  0.00000000E+00
  0.00000000E+00  0.00000000E+00  0.00000000E+00  0.00000000E+00  0.00000000E+00
Coordinates of each shell                  R   N=          84
 -3.42152867E+00  0.00000000E+00  0.00000000E+00 -3.42152867E+00  0.00000000E+00
  0.00000000E+00 -3.42152867E+00  0.00000000E+00  0.00000000E+00 -3.42152867E+00
  0.00000000E+00  0.00000000E+00 -3.42152867E+00  0.00000000E+00  0.00000000E+00
 -3.42152867E+00  0.00000000E+00  0.00000000E+00  3.42152867E+00  0.00000000E+00
  0.00000000E+00  3.42152867E+00  0.00000000E+00  0.00000000E+00  3.42152867E+00
  0.00000000E+00  0.00000000E+00  3.42152867E+00  0.00000000E+00  0.00000000E+00
  3.42152867E+00  0.00000000E+00  0.00000000E+00  3.42152867E+00  0.00000000E+00
  0.00000000E+00 -4.76060521E+00 -1.62011060E+00 -6.91117010E-09 -4.76060521E+00
 -1.62011060E+00 -6.91117010E-09 -4.76060521E+00 -1.62011060E+00 -6.91117010E-09
 -4.76060521E+00 -1.62011060E+00 -6.91117010E-09 -4.76054001E+00  1.62016691E+00
 -6.95303962E-09 -4.76054001E+00  1.62016691E+00 -6.95303962E-09 -4.76054001E+00
  1.62016691E+00 -6.95303962E-09 -4.76054001E+00  1.62016691E+00 -6.95303962E-09
  4.76060521E+00  1.62011060E+00  6.84979722E-09  4.76060521E+00  1.62011060E+00
  6.84979722E-09  4.76060521E+00  1.62011060E+00  6.84979722E-09  4.76060521E+00
  1.62011060E+00  6.84979722E-09  4.76054001E+00 -1.62016691E+00  6.80900964E-09
  4.76054001E+00 -1.62016691E+00  6.80900964E-09  4.76054001E+00 -1.62016691E+00
  6.80900964E-09  4.76054001E+00 -1.62016691E+00  6.80900964E-09
Num ILSW                                   I              100
ILSW                                       I   N=         100
           1           0           0           1           2           0
           0           0           0           0        4336          -1
           7           0           0           0           2           0
           0           0           0           0           1           0
           1           1           0           0           0           0
           0           0      100000           0          -1           0
           0           0           0           0           0           0
           0           0           0           1           0           0
           0 -2000000000           1           0           0           0
           0           0           4          52           0           0
           0           0          55           0           0           0
           0           0           0           6           0           1
           0           0           0           0           0           0
           0           0           0           0           0           0
           0           0           0           0           0           0
           0           0           0           0           0           0
           0           0           0           0
Num RLSW                                   I               52
RLSW                                       R   N=          52
  1.00000000E+00  1.00000000E+00  1.00000000E+00  1.00000000E+00  5.40000000E-01
  0.00000000E+00  0.00000000E+00  1.00000000E+00  0.00000000E+00  0.00000000E+00
  0.00000000E+00  0.00000000E+00  1.00000000E+00  0.00000000E+00  0.00000000E+00
  0.00000000E+00  0.00000000E+00  1.00000000E+00  0.00000000E+00  0.00000000E+00
  0.00000000E+00  0.00000000E+00  1.00000000E+00  0.00000000E+00  0.00000000E+00
  0.00000000E+00  0.00000000E+00  1.00000000E+00  0.00000000E+00  0.00000000E+00
  0.00000000E+00  0.00000000E+00  1.00000000E+00  0.00000000E+00  0.00000000E+00
  0.00000000E+00  0.00000000E+00  0.00000000E+00  1.00000000E+00  1.00000000E+00
  0.00000000E+00  1.00000000E+00  0.00000000E+00  0.00000000E+00  0.00000000E+00
  0.00000000E+00  0.00000000E+00  0.00000000E+00  0.00000000E+00  0.00000000E+00
  0.00000000E+00  0.00000000E+00
MxBond                                     I                3
NBond                                      I   N=           6
           3           3           1           1           1           1
IBond                                      I   N=          18
           2           3           4           1           5           6
           1           0           0           1           0           0
           2           0           0           2           0           0
RBond                                      R   N=          18
  1.00000000E-01  1.00000000E+00  1.00000000E+00  1.00000000E-01  1.00000000E+00
  1.00000000E+00  1.00000000E+00  0.00000000E+00  0.00000000E+00  1.00000000E+00
  0.00000000E+00  0.00000000E+00  1.00000000E+00  0.00000000E+00  0.00000000E+00
  1.00000000E+00  0.00000000E+00  0.00000000E+00
Virial Ratio                               R      2.003215581821883E+00
SCF Energy                                 R     -7.823141132198992E+01
Total Energy                               R     -7.823141132198992E+01
S**2                                       R     -4.263256414560601E-14
S**2 after annihilation                    R      3.730349362740436E-14
RMS Force                                  R      1.395829662453453E-05
RMS Density                                R      1.783420766332544E-09
Job Status                                 I                1
Nuclear derivative order                   I                1
External E-field                           R   N=          35
  0.00000000E+00  0.00000000E+00  0.00000000E+00  0.00000000E+00  0.00000000E+00
  0.00000000E+00  0.00000000E+00  0.00000000E+00  0.00000000E+00  0.00000000E+00
  0.00000000E+00  0.00000000E+00  0.00000000E+00  0.00000000E+00  0.00000000E+00
  0.00000000E+00  0.00000000E+00  0.00000000E+00  0.00000000E+00  0.00000000E+00
  0.00000000E+00  0.00000000E+00  0.00000000E+00  0.00000000E+00  0.00000000E+00
  0.00000000E+00  0.00000000E+00  0.00000000E+00  0.00000000E+00  0.00000000E+00
  0.00000000E+00  0.00000000E+00  0.00000000E+00  0.00000000E+00  0.00000000E+00
IOpCl                                      I                1
IROHF                                      I                0
Alpha Orbital Energies                     R   N=          68
 -1.05918798E+01 -1.05918773E+01 -7.42464423E-01 -7.41556753E-01 -4.58942091E-01
 -4.58137387E-01 -3.10331128E-01 -2.82504025E-01 -7.18953729E-02 -6.45832364E-02
  2.54628153E-02  3.38591110E-02  6.67680735E-02  8.60986727E-02  8.81874888E-02
  1.04528488E-01  1.25399486E-01  1.54443248E-01  1.75887967E-01  1.99722194E-01
  2.09968058E-01  2.26833902E-01  4.53374896E-01  4.71490413E-01  4.82103396E-01
  5.07610427E-01  5.91222786E-01  6.10717594E-01  6.15299025E-01  6.19370031E-01
  6.77399768E-01  7.02518046E-01  7.53174656E-01  8.04905655E-01  1.08819811E+00
  1.12009375E+00  1.12009548E+00  1.15134576E+00  1.20475691E+00  1.20748556E+00
  1.56915130E+00  1.57134848E+00  1.58177655E+00  1.59378098E+00  1.63913645E+00
  1.65484780E+00  1.87423015E+00  1.87423604E+00  1.89517095E+00  1.89557554E+00
  2.14522147E+00  2.14979985E+00  2.36902967E+00  2.37901227E+00  2.47494898E+00
  2.50407790E+00  2.50928594E+00  2.52751905E+00  2.56007391E+00  2.57742980E+00
  2.75787916E+00  2.77918095E+00  3.07693508E+00  3.16272447E+00  3.58747136E+00
  3.59339895E+00  2.37800242E+01  2.37854145E+01
Beta Orbital Energies                      R   N=          68
 -1.05918798E+01 -1.05918773E+01 -7.42464423E-01 -7.41556753E-01 -4.58942091E-01
 -4.58137387E-01 -3.10331128E-01 -2.82504025E-01 -7.18953729E-02 -6.45832364E-02
  2.54628153E-02  3.38591110E-02  6.67680735E-02  8.60986727E-02  8.81874888E-02
  1.04528488E-01  1.25399486E-01  1.54443248E-01  1.75887967E-01  1.99722194E-01
  2.09968058E-01  2.26833902E-01  4.53374896E-01  4.71490413E-01  4.82103396E-01
  5.07610427E-01  5.91222786E-01  6.10717594E-01  6.15299025E-01  6.19370031E-01
  6.77399768E-01  7.02518046E-01  7.53174656E-01  8.04905655E-01  1.08819811E+00
  1.12009375E+00  1.12009548E+00  1.15134576E+00  1.20475691E+00  1.20748556E+00
  1.56915130E+00  1.57134848E+00  1.58177655E+00  1.59378098E+00  1.63913645E+00
  1.65484780E+00  1.87423015E+00  1.87423604E+00  1.89517095E+00  1.89557554E+00
  2.14522147E+00  2.14979985E+00  2.36902967E+00  2.37901227E+00  2.47494898E+00
  2.50407790E+00  2.50928594E+00  2.52751905E+00  2.56007391E+00  2.57742980E+00
  2.75787916E+00  2.77918095E+00  3.07693508E+00  3.16272447E+00  3.58747136E+00
  3.59339895E+00  2.37800242E+01  2.37854145E+01
Alpha MO coefficients                      R   N=        4624
  3.98861416E-01  3.28263550E-01 -1.62845794E-03  3.28964543E-08 -9.36398769E-12
  7.76095605E-03 -9.79049792E-04  1.26773146E-08 -5.16396888E-12 -2.85993458E-03
 -3.30037806E-04  3.81641890E-09 -9.34624426E-13  3.73405321E-04  1.09569859E-03
 -8.27243089E-09  2.66856542E-12 -6.91360196E-04  4.97040953E-12 -2.22278546E-14
 -2.17523297E-04  1.43942824E-08 -3.98861427E-01 -3.28263559E-01 -1.62845798E-03
  3.28964565E-08 -9.19175041E-12 -7.76095626E-03 -9.79049823E-04  1.26773105E-08
 -5.10358419E-12  2.85993466E-03 -3.30037805E-04  3.81642262E-09 -9.10808393E-13
 -3.73405306E-04  1.09569861E-03 -8.27242434E-09  2.60644118E-12  6.91360214E-04
 -4.89809250E-12 -2.10148698E-14  2.17523303E-04 -1.43942846E-08  2.56428043E-04
 -1.90532321E-03  1.48613538E-03 -7.65991413E-04 -9.79305756E-04 -3.97777020E-12
  2.56428556E-04 -1.90530255E-03  1.48611685E-03 -7.65944376E-04  9.79330726E-04
 -4.00087216E-12 -2.56428050E-04  1.90532326E-03 -1.48613543E-03 -7.65991434E-04
 -9.79305782E-04 -3.93867578E-12 -2.56428562E-04  1.90530260E-03 -1.48611690E-03
 -7.65944397E-04  9.79330752E-04 -3.91599208E-12  3.98861864E-01  3.28272228E-01
 -1.57525847E-03  3.33067454E-08 -9.39999723E-12  7.73245632E-03 -1.15902462E-03
  1.14358509E-08 -5.11400062E-12 -2.99613927E-03  2.81849577E-05  7.78860734E-09
 -4.79933969E-13 -5.84892036E-04  6.82780062E-04  1.09122652E-09  4.56888233E-12
 -6.68777433E-04  4.83018706E-12 -2.16659754E-14 -2.22573720E-04  1.38715502E-08
  3.98861853E-01  3.28272219E-01  1.57525843E-03 -3.33067446E-08  9.22821735E-12
  7.73245611E-03  1.15902460E-03 -1.14358517E-08  5.04989165E-12 -2.99613920E-03
 -2.81849665E-05 -7.78861361E-09  4.73754731E-13 -5.84892046E-04 -6.82780033E-04
 -1.09122596E-09 -4.52438208E-12 -6.68777414E-04  4.76219672E-12  2.09817110E-14
 -2.22573714E-04  1.38715460E-08  2.39379276E-04 -1.82644913E-03  1.71023883E-03
 -7.81453666E-04 -9.72063048E-04 -4.05736775E-12  2.39379331E-04 -1.82642491E-03
  1.71018405E-03 -7.81408962E-04  9.72088376E-04 -4.08069247E-12  2.39379269E-04
 -1.82644908E-03  1.71023879E-03  7.81453646E-04  9.72063022E-04  4.01840472E-12
  2.39379324E-04 -1.82642486E-03  1.71018401E-03  7.81408942E-04 -9.72088349E-04
  3.99542151E-12 -7.38426639E-02 -1.18820648E-01 -4.81263541E-02  8.74541601E-07
 -2.50006054E-10  3.24010847E-01 -7.24407086E-02  1.35615788E-06 -3.80329215E-10
  2.23020109E-01 -3.19924512E-02  5.50639154E-07 -1.52602308E-10  5.03237632E-03
 -3.53167291E-03  4.50304458E-08 -3.26268658E-11 -5.24750164E-03  5.00578965E-11
 -3.22495049E-14  2.27324626E-04  8.62779464E-09 -7.38426639E-02 -1.18820648E-01
  4.81263541E-02 -8.74541599E-07  2.46047716E-10  3.24010847E-01  7.24407086E-02
 -1.35615787E-06  3.74203160E-10  2.23020109E-01  3.19924512E-02 -5.50639156E-07
  1.49617955E-10  5.03237632E-03  3.53167291E-03 -4.50304504E-08  3.25613485E-11
 -5.24750164E-03  4.93845721E-11  3.06534777E-14  2.27324626E-04  8.62779702E-09
  8.06159600E-02  9.74190966E-02  6.26832605E-03  6.65132019E-03  1.15682695E-02
  3.40503118E-11  8.06157542E-02  9.74188786E-02  6.26842918E-03  6.65082819E-03
 -1.15685312E-02  3.43098588E-11  8.06159600E-02  9.74190966E-02  6.26832605E-03
 -6.65132019E-03 -1.15682695E-02 -3.38122149E-11  8.06157542E-02  9.74188786E-02
  6.26842918E-03 -6.65082819E-03  1.15685312E-02 -3.35588830E-11 -7.38115508E-02
 -1.18773268E-01 -4.88753829E-02  8.73545510E-07 -2.50983954E-10  3.23761752E-01
 -7.40241798E-02  1.38036775E-06 -3.82303950E-10  2.25143393E-01 -3.34707473E-02
  4.34918645E-07 -1.58575785E-10 -7.48256683E-03 -1.01271997E-02 -4.58248114E-08
 -4.47455532E-13 -5.26232831E-03  5.22291135E-11 -3.56291266E-14  1.84018621E-05
  1.74315453E-08  7.38115508E-02  1.18773268E-01 -4.88753829E-02  8.73545508E-07
 -2.47022749E-10 -3.23761752E-01 -7.40241798E-02  1.38036774E-06 -3.76108412E-10
 -2.25143393E-01 -3.34707473E-02  4.34918642E-07 -1.55804949E-10  7.48256683E-03
 -1.01271997E-02 -4.58247959E-08 -1.64582183E-14  5.26232831E-03 -5.15162767E-11
 -3.40789039E-14 -1.84018621E-05 -1.74315495E-08  8.10155766E-02  9.71354210E-02
  7.72022919E-03  6.69250126E-03  1.14309960E-02  3.34393409E-11  8.10153546E-02
  9.71352215E-02  7.72068084E-03  6.69202460E-03 -1.14312584E-02  3.36954290E-11
 -8.10155766E-02 -9.71354210E-02 -7.72022919E-03  6.69250126E-03  1.14309960E-02
  3.32074715E-11 -8.10153546E-02 -9.71352215E-02 -7.72068084E-03  6.69202460E-03
 -1.14312584E-02  3.29576835E-11 -2.94035627E-08 -4.88064772E-08  2.87399383E-06
  1.45338436E-01 -1.84658497E-12  1.64567064E-07  4.20714485E-06  2.17200137E-01
 -2.69429970E-12  5.72821282E-08  2.32096360E-06  1.16897515E-01 -1.35862114E-12
  4.03309567E-08 -3.15570227E-08 -1.47281781E-03  1.98027802E-14  1.45386442E-08
  3.72570967E-13 -1.71196769E-10 -1.32250688E-06 -3.26827308E-02  2.94035629E-08
  4.88064763E-08  2.87399383E-06  1.45338436E-01  1.80025781E-12 -1.64567059E-07
  4.20714484E-06  2.17200137E-01  2.62606136E-12 -5.72821567E-08  2.32096358E-06
  1.16897515E-01  1.32714423E-12 -4.03310015E-08 -3.15570431E-08 -1.47281781E-03
 -2.00127379E-14 -1.45386451E-08  3.70148288E-13  1.68378929E-10  1.32250688E-06
  3.26827308E-02 -1.03496877E-01 -1.60179243E-01 -8.64226797E-02 -8.19149966E-03
 -2.96703939E-03 -4.27496243E-11  1.03497041E-01  1.60179674E-01  8.64227709E-02
  8.19136962E-03 -2.96743849E-03  4.27847920E-11  1.03496877E-01  1.60179243E-01
  8.64226797E-02 -8.19149966E-03 -2.96703939E-03 -4.21455034E-11 -1.03497041E-01
 -1.60179674E-01 -8.64227709E-02  8.19136962E-03 -2.96743849E-03  4.21107219E-11
 -5.87242330E-08 -9.97453696E-08  3.07227647E-06  1.45698784E-01 -1.85820228E-12
  3.04513007E-07  4.62710316E-06  2.16822541E-01 -2.71184725E-12  5.94436566E-07
  2.16388774E-06  1.18257168E-01 -1.38665746E-12  1.58144781E-07  1.90399077E-08
  1.55560808E-03 -1.84533147E-14  1.12693406E-08  3.69908748E-13 -1.71176908E-10
 -1.33288605E-06 -3.29756201E-02 -5.87242342E-08 -9.97453707E-08 -3.07227647E-06
 -1.45698784E-01 -1.81226973E-12  3.04513013E-07 -4.62710316E-06 -2.16822541E-01
 -2.64566421E-12  5.94436568E-07 -2.16388773E-06 -1.18257168E-01 -1.35456367E-12
  1.58144832E-07 -1.90399211E-08 -1.55560808E-03 -1.65506595E-14  1.12693418E-08
 -3.67922279E-13 -1.68361062E-10 -1.33288604E-06 -3.29756201E-02 -1.03679667E-01
 -1.61668108E-01 -8.21987583E-02 -8.20100343E-03 -2.98297584E-03 -4.28566387E-11
  1.03679698E-01  1.61668026E-01  8.21983637E-02  8.20089384E-03 -2.98331839E-03
  4.28917445E-11 -1.03679667E-01 -1.61668108E-01 -8.21987583E-02  8.20100343E-03
  2.98297584E-03  4.22512010E-11  1.03679698E-01  1.61668026E-01  8.21983637E-02
 -8.20089384E-03  2.98331839E-03 -4.22169804E-11 -3.75934864E-02 -6.25141936E-02
  1.56709662E-01 -3.35336654E-06  7.99701064E-10  1.82605589E-01  2.30710118E-01
 -4.82084271E-06  1.14830127E-09  2.86703393E-01  1.84758856E-01 -4.60824486E-06
  9.96282709E-10  3.70697583E-02  3.93323743E-02 -1.73451956E-06  2.65566284E-10
  1.68412585E-02 -2.41091954E-10  2.19997088E-13 -1.63318523E-02  7.25412342E-07
 -3.75934864E-02 -6.25141936E-02 -1.56709662E-01  3.35336654E-06 -7.86692346E-10
  1.82605589E-01 -2.30710118E-01  4.82084271E-06 -1.12958969E-09  2.86703393E-01
 -1.84758856E-01  4.60824485E-06 -9.79968848E-10  3.70697583E-02 -3.93323743E-02
  1.73451955E-06 -2.63703726E-10  1.68412585E-02 -2.36908838E-10 -2.03846352E-13
 -1.63318523E-02  7.25412343E-07 -4.83044715E-02 -9.38244193E-02 -6.47429839E-02
  7.27772710E-03 -1.01918176E-02  3.41046565E-11 -4.83046962E-02 -9.38247914E-02
 -6.47412044E-02  7.27817062E-03  1.01915253E-02  3.38299826E-11 -4.83044715E-02
 -9.38244193E-02 -6.47429839E-02 -7.27772710E-03  1.01918176E-02 -3.31959166E-11
 -4.83046962E-02 -9.38247914E-02 -6.47412044E-02 -7.27817062E-03 -1.01915253E-02
 -3.34635560E-11 -4.28552772E-02 -7.13506861E-02  1.65673220E-01 -3.17073898E-06
  9.58127173E-10  2.13027592E-01  2.36823206E-01 -4.74161349E-06  1.38877627E-09
  2.96078791E-01  2.16583307E-01 -4.18910150E-06  1.35689456E-09  1.30394302E-01
  9.98032864E-02 -3.53103739E-07  2.45209083E-10  2.06824179E-02 -2.74952402E-10
  2.71022934E-13 -1.96328155E-02  6.50240385E-07  4.28552772E-02  7.13506861E-02
  1.65673220E-01 -3.17073898E-06  9.42792556E-10 -2.13027592E-01  2.36823206E-01
 -4.74161349E-06  1.36634346E-09 -2.96078791E-01  2.16583307E-01 -4.18910149E-06
  1.33645833E-09 -1.30394302E-01  9.98032864E-02 -3.53103732E-07  2.38831579E-10
 -2.06824179E-02  2.70134140E-10  2.52440556E-13  1.96328155E-02 -6.50240389E-07
 -4.99878929E-02 -8.87036007E-02 -7.36946562E-02  8.42478560E-03 -9.36328793E-03
  4.93470384E-11 -4.99875506E-02 -8.87023598E-02 -7.36966939E-02  8.42518527E-03
  9.36293301E-03  4.90924798E-11  4.99878929E-02  8.87036007E-02  7.36946562E-02
  8.42478560E-03 -9.36328793E-03  4.82061399E-11  4.99875506E-02  8.87023598E-02
  7.36966939E-02  8.42518527E-03  9.36293301E-03  4.84543903E-11  6.97441263E-11
  1.19156903E-10 -9.80843827E-10  2.05072937E-12  1.57261502E-01 -4.36023094E-10
 -1.51744347E-09  3.45733229E-12  2.48991339E-01 -2.44292467E-11 -1.79187127E-09
  5.49556019E-12  2.91413551E-01 -1.18519322E-09 -2.28865858E-09  5.18575677E-12
  1.75144427E-01 -2.02237974E-10 -1.66805026E-02  3.30960202E-07  1.24650012E-10
 -5.35406563E-13 -7.01324574E-11 -1.19805156E-10 -9.69189589E-10 -1.96364357E-12
  1.57261502E-01  4.38045544E-10 -1.49770815E-09 -3.30406531E-12  2.48991339E-01
  2.67819280E-11 -1.77406122E-09 -5.27821273E-12  2.91413551E-01  1.18030191E-09
 -2.27437112E-09 -5.07261390E-12  1.75144427E-01  1.99738500E-10  1.66805026E-02
 -3.30960201E-07 -1.23502323E-10 -5.11005048E-13  5.13663043E-11  4.48861395E-11
 -1.80007632E-11 -1.06746089E-10 -4.92776559E-12  1.58503091E-02  5.12194435E-11
  4.45008591E-11 -2.50906707E-11 -1.07092060E-10  5.64746306E-12  1.58503052E-02
 -5.10138441E-11 -4.38816308E-11  2.81301159E-11 -1.05838172E-10 -5.65777999E-12
  1.58503091E-02 -5.11495465E-11 -4.41957519E-11  2.11063809E-11 -1.05504515E-10
  4.96914655E-12  1.58503052E-02 -1.77785057E-11 -2.91519431E-11 -7.82129087E-10
  2.05318467E-12  1.63411760E-01  7.74061772E-11 -1.31150755E-09  3.69966026E-12
  2.59923403E-01  1.29429599E-10 -1.30762559E-09  5.41393945E-12  2.96315725E-01
  2.19146400E-10 -9.48259844E-10  2.81998347E-12  2.30774709E-01 -1.50975778E-10
 -1.93838044E-02  3.42503146E-07  8.07756435E-11 -5.69754346E-13 -1.87658625E-11
 -3.08118279E-11  7.66899620E-10  1.96866475E-12 -1.63411760E-01  8.29770274E-11
  1.28766635E-09  3.55574892E-12 -2.59923403E-01  1.32880485E-10  1.28136506E-09