Title Card Required                                                     
FOpt      UM062X                                                      6-311+G(d,p)        
Number of atoms                            I                6
Info1-9                                    I   N=           9
          15          15           0           0           0         110
           2          18        -502
Full Title                                 C   N=           2
Title Card Required     
Route                                      C   N=           4
#p opt UM062X/6-311+G** nosymm int=superfine    
Charge                                     I                0
Multiplicity                               I                1
Number of electrons                        I               16
Number of alpha electrons                  I                8
Number of beta electrons                   I                8
Number of basis functions                  I               68
Number of independent functions            I               68
Number of point charges in /Mol/           I                0
Number of translation vectors              I                0
Atomic numbers                             I   N=           6
           6           6           1           1           1           1
Nuclear charges                            R   N=           6
  6.00000000E+00  6.00000000E+00  1.00000000E+00  1.00000000E+00  1.00000000E+00
  1.00000000E+00
Current cartesian coordinates              R   N=          18
 -2.99634029E+00  0.00000000E+00  0.00000000E+00  2.99634029E+00  0.00000000E+00
  0.00000000E+00 -4.34565301E+00 -1.61597789E+00  1.03486370E-08 -4.34557615E+00
  1.61604491E+00  2.81742962E-09  4.34565301E+00  1.61597789E+00 -8.18963755E-10
  4.34557615E+00 -1.61604491E+00 -8.35099711E-09
Number of symbols in /Mol/                 I                0
Force Field                                I                0
Atom Types                                 C   N=           6
                                                            
            
Int Atom Types                             I   N=           6
           0           0           0           0           0           0
MM charges                                 R   N=           6
  0.00000000E+00  0.00000000E+00  0.00000000E+00  0.00000000E+00  0.00000000E+00
  0.00000000E+00
Integer atomic weights                     I   N=           6
          12          12           1           1           1           1
Real atomic weights                        R   N=           6
  1.20000000E+01  1.20000000E+01  1.00782504E+00  1.00782504E+00  1.00782504E+00
  1.00782504E+00
Atom fragment info                         I   N=           6
           0           0           0           0           0           0
Atom residue num                           I   N=           6
           0           0           0           0           0           0
Nuclear spins                              I   N=           6
           0           0           1           1           1           1
Nuclear ZEff                               R   N=           6
 -3.60000000E+00 -3.60000000E+00 -1.00000000E+00 -1.00000000E+00 -1.00000000E+00
 -1.00000000E+00
Nuclear ZNuc                               R   N=           6
  6.00000000E+00  6.00000000E+00  1.00000000E+00  1.00000000E+00  1.00000000E+00
  1.00000000E+00
Nuclear QMom                               R   N=           6
  0.00000000E+00  0.00000000E+00  0.00000000E+00  0.00000000E+00  0.00000000E+00
  0.00000000E+00
Nuclear GFac                               R   N=           6
  0.00000000E+00  0.00000000E+00  2.79284600E+00  2.79284600E+00  2.79284600E+00
  2.79284600E+00
MicOpt                                     I   N=           6
          -2          -2          -1          -1          -1          -1
Number of residues                         I                0
Number of secondary structures             I                0
Redundant internal dimensions              I   N=           4
          20          10           6           4
Redundant internal coordinate indices      I   N=          80
           1          -1           0           0           1          -2
           0           0           1          -3           0           0
           2          -1           0           0           2          -2
           0           0           2          -3           0           0
           1           3           0           0           1           4
           0           0           2           5           0           0
           2           6           0           0           2           1
           3           0           2           1           4           0
           3           1           4           0           1           2
           5           0           1           2           6           0
           5           2           6           0           3           1
           2           5           3           1           2           6
           4           1           2           5           4           1
           2           6
Redundant internal coordinates             R   N=          20
 -2.99634029E+00  0.00000000E+00  0.00000000E+00  2.99634029E+00  0.00000000E+00
  0.00000000E+00  2.10523855E+00  2.10524074E+00  2.10523855E+00  2.10524074E+00
  2.26650690E+00  2.26645847E+00  1.75021994E+00  2.26650690E+00  2.26645847E+00
  1.75021994E+00  3.14159265E+00  0.00000000E+00 -0.00000000E+00  3.14159265E+00
ZRed-IntVec                                I   N=          20
          -1          -1          -1          -1          -1          -1
           0           0           0           0           0           0
           0           0           0           0           0           0
           0           0
ZRed-FPVec                                 R   N=          20
  0.00000000E+00  0.00000000E+00  0.00000000E+00  0.00000000E+00  0.00000000E+00
  0.00000000E+00  0.00000000E+00  0.00000000E+00  0.00000000E+00  0.00000000E+00
  0.00000000E+00  0.00000000E+00  0.00000000E+00  0.00000000E+00  0.00000000E+00
  0.00000000E+00  0.00000000E+00  0.00000000E+00  0.00000000E+00  0.00000000E+00
ZRed-Constraint1                           R   N=          20
 -2.99634029E+00  0.00000000E+00  0.00000000E+00  2.99634029E+00  0.00000000E+00
  0.00000000E+00  2.03694512E+00  2.03669844E+00  2.03694512E+00  2.03669844E+00
  2.00316847E+00  2.00313852E+00  2.27687832E+00  2.00316847E+00  2.00313852E+00
  2.27687832E+00  3.14159265E+00  0.00000000E+00  0.00000000E+00  3.14159265E+00
ZRed-Constraint2                           R   N=          20
 -2.99634029E+00  0.00000000E+00  0.00000000E+00  2.99634029E+00  0.00000000E+00
  0.00000000E+00  0.00000000E+00  0.00000000E+00  0.00000000E+00  0.00000000E+00
  0.00000000E+00  0.00000000E+00  0.00000000E+00  0.00000000E+00  0.00000000E+00
  0.00000000E+00  0.00000000E+00  0.00000000E+00  0.00000000E+00  0.00000000E+00
Number of contracted shells                I               28
Number of primitive shells                 I               50
Pure/Cartesian d shells                    I                0
Pure/Cartesian f shells                    I                0
Highest angular momentum                   I                2
Largest degree of contraction              I                6
Shell types                                I   N=          28
           0          -1          -1          -1          -1          -2
           0          -1          -1          -1          -1          -2
           0           0           0           1           0           0
           0           1           0           0           0           1
           0           0           0           1
Number of primitives per shell             I   N=          28
           6           3           1           1           1           1
           6           3           1           1           1           1
           3           1           1           1           3           1
           1           1           3           1           1           1
           3           1           1           1
Shell to atom map                          I   N=          28
           1           1           1           1           1           1
           2           2           2           2           2           2
           3           3           3           3           4           4
           4           4           5           5           5           5
           6           6           6           6
Primitive exponents                        R   N=          50
  4.56324000E+03  6.82024000E+02  1.54973000E+02  4.44553000E+01  1.30290000E+01
  1.82773000E+00  2.09642000E+01  4.80331000E+00  1.45933000E+00  4.83456000E-01
  1.45585000E-01  4.38000000E-02  6.26000000E-01  4.56324000E+03  6.82024000E+02
  1.54973000E+02  4.44553000E+01  1.30290000E+01  1.82773000E+00  2.09642000E+01
  4.80331000E+00  1.45933000E+00  4.83456000E-01  1.45585000E-01  4.38000000E-02
  6.26000000E-01  3.38650000E+01  5.09479000E+00  1.15879000E+00  3.25840000E-01
  1.02741000E-01  7.50000000E-01  3.38650000E+01  5.09479000E+00  1.15879000E+00
  3.25840000E-01  1.02741000E-01  7.50000000E-01  3.38650000E+01  5.09479000E+00
  1.15879000E+00  3.25840000E-01  1.02741000E-01  7.50000000E-01  3.38650000E+01
  5.09479000E+00  1.15879000E+00  3.25840000E-01  1.02741000E-01  7.50000000E-01
Contraction coefficients                   R   N=          50
  1.96665025E-03  1.52306019E-02  7.61269097E-02  2.60801033E-01  6.16462078E-01
  2.21006028E-01  1.14660081E-01  9.19999648E-01 -3.03068213E-03  1.00000000E+00
  1.00000000E+00  1.00000000E+00  1.00000000E+00  1.96665025E-03  1.52306019E-02
  7.61269097E-02  2.60801033E-01  6.16462078E-01  2.21006028E-01  1.14660081E-01
  9.19999648E-01 -3.03068213E-03  1.00000000E+00  1.00000000E+00  1.00000000E+00
  1.00000000E+00  2.54938145E-02  1.90373109E-01  8.52161486E-01  1.00000000E+00
  1.00000000E+00  1.00000000E+00  2.54938145E-02  1.90373109E-01  8.52161486E-01
  1.00000000E+00  1.00000000E+00  1.00000000E+00  2.54938145E-02  1.90373109E-01
  8.52161486E-01  1.00000000E+00  1.00000000E+00  1.00000000E+00  2.54938145E-02
  1.90373109E-01  8.52161486E-01  1.00000000E+00  1.00000000E+00  1.00000000E+00
P(S=P) Contraction coefficients            R   N=          50
  0.00000000E+00  0.00000000E+00  0.00000000E+00  0.00000000E+00  0.00000000E+00
  0.00000000E+00  4.02486927E-02  2.37593957E-01  8.15853851E-01  1.00000000E+00
  1.00000000E+00  1.00000000E+00  0.00000000E+00  0.00000000E+00  0.00000000E+00
  0.00000000E+00  0.00000000E+00  0.00000000E+00  0.00000000E+00  4.02486927E-02
  2.37593957E-01  8.15853851E-01  1.00000000E+00  1.00000000E+00  1.00000000E+00
  0.00000000E+00  0.00000000E+00  0.00000000E+00  0.00000000E+00  0.00000000E+00
  0.00000000E+00  0.00000000E+00  0.00000000E+00  0.00000000E+00  0.00000000E+00
  0.00000000E+00  0.00000000E+00  0.00000000E+00  0.00000000E+00  0.00000000E+00
  0.00000000E+00  0.00000000E+00  0.00000000E+00  0.00000000E+00  0.00000000E+00
  0.00000000E+00  0.00000000E+00  0.00000000E+00  0.00000000E+00  0.00000000E+00
Coordinates of each shell                  R   N=          84
 -2.99634029E+00  0.00000000E+00  0.00000000E+00 -2.99634029E+00  0.00000000E+00
  0.00000000E+00 -2.99634029E+00  0.00000000E+00  0.00000000E+00 -2.99634029E+00
  0.00000000E+00  0.00000000E+00 -2.99634029E+00  0.00000000E+00  0.00000000E+00
 -2.99634029E+00  0.00000000E+00  0.00000000E+00  2.99634029E+00  0.00000000E+00
  0.00000000E+00  2.99634029E+00  0.00000000E+00  0.00000000E+00  2.99634029E+00
  0.00000000E+00  0.00000000E+00  2.99634029E+00  0.00000000E+00  0.00000000E+00
  2.99634029E+00  0.00000000E+00  0.00000000E+00  2.99634029E+00  0.00000000E+00
  0.00000000E+00 -4.34565301E+00 -1.61597789E+00  1.03486370E-08 -4.34565301E+00
 -1.61597789E+00  1.03486370E-08 -4.34565301E+00 -1.61597789E+00  1.03486370E-08
 -4.34565301E+00 -1.61597789E+00  1.03486370E-08 -4.34557615E+00  1.61604491E+00
  2.81742962E-09 -4.34557615E+00  1.61604491E+00  2.81742962E-09 -4.34557615E+00
  1.61604491E+00  2.81742962E-09 -4.34557615E+00  1.61604491E+00  2.81742962E-09
  4.34565301E+00  1.61597789E+00 -8.18963755E-10  4.34565301E+00  1.61597789E+00
 -8.18963755E-10  4.34565301E+00  1.61597789E+00 -8.18963755E-10  4.34565301E+00
  1.61597789E+00 -8.18963755E-10  4.34557615E+00 -1.61604491E+00 -8.35099711E-09
  4.34557615E+00 -1.61604491E+00 -8.35099711E-09  4.34557615E+00 -1.61604491E+00
 -8.35099711E-09  4.34557615E+00 -1.61604491E+00 -8.35099711E-09
Num ILSW                                   I              100
ILSW                                       I   N=         100
           1           0           0           1           2           0
           0           0           0           0        4336          -1
           7           0           0           0           2           0
           0           0           0           0           1           0
           1           1           0           0           0           0
           0           0      100000           0          -1           0
           0           0           0           0           0           0
           0           0           0           1           0           0
           0 -2000000000           1           0           0           0
           0           0           4          52           0           0
           0           0          55           0           0           0
           0           0           0           6           0           1
           0           0           0           0           0           0
           0           0           0           0           0           0
           0           0           0           0           0           0
           0           0           0           0           0           0
           0           0           0           0
Num RLSW                                   I               52
RLSW                                       R   N=          52
  1.00000000E+00  1.00000000E+00  1.00000000E+00  1.00000000E+00  5.40000000E-01
  0.00000000E+00  0.00000000E+00  1.00000000E+00  0.00000000E+00  0.00000000E+00
  0.00000000E+00  0.00000000E+00  1.00000000E+00  0.00000000E+00  0.00000000E+00
  0.00000000E+00  0.00000000E+00  1.00000000E+00  0.00000000E+00  0.00000000E+00
  0.00000000E+00  0.00000000E+00  1.00000000E+00  0.00000000E+00  0.00000000E+00
  0.00000000E+00  0.00000000E+00  1.00000000E+00  0.00000000E+00  0.00000000E+00
  0.00000000E+00  0.00000000E+00  1.00000000E+00  0.00000000E+00  0.00000000E+00
  0.00000000E+00  0.00000000E+00  0.00000000E+00  1.00000000E+00  1.00000000E+00
  0.00000000E+00  1.00000000E+00  0.00000000E+00  0.00000000E+00  0.00000000E+00
  0.00000000E+00  0.00000000E+00  0.00000000E+00  0.00000000E+00  0.00000000E+00
  0.00000000E+00  0.00000000E+00
MxBond                                     I                3
NBond                                      I   N=           6
           3           3           1           1           1           1
IBond                                      I   N=          18
           2           3           4           1           5           6
           1           0           0           1           0           0
           2           0           0           2           0           0
RBond                                      R   N=          18
  1.00000000E-01  1.00000000E+00  1.00000000E+00  1.00000000E-01  1.00000000E+00
  1.00000000E+00  1.00000000E+00  0.00000000E+00  0.00000000E+00  1.00000000E+00
  0.00000000E+00  0.00000000E+00  1.00000000E+00  0.00000000E+00  0.00000000E+00
  1.00000000E+00  0.00000000E+00  0.00000000E+00
Virial Ratio                               R      2.002799266980186E+00
SCF Energy                                 R     -7.822642621277714E+01
Total Energy                               R     -7.822642621277714E+01
S**2                                       R     -3.019806626980426E-14
S**2 after annihilation                    R     -1.474376176702183E-13
RMS Force                                  R      1.720729572074210E-05
RMS Density                                R      2.473581449015123E-09
Job Status                                 I                1
Nuclear derivative order                   I                1
External E-field                           R   N=          35
  0.00000000E+00  0.00000000E+00  0.00000000E+00  0.00000000E+00  0.00000000E+00
  0.00000000E+00  0.00000000E+00  0.00000000E+00  0.00000000E+00  0.00000000E+00
  0.00000000E+00  0.00000000E+00  0.00000000E+00  0.00000000E+00  0.00000000E+00
  0.00000000E+00  0.00000000E+00  0.00000000E+00  0.00000000E+00  0.00000000E+00
  0.00000000E+00  0.00000000E+00  0.00000000E+00  0.00000000E+00  0.00000000E+00
  0.00000000E+00  0.00000000E+00  0.00000000E+00  0.00000000E+00  0.00000000E+00
  0.00000000E+00  0.00000000E+00  0.00000000E+00  0.00000000E+00  0.00000000E+00
IOpCl                                      I                1
IROHF                                      I                0
Alpha Orbital Energies                     R   N=          68
 -1.05869745E+01 -1.05869689E+01 -7.39323939E-01 -7.36918563E-01 -4.54466458E-01
 -4.52405439E-01 -3.18753838E-01 -2.66726569E-01 -7.24307743E-02 -5.90749117E-02
  2.59319681E-02  3.69025308E-02  6.71027892E-02  8.54381029E-02  8.94614056E-02
  1.05218777E-01  1.25010537E-01  1.54246211E-01  1.76675243E-01  2.00369722E-01
  2.13142032E-01  2.38084328E-01  4.41271292E-01  4.83487686E-01  4.99628407E-01
  5.04449188E-01  5.84148287E-01  6.10297731E-01  6.20841373E-01  6.25794079E-01
  6.95699929E-01  6.96244168E-01  7.42525376E-01  8.45001165E-01  1.09300159E+00
  1.12450633E+00  1.12455842E+00  1.20107868E+00  1.21113757E+00  1.21659374E+00
  1.56509458E+00  1.57831131E+00  1.58206433E+00  1.61389954E+00  1.64652193E+00
  1.65054937E+00  1.87412023E+00  1.87427513E+00  1.89630063E+00  1.90322994E+00
  2.14068540E+00  2.15940008E+00  2.37040057E+00  2.37912906E+00  2.48268224E+00
  2.50261306E+00  2.52238890E+00  2.54251772E+00  2.57188844E+00  2.57189273E+00
  2.75883512E+00  2.78729581E+00  3.12382056E+00  3.15484873E+00  3.58102625E+00
  3.59173083E+00  2.37776145E+01  2.37963686E+01
Beta Orbital Energies                      R   N=          68
 -1.05869745E+01 -1.05869689E+01 -7.39323939E-01 -7.36918563E-01 -4.54466458E-01
 -4.52405439E-01 -3.18753838E-01 -2.66726569E-01 -7.24307743E-02 -5.90749117E-02
  2.59319681E-02  3.69025308E-02  6.71027892E-02  8.54381029E-02  8.94614056E-02
  1.05218777E-01  1.25010537E-01  1.54246211E-01  1.76675243E-01  2.00369722E-01
  2.13142032E-01  2.38084328E-01  4.41271292E-01  4.83487686E-01  4.99628407E-01
  5.04449188E-01  5.84148287E-01  6.10297731E-01  6.20841373E-01  6.25794079E-01
  6.95699929E-01  6.96244168E-01  7.42525376E-01  8.45001165E-01  1.09300159E+00
  1.12450633E+00  1.12455842E+00  1.20107868E+00  1.21113757E+00  1.21659374E+00
  1.56509458E+00  1.57831131E+00  1.58206433E+00  1.61389954E+00  1.64652193E+00
  1.65054937E+00  1.87412023E+00  1.87427513E+00  1.89630063E+00  1.90322994E+00
  2.14068540E+00  2.15940008E+00  2.37040057E+00  2.37912906E+00  2.48268224E+00
  2.50261306E+00  2.52238890E+00  2.54251772E+00  2.57188844E+00  2.57189273E+00
  2.75883512E+00  2.78729581E+00  3.12382056E+00  3.15484873E+00  3.58102625E+00
  3.59173083E+00  2.37776145E+01  2.37963686E+01
Alpha MO coefficients                      R   N=        4624
  3.98854068E-01  3.28260711E-01 -1.68706702E-03  4.02588743E-08  1.02343244E-11
  7.82626062E-03 -8.35689622E-04  1.19955364E-08  4.10797769E-12 -2.92700692E-03
 -6.74202272E-04 -7.03110969E-10  1.57965952E-12  9.40885862E-04  1.34746376E-03
 -8.35345361E-09 -2.71166311E-12 -6.75098393E-04 -4.77543948E-12 -3.24026706E-12
 -2.23431293E-04  1.84347574E-08 -3.98854066E-01 -3.28260709E-01 -1.68706701E-03
  4.02588729E-08  7.76492824E-12 -7.82626057E-03 -8.35689615E-04  1.19955420E-08
  2.59377725E-12  2.92700691E-03 -6.74202273E-04 -7.03127365E-10  1.07423978E-12
 -9.40885866E-04  1.34746376E-03 -8.35347681E-09 -1.53572504E-12  6.75098389E-04
  3.28371026E-12 -3.24113386E-12  2.23431291E-04 -1.84347585E-08  2.64855351E-04
 -1.92371141E-03  1.37017677E-03 -7.41815692E-04 -9.73843552E-04  6.06410071E-12
  2.64853112E-04 -1.92367180E-03  1.37015765E-03 -7.41756629E-04  9.73871436E-04
  1.52519955E-12 -2.64855349E-04  1.92371139E-03 -1.37017676E-03 -7.41815687E-04
 -9.73843546E-04  4.10943728E-13 -2.64853111E-04  1.92367179E-03 -1.37015764E-03
 -7.41756624E-04  9.73871430E-04  4.95044901E-12  3.98854054E-01  3.28286279E-01
 -1.60478017E-03  4.07836139E-08  1.02652517E-11  7.67800916E-03 -1.17118623E-03
  1.24744040E-08  4.21079828E-12 -2.93716538E-03  1.22997263E-04  1.73365725E-08
  7.03199939E-13 -6.05370060E-04  6.60749054E-04  7.27462199E-09 -4.46717707E-12
 -6.74675229E-04 -4.52982430E-12 -3.18772905E-12 -1.95636895E-04  1.45673953E-08
  3.98854057E-01  3.28286281E-01  1.60478018E-03 -4.07836151E-08 -7.82781549E-12
  7.67800921E-03  1.17118623E-03 -1.24744048E-08 -2.53168772E-12 -2.93716540E-03
 -1.22997258E-04 -1.73365674E-08 -6.99882732E-13 -6.05370054E-04 -6.60749062E-04
 -7.27461991E-09  3.64387537E-12 -6.74675233E-04 -3.14603172E-12  3.18792986E-12
 -1.95636897E-04  1.45673966E-08  2.39901322E-04 -1.80574147E-03  1.69868570E-03
 -7.90565557E-04 -9.62844566E-04  6.12672150E-12  2.39902339E-04 -1.80571888E-03
  1.69860427E-03 -7.90515130E-04  9.62875203E-04  1.64404792E-12  2.39901324E-04
 -1.80574148E-03  1.69868571E-03  7.90565562E-04  9.62844572E-04 -5.16586305E-13
  2.39902340E-04 -1.80571889E-03  1.69860428E-03  7.90515135E-04 -9.62875209E-04
 -5.00052809E-12 -7.38204279E-02 -1.18793397E-01 -4.73691652E-02  1.03801747E-06
  2.39363712E-10  3.23830097E-01 -7.15518929E-02  1.62358752E-06  3.69081547E-10
  2.24100638E-01 -3.17721066E-02  6.08346808E-07  1.54094805E-10  4.90404329E-03
 -4.00273478E-03 -1.06016506E-08  3.19262545E-11 -5.20956097E-03 -4.80476016E-11
 -2.07124855E-11  2.50095990E-04 -5.09188451E-10 -7.38204279E-02 -1.18793397E-01
  4.73691652E-02 -1.03801750E-06 -1.67448580E-10  3.23830097E-01  7.15518929E-02
 -1.62358756E-06 -2.59838450E-10  2.24100638E-01  3.17721066E-02 -6.08346841E-07
 -1.01007383E-10  4.90404329E-03  4.00273478E-03  1.06016269E-08 -3.00912141E-11
 -5.20956097E-03 -3.42253350E-11  2.07190588E-11  2.50095990E-04 -5.09186639E-10
  8.02701830E-02  9.65038960E-02  6.65005047E-03  6.68125534E-03  1.13620449E-02
 -5.79569778E-11  8.02699729E-02  9.65036746E-02  6.65038454E-03  6.68069164E-03
 -1.13623548E-02 -5.23267721E-12  8.02701830E-02  9.65038960E-02  6.65005047E-03
 -6.68125534E-03 -1.13620449E-02 -4.45642887E-12  8.02699729E-02  9.65036746E-02
  6.65038454E-03 -6.68069164E-03  1.13623548E-02  4.82869076E-11 -7.36749641E-02
 -1.18544336E-01 -4.94386850E-02  1.04264488E-06  2.40930248E-10  3.22894332E-01
 -7.52090652E-02  1.65557694E-06  3.74987836E-10  2.25684120E-01 -3.38775625E-02
  4.90648329E-07  1.46661304E-10 -1.32902533E-02 -1.26668863E-02 -5.87570796E-08
  4.90755671E-12 -5.29232704E-03 -5.20418756E-11 -2.13241681E-11  1.56507394E-04
  6.72396475E-09  7.36749641E-02  1.18544336E-01 -4.94386850E-02  1.04264492E-06
  1.68612426E-10 -3.22894332E-01 -7.52090652E-02  1.65557697E-06  2.64729447E-10
 -2.25684120E-01 -3.38775625E-02  4.90648385E-07  9.76553656E-11  1.32902533E-02
 -1.26668863E-02 -5.87569937E-08 -4.42731266E-12  5.29232704E-03  3.69889098E-11
 -2.13282135E-11 -1.56507394E-04 -6.72396569E-09  8.11568198E-02  9.71580967E-02
  8.60271316E-03  6.72756335E-03  1.13192412E-02 -5.71652229E-11  8.11565668E-02
  9.71578887E-02  8.60327589E-03  6.72700353E-03 -1.13195540E-02 -4.50274755E-12
 -8.11568198E-02 -9.71580967E-02 -8.60271316E-03  6.72756335E-03  1.13192412E-02
  5.09457838E-12 -8.11565668E-02 -9.71578887E-02 -8.60327589E-03  6.72700353E-03
 -1.13195540E-02 -4.75759510E-11 -6.86452786E-09 -8.54482037E-09  3.25441653E-06
  1.44839302E-01 -3.35111301E-10  1.94020454E-08  4.71769197E-06  2.16682222E-01
 -4.97679050E-10 -7.16750135E-08  2.84804276E-06  1.16552424E-01 -2.73037210E-10
 -2.07902720E-07 -1.85881588E-07 -3.21794356E-04  3.04418482E-12  7.67259925E-09
  7.64140325E-11  1.67389520E-10 -1.53840669E-06 -3.24964740E-02  6.86452285E-09
  8.54481462E-09  3.25441659E-06  1.44839302E-01  3.35159961E-10 -1.94020198E-08
  4.71769207E-06  2.16682222E-01  4.97641395E-10  7.16750376E-08  2.84804281E-06
  1.16552424E-01  2.73169279E-10  2.07902699E-07 -1.85881597E-07 -3.21794356E-04
 -3.09193903E-12 -7.67260157E-09  7.64348045E-11 -1.18119095E-10  1.53840672E-06
  3.24964740E-02 -1.03004201E-01 -1.60247701E-01 -8.71789668E-02 -8.31581650E-03
 -2.83753856E-03  4.66162153E-11  1.03004487E-01  1.60248489E-01  8.71792510E-02
  8.31565953E-03 -2.83803711E-03 -3.30960059E-11  1.03004201E-01  1.60247701E-01
  8.71789668E-02 -8.31581650E-03 -2.83753856E-03  2.14674137E-11 -1.03004487E-01
 -1.60248489E-01 -8.71792510E-02  8.31565953E-03 -2.83803711E-03 -3.49911513E-11
 -8.93162452E-08 -1.54210088E-07  3.80772757E-06  1.45565926E-01 -3.40801011E-10
  5.21832274E-07  5.72458955E-06  2.15937360E-01 -5.08801360E-10  6.33594468E-07
  2.70184505E-06  1.22797184E-01 -2.86426807E-10  2.36367902E-07  2.29999169E-07
  4.16263908E-03 -5.79443115E-12  3.76400911E-08  7.70254652E-11  1.70058440E-10
 -1.62252946E-06 -3.34905154E-02 -8.93162403E-08 -1.54210082E-07 -3.80772763E-06
 -1.45565926E-01 -3.40829703E-10  5.21832250E-07 -5.72458964E-06 -2.15937360E-01
 -5.08934197E-10  6.33594433E-07 -2.70184512E-06 -1.22797184E-01 -2.86384751E-10
  2.36367884E-07 -2.29999161E-07 -4.16263908E-03 -5.83938588E-12  3.76400917E-08
 -7.70079352E-11  1.20042329E-10 -1.62252949E-06 -3.34905154E-02 -1.03703898E-01
 -1.61244113E-01 -8.02472174E-02 -8.03295723E-03 -2.79198992E-03  4.51678245E-11
  1.03703813E-01  1.61243774E-01  8.02467281E-02  8.03285318E-03 -2.79236222E-03
 -3.28979877E-11 -1.03703898E-01 -1.61244113E-01 -8.02472174E-02  8.03295723E-03
  2.79198992E-03 -2.15275980E-11  1.03703813E-01  1.61243774E-01  8.02467281E-02
 -8.03285318E-03  2.79236222E-03  3.37880568E-11 -3.62302967E-02 -6.03303092E-02
  1.55059474E-01 -4.10902235E-06 -7.17014434E-10  1.78304648E-01  2.29137469E-01
 -5.95675020E-06 -1.01796281E-09  2.62908894E-01  1.73619207E-01 -5.61310452E-06
 -8.84461535E-10  3.99110144E-02  4.56642641E-02 -1.99094335E-06 -2.22746757E-10
  1.70361597E-02  2.34564858E-10  3.02927443E-11 -1.63151626E-02  9.40268120E-07
 -3.62302967E-02 -6.03303092E-02 -1.55059474E-01  4.10902242E-06  5.14719370E-10
  1.78304648E-01 -2.29137469E-01  5.95675030E-06  7.24486867E-10  2.62908894E-01
 -1.73619207E-01  5.61310456E-06  6.59539879E-10  3.99110144E-02 -4.56642641E-02
  1.99094334E-06  1.95923289E-10  1.70361597E-02  1.66324725E-10 -3.03103997E-11
 -1.63151626E-02  9.40268134E-07 -4.88527607E-02 -9.24599909E-02 -6.41815830E-02
  7.14999043E-03 -9.95691968E-03 -6.01710201E-12 -4.88534155E-02 -9.24606404E-02
 -6.41803964E-02  7.15053865E-03  9.95658580E-03 -5.22193293E-11 -4.88527607E-02
 -9.24599909E-02 -6.41815830E-02 -7.14999043E-03  9.95691968E-03  4.33193714E-11
 -4.88534155E-02 -9.24606404E-02 -6.41803964E-02 -7.15053865E-03 -9.95658580E-03
 -2.91279413E-12 -4.51469583E-02 -7.50369099E-02  1.67817165E-01 -3.62374133E-06
 -1.02071698E-09  2.22230027E-01  2.32999813E-01 -5.34193206E-06 -1.48471265E-09
  3.16345534E-01  2.43158296E-01 -4.86586588E-06 -1.50964492E-09  1.76868128E-01
  1.24270409E-01 -6.04100301E-07 -3.52734143E-10  2.17549076E-02  2.84477476E-10
  3.87248876E-11 -2.08079122E-02  6.57760129E-07  4.51469583E-02  7.50369099E-02
  1.67817165E-01 -3.62374140E-06 -7.44113007E-10 -2.22230027E-01  2.32999813E-01
 -5.34193217E-06 -1.08441902E-09 -3.16345534E-01  2.43158296E-01 -4.86586590E-06
 -1.12929402E-09 -1.76868128E-01  1.24270409E-01 -6.04100200E-07 -2.15824904E-10
 -2.17549076E-02 -1.99969444E-10  3.87443002E-11  2.08079122E-02 -6.57760141E-07
 -5.04919992E-02 -8.75778775E-02 -7.53065583E-02  8.32803325E-03 -9.26686776E-03
 -3.54609750E-11 -5.04911564E-02 -8.75761112E-02 -7.53088017E-02  8.32842960E-03
  9.26646402E-03 -7.83401083E-11  5.04919992E-02  8.75778775E-02  7.53065583E-02
  8.32803325E-03 -9.26686776E-03 -6.28611943E-11  5.04911564E-02  8.75761112E-02
  7.53088017E-02  8.32842960E-03  9.26646402E-03 -1.99483541E-11 -9.44027314E-11
 -1.58607656E-10  1.00672762E-09  3.72420670E-10  1.54664802E-01  5.24870276E-10
  1.50014269E-09  5.71159482E-10  2.45622350E-01  3.36703399E-10  1.93167147E-09
  7.05061785E-10  2.83748552E-01  1.83555362E-09  2.43431147E-09  6.51750926E-10
  1.75886410E-01  2.11536321E-10 -1.59260540E-02  3.86836551E-07 -1.30542080E-10
 -4.70030002E-11  1.10964793E-10  1.85602538E-10  8.15131007E-10 -3.72649712E-10
  1.54664802E-01 -5.98546411E-10  1.17249366E-09 -5.70632104E-10  2.45622350E-01
 -5.16721750E-10  1.62886192E-09 -7.06113253E-10  2.83748552E-01 -1.76137658E-09
  2.16844897E-09 -6.54022151E-10  1.75886410E-01 -1.70089738E-10  1.59260540E-02
 -3.86836559E-07  1.11694626E-10 -4.66507398E-11 -9.71214337E-11 -1.49724164E-10
  4.49357814E-11  1.03064717E-10  3.42967690E-11  1.55012703E-02 -7.14755614E-11
 -3.04508138E-11 -2.63115937E-10  1.01390380E-10  3.60781079E-11  1.55012804E-02
  7.84479692E-11  4.85125777E-11  2.45762338E-10  7.98120332E-11 -3.79710143E-11
  1.55012703E-02  1.03684417E-10  1.71301676E-10 -7.23107440E-11  8.10721845E-11
 -3.21542156E-11  1.55012804E-02  1.58973765E-11  2.55440804E-11  7.40725055E-10
  3.69865229E-10  1.64020962E-01 -5.03463957E-11  1.24031462E-09  6.00583570E-10
  2.59232880E-01 -2.28446132E-10  1.20873317E-09  6.64806546E-10  3.00463905E-01
  2.60084737E-10  1.25230844E-09  4.39594811E-10  2.55540015E-01  1.56316501E-10
 -2.03463127E-02  4.08176274E-07 -8.00969253E-11 -3.49700220E-11  3.67378425E-11
  6.07257370E-11 -4.50953329E-10  3.69760960E-10 -1.64020962E-01 -1.66289358E-10
 -8.05795926E-10  6.01649624E-10 -2.59232880E-01 -2.95206460E-10 -6.42528040E-10