Title Card Required                                                     
FOpt      UM062X                                                      6-311+G(d,p)        
Number of atoms                            I                6
Info1-9                                    I   N=           9
          15          15           0           0           0         110
           2          18        -502
Full Title                                 C   N=           2
Title Card Required     
Route                                      C   N=           6
#p opt UM062X/6-311+G** nosymm int=superfine SCF=NoVarAcc SC
F=tight     
Charge                                     I                1
Multiplicity                               I                2
Number of electrons                        I               15
Number of alpha electrons                  I                8
Number of beta electrons                   I                7
Number of basis functions                  I               68
Number of independent functions            I               68
Number of point charges in /Mol/           I                0
Number of translation vectors              I                0
Atomic numbers                             I   N=           6
           6           6           1           1           1           1
Nuclear charges                            R   N=           6
  6.00000000E+00  6.00000000E+00  1.00000000E+00  1.00000000E+00  1.00000000E+00
  1.00000000E+00
Current cartesian coordinates              R   N=          18
 -1.24835818E+01  0.00000000E+00  0.00000000E+00  1.24835818E+01  0.00000000E+00
  0.00000000E+00 -1.35475849E+01 -1.77901742E+00 -4.01388962E-09 -1.35474609E+01
  1.77909022E+00 -3.78322434E-09  1.35475849E+01  1.77901742E+00 -8.25565716E-09
  1.35474609E+01 -1.77909022E+00 -8.02508061E-09
Number of symbols in /Mol/                 I                0
Force Field                                I                0
Atom Types                                 C   N=           6
                                                            
            
Int Atom Types                             I   N=           6
           0           0           0           0           0           0
MM charges                                 R   N=           6
  0.00000000E+00  0.00000000E+00  0.00000000E+00  0.00000000E+00  0.00000000E+00
  0.00000000E+00
Integer atomic weights                     I   N=           6
          12          12           1           1           1           1
Real atomic weights                        R   N=           6
  1.20000000E+01  1.20000000E+01  1.00782504E+00  1.00782504E+00  1.00782504E+00
  1.00782504E+00
Atom fragment info                         I   N=           6
           0           0           0           0           0           0
Atom residue num                           I   N=           6
           0           0           0           0           0           0
Nuclear spins                              I   N=           6
           0           0           1           1           1           1
Nuclear ZEff                               R   N=           6
 -3.60000000E+00 -3.60000000E+00 -1.00000000E+00 -1.00000000E+00 -1.00000000E+00
 -1.00000000E+00
Nuclear ZNuc                               R   N=           6
  6.00000000E+00  6.00000000E+00  1.00000000E+00  1.00000000E+00  1.00000000E+00
  1.00000000E+00
Nuclear QMom                               R   N=           6
  0.00000000E+00  0.00000000E+00  0.00000000E+00  0.00000000E+00  0.00000000E+00
  0.00000000E+00
Nuclear GFac                               R   N=           6
  0.00000000E+00  0.00000000E+00  2.79284600E+00  2.79284600E+00  2.79284600E+00
  2.79284600E+00
MicOpt                                     I   N=           6
          -2          -2          -1          -1          -1          -1
Number of residues                         I                0
Number of secondary structures             I                0
Redundant internal dimensions              I   N=           4
          20          10           6           4
Redundant internal coordinate indices      I   N=          80
           1          -1           0           0           1          -2
           0           0           1          -3           0           0
           2          -1           0           0           2          -2
           0           0           2          -3           0           0
           1           3           0           0           1           4
           0           0           2           5           0           0
           2           6           0           0           2           1
           3           0           2           1           4           0
           3           1           4           0           1           2
           5           0           1           2           6           0
           5           2           6           0           3           1
           2           5           3           1           2           6
           4           1           2           5           4           1
           2           6
Redundant internal coordinates             R   N=          20
 -1.24835818E+01  0.00000000E+00  0.00000000E+00  1.24835818E+01  0.00000000E+00
  0.00000000E+00  2.07292199E+00  2.07292085E+00  2.07292199E+00  2.07292085E+00
  2.10980633E+00  2.10973698E+00  2.06364200E+00  2.10980633E+00  2.10973698E+00
  2.06364200E+00  3.14159265E+00  0.00000000E+00 -0.00000000E+00  3.14159265E+00
ZRed-IntVec                                I   N=          20
          -1          -1          -1          -1          -1          -1
           0           0           0           0           0           0
           0           0           0           0           0           0
           0           0
ZRed-FPVec                                 R   N=          20
  0.00000000E+00  0.00000000E+00  0.00000000E+00  0.00000000E+00  0.00000000E+00
  0.00000000E+00  0.00000000E+00  0.00000000E+00  0.00000000E+00  0.00000000E+00
  0.00000000E+00  0.00000000E+00  0.00000000E+00  0.00000000E+00  0.00000000E+00
  0.00000000E+00  0.00000000E+00  0.00000000E+00  0.00000000E+00  0.00000000E+00
ZRed-Constraint1                           R   N=          20
 -1.24835818E+01  0.00000000E+00  0.00000000E+00  1.24835818E+01  0.00000000E+00
  0.00000000E+00  2.05067934E+00  2.05048469E+00  2.05067934E+00  2.05048469E+00
  1.98162443E+00  1.98155420E+00  2.32000667E+00  1.98162443E+00  1.98155420E+00
  2.32000667E+00  3.14159265E+00  0.00000000E+00  0.00000000E+00  3.14159265E+00
ZRed-Constraint2                           R   N=          20
 -1.24835818E+01  0.00000000E+00  0.00000000E+00  1.24835818E+01  0.00000000E+00
  0.00000000E+00  0.00000000E+00  0.00000000E+00  0.00000000E+00  0.00000000E+00
  0.00000000E+00  0.00000000E+00  0.00000000E+00  0.00000000E+00  0.00000000E+00
  0.00000000E+00  0.00000000E+00  0.00000000E+00  0.00000000E+00  0.00000000E+00
Number of contracted shells                I               28
Number of primitive shells                 I               50
Pure/Cartesian d shells                    I                0
Pure/Cartesian f shells                    I                0
Highest angular momentum                   I                2
Largest degree of contraction              I                6
Shell types                                I   N=          28
           0          -1          -1          -1          -1          -2
           0          -1          -1          -1          -1          -2
           0           0           0           1           0           0
           0           1           0           0           0           1
           0           0           0           1
Number of primitives per shell             I   N=          28
           6           3           1           1           1           1
           6           3           1           1           1           1
           3           1           1           1           3           1
           1           1           3           1           1           1
           3           1           1           1
Shell to atom map                          I   N=          28
           1           1           1           1           1           1
           2           2           2           2           2           2
           3           3           3           3           4           4
           4           4           5           5           5           5
           6           6           6           6
Primitive exponents                        R   N=          50
  4.56324000E+03  6.82024000E+02  1.54973000E+02  4.44553000E+01  1.30290000E+01
  1.82773000E+00  2.09642000E+01  4.80331000E+00  1.45933000E+00  4.83456000E-01
  1.45585000E-01  4.38000000E-02  6.26000000E-01  4.56324000E+03  6.82024000E+02
  1.54973000E+02  4.44553000E+01  1.30290000E+01  1.82773000E+00  2.09642000E+01
  4.80331000E+00  1.45933000E+00  4.83456000E-01  1.45585000E-01  4.38000000E-02
  6.26000000E-01  3.38650000E+01  5.09479000E+00  1.15879000E+00  3.25840000E-01
  1.02741000E-01  7.50000000E-01  3.38650000E+01  5.09479000E+00  1.15879000E+00
  3.25840000E-01  1.02741000E-01  7.50000000E-01  3.38650000E+01  5.09479000E+00
  1.15879000E+00  3.25840000E-01  1.02741000E-01  7.50000000E-01  3.38650000E+01
  5.09479000E+00  1.15879000E+00  3.25840000E-01  1.02741000E-01  7.50000000E-01
Contraction coefficients                   R   N=          50
  1.96665025E-03  1.52306019E-02  7.61269097E-02  2.60801033E-01  6.16462078E-01
  2.21006028E-01  1.14660081E-01  9.19999648E-01 -3.03068213E-03  1.00000000E+00
  1.00000000E+00  1.00000000E+00  1.00000000E+00  1.96665025E-03  1.52306019E-02
  7.61269097E-02  2.60801033E-01  6.16462078E-01  2.21006028E-01  1.14660081E-01
  9.19999648E-01 -3.03068213E-03  1.00000000E+00  1.00000000E+00  1.00000000E+00
  1.00000000E+00  2.54938145E-02  1.90373109E-01  8.52161486E-01  1.00000000E+00
  1.00000000E+00  1.00000000E+00  2.54938145E-02  1.90373109E-01  8.52161486E-01
  1.00000000E+00  1.00000000E+00  1.00000000E+00  2.54938145E-02  1.90373109E-01
  8.52161486E-01  1.00000000E+00  1.00000000E+00  1.00000000E+00  2.54938145E-02
  1.90373109E-01  8.52161486E-01  1.00000000E+00  1.00000000E+00  1.00000000E+00
P(S=P) Contraction coefficients            R   N=          50
  0.00000000E+00  0.00000000E+00  0.00000000E+00  0.00000000E+00  0.00000000E+00
  0.00000000E+00  4.02486927E-02  2.37593957E-01  8.15853851E-01  1.00000000E+00
  1.00000000E+00  1.00000000E+00  0.00000000E+00  0.00000000E+00  0.00000000E+00
  0.00000000E+00  0.00000000E+00  0.00000000E+00  0.00000000E+00  4.02486927E-02
  2.37593957E-01  8.15853851E-01  1.00000000E+00  1.00000000E+00  1.00000000E+00
  0.00000000E+00  0.00000000E+00  0.00000000E+00  0.00000000E+00  0.00000000E+00
  0.00000000E+00  0.00000000E+00  0.00000000E+00  0.00000000E+00  0.00000000E+00
  0.00000000E+00  0.00000000E+00  0.00000000E+00  0.00000000E+00  0.00000000E+00
  0.00000000E+00  0.00000000E+00  0.00000000E+00  0.00000000E+00  0.00000000E+00
  0.00000000E+00  0.00000000E+00  0.00000000E+00  0.00000000E+00  0.00000000E+00
Coordinates of each shell                  R   N=          84
 -1.24835818E+01  0.00000000E+00  0.00000000E+00 -1.24835818E+01  0.00000000E+00
  0.00000000E+00 -1.24835818E+01  0.00000000E+00  0.00000000E+00 -1.24835818E+01
  0.00000000E+00  0.00000000E+00 -1.24835818E+01  0.00000000E+00  0.00000000E+00
 -1.24835818E+01  0.00000000E+00  0.00000000E+00  1.24835818E+01  0.00000000E+00
  0.00000000E+00  1.24835818E+01  0.00000000E+00  0.00000000E+00  1.24835818E+01
  0.00000000E+00  0.00000000E+00  1.24835818E+01  0.00000000E+00  0.00000000E+00
  1.24835818E+01  0.00000000E+00  0.00000000E+00  1.24835818E+01  0.00000000E+00
  0.00000000E+00 -1.35475849E+01 -1.77901742E+00 -4.01388962E-09 -1.35475849E+01
 -1.77901742E+00 -4.01388962E-09 -1.35475849E+01 -1.77901742E+00 -4.01388962E-09
 -1.35475849E+01 -1.77901742E+00 -4.01388962E-09 -1.35474609E+01  1.77909022E+00
 -3.78322434E-09 -1.35474609E+01  1.77909022E+00 -3.78322434E-09 -1.35474609E+01
  1.77909022E+00 -3.78322434E-09 -1.35474609E+01  1.77909022E+00 -3.78322434E-09
  1.35475849E+01  1.77901742E+00 -8.25565716E-09  1.35475849E+01  1.77901742E+00
 -8.25565716E-09  1.35475849E+01  1.77901742E+00 -8.25565716E-09  1.35475849E+01
  1.77901742E+00 -8.25565716E-09  1.35474609E+01 -1.77909022E+00 -8.02508061E-09
  1.35474609E+01 -1.77909022E+00 -8.02508061E-09  1.35474609E+01 -1.77909022E+00
 -8.02508061E-09  1.35474609E+01 -1.77909022E+00 -8.02508061E-09
Num ILSW                                   I              100
ILSW                                       I   N=         100
           1           0           0           1           2           0
           0           0           0           0        4336          -1
           7           0           0           0           2           0
           0           0           0           0           1           0
           1           1           0           0           0           0
           0           0      100000           0          -1           0
           0           0           0           0           0           0
           0           0           0           1           0           0
           0 -2000000000           1           0           0           0
           0           0           4          52           0           0
           0           0          55           0           0           0
           0           0           0           6           0           1
           0           0           0           0           0           0
           0           0           0           0           0           0
           0           0           0           0           0           0
           0           0           0           0           0           0
           0           0           0           0
Num RLSW                                   I               52
RLSW                                       R   N=          52
  1.00000000E+00  1.00000000E+00  1.00000000E+00  1.00000000E+00  5.40000000E-01
  0.00000000E+00  0.00000000E+00  1.00000000E+00  0.00000000E+00  0.00000000E+00
  0.00000000E+00  0.00000000E+00  1.00000000E+00  0.00000000E+00  0.00000000E+00
  0.00000000E+00  0.00000000E+00  1.00000000E+00  0.00000000E+00  0.00000000E+00
  0.00000000E+00  0.00000000E+00  1.00000000E+00  0.00000000E+00  0.00000000E+00
  0.00000000E+00  0.00000000E+00  1.00000000E+00  0.00000000E+00  0.00000000E+00
  0.00000000E+00  0.00000000E+00  1.00000000E+00  0.00000000E+00  0.00000000E+00
  0.00000000E+00  0.00000000E+00  0.00000000E+00  1.00000000E+00  1.00000000E+00
  0.00000000E+00  1.00000000E+00  0.00000000E+00  0.00000000E+00  0.00000000E+00
  0.00000000E+00  0.00000000E+00  0.00000000E+00  0.00000000E+00  0.00000000E+00
  0.00000000E+00  0.00000000E+00
MxBond                                     I                3
NBond                                      I   N=           6
           3           3           1           1           1           1
IBond                                      I   N=          18
           2           3           4           1           5           6
           1           0           0           1           0           0
           2           0           0           2           0           0
RBond                                      R   N=          18
  1.00000000E-01  1.00000000E+00  1.00000000E+00  1.00000000E-01  1.00000000E+00
  1.00000000E+00  1.00000000E+00  0.00000000E+00  0.00000000E+00  1.00000000E+00
  0.00000000E+00  0.00000000E+00  1.00000000E+00  0.00000000E+00  0.00000000E+00
  1.00000000E+00  0.00000000E+00  0.00000000E+00
Virial Ratio                               R      2.003450228431269E+00
SCF Energy                                 R     -7.789577808626586E+01
Total Energy                               R     -7.789577808626586E+01
S**2                                       R      7.586016231931723E-01
S**2 after annihilation                    R      7.500093554144869E-01
RMS Force                                  R      1.160619483055983E-05
RMS Density                                R      4.871614975272869E-09
Job Status                                 I                1
Nuclear derivative order                   I                1
External E-field                           R   N=          35
  0.00000000E+00  0.00000000E+00  0.00000000E+00  0.00000000E+00  0.00000000E+00
  0.00000000E+00  0.00000000E+00  0.00000000E+00  0.00000000E+00  0.00000000E+00
  0.00000000E+00  0.00000000E+00  0.00000000E+00  0.00000000E+00  0.00000000E+00
  0.00000000E+00  0.00000000E+00  0.00000000E+00  0.00000000E+00  0.00000000E+00
  0.00000000E+00  0.00000000E+00  0.00000000E+00  0.00000000E+00  0.00000000E+00
  0.00000000E+00  0.00000000E+00  0.00000000E+00  0.00000000E+00  0.00000000E+00
  0.00000000E+00  0.00000000E+00  0.00000000E+00  0.00000000E+00  0.00000000E+00
IOpCl                                      I                1
IROHF                                      I                0
Alpha Orbital Energies                     R   N=          68
 -1.08478416E+01 -1.08478416E+01 -9.63957728E-01 -9.63957728E-01 -7.10297939E-01
 -7.10297939E-01 -5.37792719E-01 -5.37792718E-01 -2.80686984E-01 -2.80686977E-01
 -8.91819956E-02 -8.91819940E-02 -4.59261290E-02 -4.59243799E-02 -2.80326226E-02
 -2.80308739E-02 -2.64356279E-02 -2.63895754E-02  3.47636061E-02  3.47637322E-02
  4.16446866E-02  4.16462651E-02  3.05443936E-01  3.05446860E-01  3.08027453E-01
  3.08037690E-01  4.19803102E-01  4.19804325E-01  4.32714491E-01  4.32733115E-01
  4.60462130E-01  4.60462546E-01  5.43714577E-01  5.43722480E-01  8.82630253E-01
  8.82630253E-01  9.77557952E-01  9.77558380E-01  1.02391537E+00  1.02391538E+00
  1.26410915E+00  1.26410943E+00  1.33901048E+00  1.33901219E+00  1.51175728E+00
  1.51175808E+00  1.61124314E+00  1.61124320E+00  1.75042728E+00  1.75042728E+00
  1.86553208E+00  1.86553214E+00  2.21252683E+00  2.21252831E+00  2.29089921E+00
  2.29089921E+00  2.30881466E+00  2.30881468E+00  2.44429425E+00  2.44429838E+00
  2.53240589E+00  2.53240641E+00  2.73333602E+00  2.73334704E+00  3.49255966E+00
  3.49255967E+00  2.35432380E+01  2.35432391E+01
Beta Orbital Energies                      R   N=          68
 -1.08405717E+01 -1.08405714E+01 -9.42679042E-01 -9.42637823E-01 -7.00290413E-01
 -7.00290303E-01 -3.92747294E-01 -3.70150209E-01 -2.64789768E-01 -2.64781907E-01
 -9.22004884E-02 -9.21756465E-02 -5.10208601E-02 -5.10177996E-02 -3.29198302E-02
 -3.29172944E-02 -2.93589732E-02 -2.93038954E-02  3.53290656E-02  3.53291282E-02
  4.64191355E-02  4.64479239E-02  3.02971389E-01  3.02984564E-01  3.04984907E-01
  3.04995601E-01  4.20339847E-01  4.20341686E-01  4.51690993E-01  4.51710311E-01
  4.72320657E-01  4.72321149E-01  5.55164113E-01  5.55178500E-01  8.94950242E-01
  8.94950243E-01  1.00091174E+00  1.00095267E+00  1.04263980E+00  1.04265480E+00
  1.27379335E+00  1.27379364E+00  1.35054557E+00  1.35054762E+00  1.52447110E+00
  1.52447334E+00  1.61625737E+00  1.61625774E+00  1.75811946E+00  1.75811950E+00
  1.87566501E+00  1.87566540E+00  2.22388817E+00  2.22388985E+00  2.30571971E+00
  2.30572017E+00  2.33716642E+00  2.33716647E+00  2.45687624E+00  2.45688008E+00
  2.54651109E+00  2.54651197E+00  2.76760658E+00  2.76761804E+00  3.51900512E+00
  3.51900513E+00  2.35483613E+01  2.35483624E+01
Alpha MO coefficients                      R   N=        4624
  4.81498134E-01  3.96112188E-01 -7.37913007E-04  2.58767187E-08 -2.43990223E-12
  9.58000039E-03 -1.64106135E-03  6.34420317E-08 -5.83850052E-12 -3.08899187E-03
  1.38105084E-04 -4.60172012E-09  1.63601757E-13 -6.78366917E-04  5.19106104E-04
 -1.91253430E-08  2.02043413E-12 -9.55207498E-04  2.83979265E-12  1.84773155E-13
 -7.73761503E-04  5.03707559E-08 -2.93977335E-01 -2.41845184E-01 -4.50532293E-04
  1.57990485E-08  3.08701415E-12 -5.84904563E-03 -1.00193994E-03  3.87338590E-08
  7.57258550E-12  1.88598459E-03  8.43074460E-05 -2.80925300E-09 -4.24454385E-13
  4.14177231E-04  3.16955343E-04 -1.16763121E-08 -2.45900440E-12  5.83199375E-04
  3.61963131E-12  1.13199585E-13  4.72417670E-04 -3.07538901E-08  2.67961140E-04
 -2.54064738E-03  2.02411332E-03 -8.81564009E-04 -1.39156309E-03 -3.18601863E-12
  2.67959541E-04 -2.54065873E-03  2.02411984E-03 -8.81470665E-04  1.39162944E-03
 -3.02463288E-12 -1.63604021E-04  1.55118923E-03 -1.23582498E-03 -5.38235738E-04
 -8.49614748E-04  4.02308676E-12 -1.63603045E-04  1.55119616E-03 -1.23582895E-03
 -5.38178747E-04  8.49655254E-04  3.92472970E-12  2.93977335E-01  2.41845186E-01
 -4.50527265E-04  1.57987563E-08 -1.49076051E-12  5.84903521E-03 -1.00195735E-03
  3.87354466E-08 -3.56318050E-12 -1.88595504E-03  8.43464286E-05 -2.81024829E-09
  9.92068887E-14 -4.14170174E-04  3.16902515E-04 -1.16782614E-08  1.23443248E-12
 -5.83199002E-04  1.73371626E-12  1.13641707E-13 -4.72418451E-04  3.07533514E-08
  4.81498134E-01  3.96112188E-01  7.37909938E-04 -2.58765384E-08 -5.05573447E-12
  9.57999403E-03  1.64107198E-03 -6.34430037E-08 -1.24021954E-11 -3.08897383E-03
 -1.38128885E-04  4.60232359E-09  6.93607986E-13 -6.78362608E-04 -5.19073851E-04
  1.91265333E-08  4.02900638E-12 -9.55207271E-04 -5.92755469E-12 -1.85366082E-13
 -7.73761980E-04  5.03704239E-08  1.63600517E-04 -1.55117616E-03  1.23579861E-03
 -5.38237953E-04 -8.49615363E-04 -1.94566970E-12  1.63599542E-04 -1.55118309E-03
  1.23580260E-03 -5.38180962E-04  8.49655870E-04 -1.84735779E-12  2.67959001E-04
 -2.54063940E-03  2.02409722E-03  8.81565362E-04  1.39156347E-03 -6.58987356E-12
  2.67957403E-04 -2.54065075E-03  2.02410374E-03  8.81472018E-04 -1.39162981E-03
 -6.42897088E-12 -8.31290260E-02 -1.34787589E-01 -3.70236807E-02  1.36848485E-06
 -1.82171152E-10  3.80473320E-01 -5.34476933E-02  1.95459266E-06 -2.77723655E-10
  2.42978849E-01 -2.28925465E-02  8.34208830E-07 -1.08726904E-10  2.08346509E-03
 -2.96840718E-03  1.04004665E-07 -8.89278490E-12 -5.61703334E-03  4.09846498E-12
  7.75507351E-13 -3.45516601E-03  2.25203629E-07  7.48681622E-02  1.21393207E-01
 -3.33444889E-02  1.23249300E-06  3.41848777E-10 -3.42664163E-01 -4.81363849E-02
  1.76035719E-06  5.20806855E-10 -2.18833077E-01 -2.06176140E-02  7.51309884E-07
  2.04251001E-10 -1.87642606E-03 -2.67343989E-03  9.36688087E-08  1.64912931E-11
  5.05884614E-03  8.02990434E-12  6.97930341E-13  3.11181237E-03 -2.02824161E-07
  8.17258243E-02  9.78215566E-02 -4.93288571E-03  5.80580455E-03  1.39682941E-02
  2.54166263E-11  8.17259742E-02  9.78216996E-02 -4.93288426E-03  5.80484592E-03
 -1.39687081E-02  2.36507898E-11 -7.36044019E-02 -8.81006403E-02  4.44269296E-03
  5.22885822E-03  1.25802088E-02 -4.69046442E-11 -7.36045368E-02 -8.81007691E-02
  4.44269165E-03  5.22799486E-03 -1.25805817E-02 -4.53149395E-11 -7.48681625E-02
 -1.21393209E-01 -3.33444948E-02  1.23249336E-06 -1.64067937E-10  3.42664184E-01
 -4.81363573E-02  1.76035476E-06 -2.50124669E-10  2.18832997E-01 -2.06177045E-02
  7.51312703E-07 -9.79232823E-11  1.87639196E-03 -2.67327889E-03  9.36739068E-08
 -8.00817477E-12 -5.05884759E-03  3.69077593E-12  6.98341660E-13 -3.11181207E-03
  2.02825036E-07 -8.31290262E-02 -1.34787590E-01  3.70236859E-02 -1.36848516E-06
 -3.79568071E-10  3.80473340E-01  5.34476685E-02 -1.95459045E-06 -5.78270382E-10
  2.42978777E-01  2.28926279E-02 -8.34211342E-07 -2.26790156E-10  2.08343439E-03
  2.96826218E-03 -1.04009231E-07 -1.83097147E-11 -5.61703465E-03 -8.91506661E-12
 -7.74499758E-13 -3.45516573E-03  2.25204413E-07  7.36044068E-02  8.81006091E-02
 -4.44261003E-03  5.22886155E-03  1.25802094E-02  2.28910316E-11  7.36045418E-02
  8.81007379E-02 -4.44260875E-03  5.22799819E-03 -1.25805822E-02  2.13007749E-11
  8.17258288E-02  9.78215285E-02 -4.93281102E-03 -5.80580755E-03 -1.39682946E-02
  5.20802081E-11  8.17259786E-02  9.78216715E-02 -4.93280959E-03 -5.80484892E-03
  1.39687086E-02  5.03151982E-11  5.24968770E-08  8.86033141E-08  7.68498735E-06
  2.22898161E-01  1.42755459E-11 -2.69186328E-07  1.14444621E-05  3.31187580E-01
  2.11138425E-11 -3.79406322E-07  5.65038734E-06  1.62338452E-01  9.86810946E-12
 -2.80668501E-08 -1.36747316E-07 -4.25746925E-03 -4.64127026E-13 -4.20743394E-09
 -2.05369967E-12 -1.45716882E-10 -2.46694022E-06 -3.54958719E-02  3.30577915E-09
  5.57941717E-09 -4.83931554E-07 -1.40361286E-02  8.98510404E-13 -1.69506211E-08
 -7.20670017E-07 -2.08552263E-02  1.32993423E-12 -2.38929171E-08 -3.55809511E-07
 -1.02226210E-02  6.20352180E-13 -1.76839001E-09  8.60861816E-09  2.68100960E-04
 -2.82624070E-14 -2.64975144E-10  1.29584692E-13  1.91453720E-11 -1.55345810E-07
 -2.23521218E-03 -1.48803546E-01 -2.13923717E-01 -5.58651467E-02 -1.16084729E-02
 -1.06785515E-02 -4.56571119E-11  1.48803510E-01  2.13923634E-01  5.58652289E-02
  1.16077295E-02 -1.06793368E-02  4.44122832E-11 -9.37031398E-03 -1.34709971E-02
 -3.51789041E-03  7.30997507E-04  6.72439346E-04 -5.96394392E-12  9.37031170E-03
  1.34709919E-02  3.51789558E-03 -7.30950694E-04  6.72488793E-04  5.88586690E-12
  3.30578668E-09  5.57946808E-09  4.83931710E-07  1.40361287E-02  8.99213531E-13
 -1.69512632E-08  7.20669299E-07  2.08552254E-02  1.32980438E-12 -2.38903031E-08
  3.55812015E-07  1.02226208E-02  6.22812200E-13 -1.76640831E-09 -8.61363956E-09
 -2.68093529E-04 -3.07846146E-14 -2.64917034E-10 -1.29432351E-13 -9.17603478E-12
 -1.55345763E-07 -2.23521164E-03 -5.24968760E-08 -8.86033149E-08  7.68498730E-06
  2.22898161E-01 -1.42691550E-11  2.69186357E-07  1.14444620E-05  3.31187580E-01
 -2.11066127E-11  3.79406153E-07  5.65038746E-06  1.62338452E-01 -9.86225835E-12
  2.80667304E-08 -1.36747625E-07 -4.25746878E-03  4.61677007E-13  4.20743078E-09
 -2.05820534E-12 -3.04035226E-10  2.46694020E-06  3.54958718E-02 -9.37031367E-03
 -1.34710001E-02 -3.51788216E-03 -7.30997676E-04 -6.72439614E-04 -2.87520645E-12
  9.37031140E-03  1.34709949E-02  3.51788733E-03  7.30950863E-04 -6.72489062E-04
  2.79663363E-12  1.48803546E-01  2.13923718E-01  5.58651462E-02 -1.16084729E-02
 -1.06785516E-02  9.47066083E-11 -1.48803510E-01 -2.13923634E-01 -5.58652284E-02
  1.16077295E-02 -1.06793368E-02 -9.34618038E-11 -3.25555271E-02 -5.48955874E-02
  1.92408713E-01 -6.66268685E-06  3.28406783E-10  1.75277748E-01  2.89588249E-01
 -1.00100312E-05  4.65184822E-10  2.07472649E-01  2.34771450E-01 -8.06994027E-06
  3.77054167E-10  7.14866540E-03  1.05903420E-02 -3.50098467E-07  3.50432528E-11
  1.33621339E-02 -1.17592063E-10 -8.41831635E-13 -6.21409117E-03  4.33870822E-07
 -3.14382646E-02 -5.30116436E-02 -1.85805501E-01  6.43403222E-06  6.70729148E-10
  1.69262449E-01 -2.79649965E-01  9.66650022E-06  9.51497377E-10  2.00352462E-01
 -2.26714403E-01  7.79299049E-06  7.71390009E-10  6.90333599E-03 -1.02268982E-02
  3.38083435E-07  7.10298407E-11  1.29035632E-02  2.37070737E-10  8.08482685E-13
 -6.00083174E-03  4.18980956E-07 -4.80473219E-02 -7.76166568E-02 -2.86238794E-02
  8.52157012E-03 -9.14194842E-03  7.89922717E-12 -4.80472955E-02 -7.76166149E-02
 -2.86239124E-02  8.52221040E-03  9.14135898E-03  8.97845579E-12 -4.63984015E-02
 -7.49529558E-02 -2.76415471E-02 -8.22912123E-03  8.82820883E-03  1.69984763E-11
 -4.63983760E-02 -7.49529154E-02 -2.76415790E-02 -8.22973953E-03 -8.82763961E-03
  1.80405586E-11 -3.14382652E-02 -5.30116443E-02  1.85805508E-01 -6.43403257E-06
  3.17137196E-10  1.69262444E-01  2.79649949E-01 -9.66649900E-06  4.49218945E-10
  2.00352490E-01  2.26714475E-01 -7.79299307E-06  3.64116857E-10  6.90323820E-03
  1.02268202E-02 -3.38087568E-07  3.38397860E-11  1.29035623E-02 -1.13556419E-10
 -8.12523631E-13 -6.00083376E-03  4.18980670E-07  3.25555277E-02  5.48955881E-02
  1.92408720E-01 -6.66268710E-06 -6.94566005E-10 -1.75277744E-01  2.89588234E-01
 -1.00100299E-05 -9.85312568E-10 -2.07472676E-01  2.34771520E-01 -8.06994268E-06
 -7.98803262E-10 -7.14857098E-03  1.05902668E-02 -3.50102507E-07 -7.35552643E-11
 -1.33621330E-02 -2.45496155E-10 -8.37047553E-13  6.21409312E-03 -4.33870537E-07
 -4.63984017E-02 -7.49529633E-02 -2.76415081E-02  8.22911859E-03 -8.82821034E-03
  7.62808053E-12 -4.63983761E-02 -7.49529229E-02 -2.76415400E-02  8.22973690E-03
  8.82764112E-03  8.67042681E-12  4.80473220E-02  7.76166640E-02  2.86238417E-02
  8.52156758E-03 -9.14194989E-03 -1.76030520E-11  4.80472956E-02  7.76166222E-02
  2.86238747E-02  8.52220786E-03  9.14136044E-03 -1.86819238E-11 -5.67260790E-11
 -8.81776413E-11 -4.00855156E-10 -1.16712858E-11  1.85006512E-01  2.25040636E-10
 -6.72896346E-10 -2.06707560E-11  2.97041397E-01  4.39294408E-10 -7.27606038E-10
 -2.50763380E-11  3.18141266E-01  1.18439820E-10 -1.34029787E-10 -9.22269316E-12
  7.29489937E-02 -1.09284570E-10 -9.99175256E-03  3.56279339E-07  2.29842810E-11
  1.82080189E-12 -1.16285904E-10 -1.80944687E-10  8.38838747E-10  1.15862978E-11
  1.83975923E-01  4.60791789E-10  1.40713371E-09  2.05211529E-11  2.95386712E-01
  9.02781066E-10  1.52141477E-09  2.48868423E-11  3.16369042E-01  2.46187559E-10
  2.81723653E-10  9.15001279E-12  7.25426290E-02 -2.26182581E-10  9.93609294E-03
 -3.54294664E-07  4.79757429E-11  1.80723164E-12 -6.01639579E-11 -1.08091952E-10
 -7.42293923E-11 -4.58727583E-11 -2.11151955E-11  1.65599871E-02 -5.95115796E-11
 -1.04038947E-10 -6.02039413E-11 -4.48201239E-11  1.73356730E-11  1.65599986E-02
 -1.23085235E-10 -2.19951428E-10 -1.45704841E-10  9.50887253E-11  4.14614961E-11
  1.64677388E-02 -1.22437994E-10 -2.15922291E-10 -1.31808783E-10  9.40416013E-11
 -3.77101876E-11  1.64677502E-02  5.64100272E-11  8.76864529E-11  3.98623647E-10
  1.16058819E-11 -1.83975947E-01 -2.23788425E-10  6.69146651E-10  2.05567794E-11
 -2.95386698E-01 -4.36840188E-10  7.23564686E-10  2.49327343E-11 -3.16369229E-01
 -1.17781740E-10  1.33261132E-10  9.16746331E-12 -7.25423277E-02  1.08676281E-10
  9.93609489E-03 -3.54294735E-07 -2.28558284E-11 -1.81117896E-12 -1.16937240E-10
 -1.81958280E-10  8.43538968E-10  1.16510831E-11  1.85006536E-01  4.63373141E-10
  1.41501538E-09  2.06365381E-11  2.97041384E-01  9.07840104E-10  1.52994582E-09