 Entering Gaussian System, Link 0=g16
 Initial command:
 /home/szhao/Apps/g16/l1.exe "/home/szhao/tmp/Gau-51485.inp" -scrdir="/home/szhao/tmp/"
 Default is to use a total of  16 processors:
                               16 via shared-memory
                                1 via Linda
 Entering Link 1 = /home/szhao/Apps/g16/l1.exe PID=     51486.
  
 Copyright (c) 1988,1990,1992,1993,1995,1998,2003,2009,2016,
            Gaussian, Inc.  All Rights Reserved.
  
 This is part of the Gaussian(R) 16 program.  It is based on
 the Gaussian(R) 09 system (copyright 2009, Gaussian, Inc.),
 the Gaussian(R) 03 system (copyright 2003, Gaussian, Inc.),
 the Gaussian(R) 98 system (copyright 1998, Gaussian, Inc.),
 the Gaussian(R) 94 system (copyright 1995, Gaussian, Inc.),
 the Gaussian 92(TM) system (copyright 1992, Gaussian, Inc.),
 the Gaussian 90(TM) system (copyright 1990, Gaussian, Inc.),
 the Gaussian 88(TM) system (copyright 1988, Gaussian, Inc.),
 the Gaussian 86(TM) system (copyright 1986, Carnegie Mellon
 University), and the Gaussian 82(TM) system (copyright 1983,
 Carnegie Mellon University). Gaussian is a federally registered
 trademark of Gaussian, Inc.
  
 This software contains proprietary and confidential information,
 including trade secrets, belonging to Gaussian, Inc.
  
 This software is provided under written license and may be
 used, copied, transmitted, or stored only in accord with that
 written license.
  
 The following legend is applicable only to US Government
 contracts under FAR:
  
                    RESTRICTED RIGHTS LEGEND
  
 Use, reproduction and disclosure by the US Government is
 subject to restrictions as set forth in subparagraphs (a)
 and (c) of the Commercial Computer Software - Restricted
 Rights clause in FAR 52.227-19.
  
 Gaussian, Inc.
 340 Quinnipiac St., Bldg. 40, Wallingford CT 06492
  
  
 ---------------------------------------------------------------
 Warning -- This program may not be used in any manner that
 competes with the business of Gaussian, Inc. or will provide
 assistance to any competitor of Gaussian, Inc.  The licensee
 of this program is prohibited from giving any competitor of
 Gaussian, Inc. access to this program.  By using this program,
 the user acknowledges that Gaussian, Inc. is engaged in the
 business of creating and licensing software in the field of
 computational chemistry and represents and warrants to the
 licensee that it is not a competitor of Gaussian, Inc. and that
 it will not use this program in any manner prohibited above.
 ---------------------------------------------------------------
  

 Cite this work as:
 Gaussian 16, Revision A.03,
 M. J. Frisch, G. W. Trucks, H. B. Schlegel, G. E. Scuseria, 
 M. A. Robb, J. R. Cheeseman, G. Scalmani, V. Barone, 
 G. A. Petersson, H. Nakatsuji, X. Li, M. Caricato, A. V. Marenich, 
 J. Bloino, B. G. Janesko, R. Gomperts, B. Mennucci, H. P. Hratchian, 
 J. V. Ortiz, A. F. Izmaylov, J. L. Sonnenberg, D. Williams-Young, 
 F. Ding, F. Lipparini, F. Egidi, J. Goings, B. Peng, A. Petrone, 
 T. Henderson, D. Ranasinghe, V. G. Zakrzewski, J. Gao, N. Rega, 
 G. Zheng, W. Liang, M. Hada, M. Ehara, K. Toyota, R. Fukuda, 
 J. Hasegawa, M. Ishida, T. Nakajima, Y. Honda, O. Kitao, H. Nakai, 
 T. Vreven, K. Throssell, J. A. Montgomery, Jr., J. E. Peralta, 
 F. Ogliaro, M. J. Bearpark, J. J. Heyd, E. N. Brothers, K. N. Kudin, 
 V. N. Staroverov, T. A. Keith, R. Kobayashi, J. Normand, 
 K. Raghavachari, A. P. Rendell, J. C. Burant, S. S. Iyengar, 
 J. Tomasi, M. Cossi, J. M. Millam, M. Klene, C. Adamo, R. Cammi, 
 J. W. Ochterski, R. L. Martin, K. Morokuma, O. Farkas, 
 J. B. Foresman, and D. J. Fox, Gaussian, Inc., Wallingford CT, 2016.
 
 ******************************************
 Gaussian 16:  ES64L-G16RevA.03 25-Dec-2016
                21-Apr-2025 
 ******************************************
 %chk=opt.chk
 %mem=4GB
 %nprocshared=8
 Will use up to    8 processors via shared memory.
 --------------------------------------------
 #p opt UM062X/6-311+G** nosymm int=superfine
 --------------------------------------------
 1/18=20,19=15,26=5,38=1/1,3;
 2/9=110,12=2,15=1,17=6,18=5,40=1/2;
 3/5=4,6=6,7=111,11=2,25=1,30=1,71=1,74=-55,75=-7,116=2/1,2,3;
 4//1;
 5/5=2,38=5/2;
 6/7=2,8=2,9=2,10=2,28=1/1;
 7/30=1/1,2,3,16;
 1/18=20,19=15,26=5/3(2);
 2/9=110,15=1/2;
 99//99;
 2/9=110,15=1/2;
 3/5=4,6=6,7=111,11=2,25=1,30=1,71=1,74=-55,75=-7,116=2/1,2,3;
 4/5=5,16=3,69=1/1;
 5/5=2,38=5/2;
 7/30=1/1,2,3,16;
 1/18=20,19=15,26=5/3(-5);
 2/9=110,15=1/2;
 6/7=2,8=2,9=2,10=2,19=2,28=1/1;
 99/9=1/99;
 Leave Link    1 at Mon Apr 21 17:26:02 2025, MaxMem=   536870912 cpu:               1.1 elap:               0.1
 (Enter /home/szhao/Apps/g16/l101.exe)
 -------------------
 Title Card Required
 -------------------
 Symbolic Z-matrix:
 Charge = -1 Multiplicity = 2
 B                    -1   -1.4914    0.        0. 
 B                    -1    1.4914    0.        0. 
 H                    0    -2.67518  -0.0009    0. 
 H                    0     2.67518   0.0009    0. 
 
 Add virtual bond connecting atoms B2         and B1         Dist= 5.64D+00.
 ITRead=  2  2  0  0
 MicOpt= -2 -2 -1 -1
 NAtoms=      4 NQM=        2 NQMF=       2 NMMI=      0 NMMIF=      0
                NMic=       0 NMicF=      0.
                    Isotopes and Nuclear Properties:
 (Nuclear quadrupole moments (NQMom) in fm**2, nuclear magnetic moments (NMagM)
  in nuclear magnetons)

  Atom         1           2           3           4
 IAtWgt=          11          11           1           1
 AtmWgt=  11.0093053  11.0093053   1.0078250   1.0078250
 NucSpn=           3           3           1           1
 AtZEff=  -0.0000000  -0.0000000  -0.0000000  -0.0000000
 NQMom=    4.0590000   4.0590000   0.0000000   0.0000000
 NMagM=    2.6886370   2.6886370   2.7928460   2.7928460
 AtZNuc=   5.0000000   5.0000000   1.0000000   1.0000000
 Leave Link  101 at Mon Apr 21 17:26:02 2025, MaxMem=   536870912 cpu:               4.8 elap:               0.6
 (Enter /home/szhao/Apps/g16/l103.exe)

 GradGradGradGradGradGradGradGradGradGradGradGradGradGradGradGradGradGrad
 Berny optimization.
 Initialization pass.
                           ----------------------------
                           !    Initial Parameters    !
                           ! (Angstroms and Degrees)  !
 --------------------------                            --------------------------
 ! Name  Definition              Value          Derivative Info.                !
 --------------------------------------------------------------------------------
 ! X1    R(1,-1)                -1.4914         Frozen                          !
 ! Y1    R(1,-2)                 0.0            Frozen                          !
 ! Z1    R(1,-3)                 0.0            Frozen                          !
 ! X2    R(2,-1)                 1.4914         Frozen                          !
 ! Y2    R(2,-2)                 0.0            Frozen                          !
 ! Z2    R(2,-3)                 0.0            Frozen                          !
 ! R1    R(1,3)                  1.1838         estimate D2E/DX2                !
 ! R2    R(2,4)                  1.1838         estimate D2E/DX2                !
 ! A1    L(2,1,3,-3,-1)        179.9562         estimate D2E/DX2                !
 ! A2    L(1,2,4,-3,-1)        179.9562         estimate D2E/DX2                !
 ! A3    L(2,1,3,-2,-2)        180.0            estimate D2E/DX2                !
 ! A4    L(1,2,4,-2,-2)        180.0            estimate D2E/DX2                !
 --------------------------------------------------------------------------------
 Trust Radius=3.00D-01 FncErr=1.00D-07 GrdErr=1.00D-07 EigMax=2.50D+02 EigMin=1.00D-04
 Number of steps in this run=     22 maximum allowed number of steps=    100.
 GradGradGradGradGradGradGradGradGradGradGradGradGradGradGradGradGradGrad

 Leave Link  103 at Mon Apr 21 17:26:03 2025, MaxMem=   536870912 cpu:               0.2 elap:               0.1
 (Enter /home/szhao/Apps/g16/l202.exe)
                          Input orientation:                          
 ---------------------------------------------------------------------
 Center     Atomic      Atomic             Coordinates (Angstroms)
 Number     Number       Type             X           Y           Z
 ---------------------------------------------------------------------
      1          5           0       -1.491404    0.000000    0.000000
      2          5           0        1.491404    0.000000    0.000000
      3          1           0       -2.675183   -0.000904    0.000000
      4          1           0        2.675183    0.000904    0.000000
 ---------------------------------------------------------------------
                    Distance matrix (angstroms):
                    1          2          3          4
     1  B    0.000000
     2  B    2.982808   0.000000
     3  H    1.183779   4.166587   0.000000
     4  H    4.166587   1.183779   5.350366   0.000000
 Symmetry turned off by external request.
 Stoichiometry    B2H2(1-,2)
 Framework group  C*V[C*(HBBH)]
 Deg. of freedom     3
 Full point group                 C*V     NOp   4
 Rotational constants (GHZ):           0.0000000           7.9711651           7.9711650
 Leave Link  202 at Mon Apr 21 17:26:03 2025, MaxMem=   536870912 cpu:               0.0 elap:               0.0
 (Enter /home/szhao/Apps/g16/l301.exe)
 Standard basis: 6-311+G(d,p) (5D, 7F)
 Ernie: Thresh=  0.10000D-02 Tol=  0.10000D-05 Strict=F.
    56 basis functions,    88 primitive gaussians,    58 cartesian basis functions
     7 alpha electrons        6 beta electrons
       nuclear repulsion energy        10.2744164045 Hartrees.
 IExCor= 4336 DFT=T Ex+Corr=M062X ExCW=0 ScaHFX=  0.540000
 ScaDFX=  1.000000  1.000000  1.000000  1.000000 ScalE2=  1.000000  1.000000
 IRadAn=      7 IRanWt=     -1 IRanGd=            0 ICorTp=0 IEmpDi=  4
 NAtoms=    4 NActive=    4 NUniq=    4 SFac= 1.00D+00 NAtFMM=   60 NAOKFM=F Big=F
 Integral buffers will be    131072 words long.
 Raffenetti 2 integral format.
 Two-electron integral symmetry is turned off.
 Leave Link  301 at Mon Apr 21 17:26:03 2025, MaxMem=   536870912 cpu:               0.7 elap:               0.1
 (Enter /home/szhao/Apps/g16/l302.exe)
 NPDir=0 NMtPBC=     1 NCelOv=     1 NCel=       1 NClECP=     1 NCelD=      1
         NCelK=      1 NCelE2=     1 NClLst=     1 CellRange=     0.0.
 One-electron integrals computed using PRISM.
 NBasis=    56 RedAO= T EigKep=  3.99D-03  NBF=    56
 NBsUse=    56 1.00D-06 EigRej= -1.00D+00 NBFU=    56
 Precomputing XC quadrature grid using
 IXCGrd= 4 IRadAn=           7 IRanWt=          -1 IRanGd=           0 AccXCQ= 0.00D+00.
 Generated NRdTot=       0 NPtTot=           0 NUsed=           0 NTot=          32
 NSgBfM=    58    58    58    58    58 MxSgAt=     4 MxSgA2=     4.
 Leave Link  302 at Mon Apr 21 17:26:04 2025, MaxMem=   536870912 cpu:               2.3 elap:               0.3
 (Enter /home/szhao/Apps/g16/l303.exe)
 DipDrv:  MaxL=1.
 Leave Link  303 at Mon Apr 21 17:26:04 2025, MaxMem=   536870912 cpu:               0.8 elap:               0.1
 (Enter /home/szhao/Apps/g16/l401.exe)
 ExpMin= 3.15D-02 ExpMax= 2.86D+03 ExpMxC= 4.28D+02 IAcc=3 IRadAn=         7 AccDes= 0.00D+00
 Harris functional with IExCor= 1009 and IRadAn=       7 diagonalized for initial guess.
 HarFok:  IExCor= 1009 AccDes= 0.00D+00 IRadAn=         7 IDoV= 1 UseB2=F ITyADJ=14
 ICtDFT=  3500011 ScaDFX=  1.000000  1.000000  1.000000  1.000000
 FoFCou: FMM=F IPFlag=           0 FMFlag=      100000 FMFlg1=           0
         NFxFlg=           0 DoJE=T BraDBF=F KetDBF=T FulRan=T
         wScrn=  0.000000 ICntrl=       500 IOpCl=  0 I1Cent=   200000004 NGrid=           0
         NMat0=    1 NMatS0=      1 NMatT0=    0 NMatD0=    1 NMtDS0=    0 NMtDT0=    0
 Symmetry not used in FoFCou.
 Harris En= -50.6261133107524    
 JPrj=0 DoOrth=F DoCkMO=F.
 Initial guess <Sx>= 0.0000 <Sy>= 0.0000 <Sz>= 0.5000 <S**2>= 0.7500 S= 0.5000
 Leave Link  401 at Mon Apr 21 17:26:04 2025, MaxMem=   536870912 cpu:               3.2 elap:               0.4
 (Enter /home/szhao/Apps/g16/l502.exe)
 Keep R1 and R2 ints in memory in canonical form, NReq=9624198.
 FoFCou: FMM=F IPFlag=           0 FMFlag=           0 FMFlg1=           0
         NFxFlg=           0 DoJE=F BraDBF=F KetDBF=F FulRan=T
         wScrn=  0.000000 ICntrl=       600 IOpCl=  0 I1Cent=           0 NGrid=           0
         NMat0=    1 NMatS0=   1596 NMatT0=    0 NMatD0=    1 NMtDS0=    0 NMtDT0=    0
 Symmetry not used in FoFCou.
 Two-electron integral symmetry not used.
 UHF open shell SCF:
 Using DIIS extrapolation, IDIIS=  1040.
 NGot=   536870912 LenX=   534314338 LenY=   534310533
 Requested convergence on RMS density matrix=1.00D-08 within 128 cycles.
 Requested convergence on MAX density matrix=1.00D-06.
 Requested convergence on             energy=1.00D-06.
 No special actions if energy rises.

 Cycle   1  Pass 1  IDiag  1:
 E= -50.4817014810583    
 DIIS: error= 3.12D-02 at cycle   1 NSaved=   1.
 NSaved= 1 IEnMin= 1 EnMin= -50.4817014810583     IErMin= 1 ErrMin= 3.12D-02
 ErrMax= 3.12D-02  0.00D+00 EMaxC= 1.00D-01 BMatC= 1.13D-01 BMatP= 1.13D-01
 IDIUse=3 WtCom= 6.88D-01 WtEn= 3.12D-01
 Coeff-Com:  0.100D+01
 Coeff-En:   0.100D+01
 Coeff:      0.100D+01
 Gap=     0.126 Goal=   None    Shift=    0.000
 Gap=     0.151 Goal=   None    Shift=    0.000
 GapD=    0.126 DampG=1.000 DampE=0.500 DampFc=0.5000 IDamp=-1.
 Damping current iteration by 5.00D-01
 RMSDP=6.52D-02 MaxDP=1.29D+00              OVMax= 3.09D-01

 Cycle   2  Pass 1  IDiag  1:
 E= -50.5121524434595     Delta-E=       -0.030450962401 Rises=F Damp=T
 DIIS: error= 1.02D-02 at cycle   2 NSaved=   2.
 NSaved= 2 IEnMin= 2 EnMin= -50.5121524434595     IErMin= 2 ErrMin= 1.02D-02
 ErrMax= 1.02D-02  0.00D+00 EMaxC= 1.00D-01 BMatC= 1.47D-02 BMatP= 1.13D-01
 IDIUse=3 WtCom= 8.98D-01 WtEn= 1.02D-01
 Coeff-Com: -0.327D+00 0.133D+01
 Coeff-En:   0.000D+00 0.100D+01
 Coeff:     -0.294D+00 0.129D+01
 Gap=     0.142 Goal=   None    Shift=    0.000
 Gap=     0.137 Goal=   None    Shift=    0.000
 RMSDP=7.75D-03 MaxDP=1.40D-01 DE=-3.05D-02 OVMax= 1.06D-01

 Cycle   3  Pass 1  IDiag  1:
 E= -50.5415581051451     Delta-E=       -0.029405661686 Rises=F Damp=F
 DIIS: error= 4.18D-03 at cycle   3 NSaved=   3.
 NSaved= 3 IEnMin= 3 EnMin= -50.5415581051451     IErMin= 3 ErrMin= 4.18D-03
 ErrMax= 4.18D-03  0.00D+00 EMaxC= 1.00D-01 BMatC= 5.08D-04 BMatP= 1.47D-02
 IDIUse=3 WtCom= 9.58D-01 WtEn= 4.18D-02
 Coeff-Com: -0.853D-01 0.189D+00 0.897D+00
 Coeff-En:   0.000D+00 0.000D+00 0.100D+01
 Coeff:     -0.817D-01 0.181D+00 0.901D+00
 Gap=     0.103 Goal=   None    Shift=    0.000
 Gap=     0.101 Goal=   None    Shift=    0.000
 RMSDP=1.13D-03 MaxDP=1.94D-02 DE=-2.94D-02 OVMax= 2.94D-02

 Cycle   4  Pass 1  IDiag  1:
 E= -50.5420225697066     Delta-E=       -0.000464464562 Rises=F Damp=F
 DIIS: error= 8.97D-04 at cycle   4 NSaved=   4.
 NSaved= 4 IEnMin= 4 EnMin= -50.5420225697066     IErMin= 4 ErrMin= 8.97D-04
 ErrMax= 8.97D-04  0.00D+00 EMaxC= 1.00D-01 BMatC= 3.81D-05 BMatP= 5.08D-04
 IDIUse=3 WtCom= 9.91D-01 WtEn= 8.97D-03
 Coeff-Com:  0.404D-01-0.949D-01-0.191D+00 0.125D+01
 Coeff-En:   0.000D+00 0.000D+00 0.000D+00 0.100D+01
 Coeff:      0.400D-01-0.940D-01-0.189D+00 0.124D+01
 Gap=     0.103 Goal=   None    Shift=    0.000
 Gap=     0.104 Goal=   None    Shift=    0.000
 RMSDP=1.30D-03 MaxDP=2.69D-02 DE=-4.64D-04 OVMax= 1.80D-02

 Cycle   5  Pass 1  IDiag  1:
 E= -50.5421143487950     Delta-E=       -0.000091779088 Rises=F Damp=F
 DIIS: error= 3.35D-04 at cycle   5 NSaved=   5.
 NSaved= 5 IEnMin= 5 EnMin= -50.5421143487950     IErMin= 5 ErrMin= 3.35D-04
 ErrMax= 3.35D-04  0.00D+00 EMaxC= 1.00D-01 BMatC= 5.69D-06 BMatP= 3.81D-05
 IDIUse=3 WtCom= 9.97D-01 WtEn= 3.35D-03
 Coeff-Com:  0.982D-02-0.179D-01-0.573D-01-0.142D+00 0.121D+01
 Coeff-En:   0.000D+00 0.000D+00 0.000D+00 0.000D+00 0.100D+01
 Coeff:      0.978D-02-0.178D-01-0.571D-01-0.141D+00 0.121D+01
 Gap=     0.103 Goal=   None    Shift=    0.000
 Gap=     0.103 Goal=   None    Shift=    0.000
 RMSDP=6.18D-04 MaxDP=9.90D-03 DE=-9.18D-05 OVMax= 8.02D-03

 Cycle   6  Pass 1  IDiag  1:
 E= -50.5421295384248     Delta-E=       -0.000015189630 Rises=F Damp=F
 DIIS: error= 9.12D-05 at cycle   6 NSaved=   6.
 NSaved= 6 IEnMin= 6 EnMin= -50.5421295384248     IErMin= 6 ErrMin= 9.12D-05
 ErrMax= 9.12D-05  0.00D+00 EMaxC= 1.00D-01 BMatC= 4.64D-07 BMatP= 5.69D-06
 IDIUse=1 WtCom= 1.00D+00 WtEn= 0.00D+00
 Coeff-Com: -0.309D-02 0.688D-02 0.215D-01-0.472D-01-0.318D+00 0.134D+01
 Coeff:     -0.309D-02 0.688D-02 0.215D-01-0.472D-01-0.318D+00 0.134D+01
 Gap=     0.103 Goal=   None    Shift=    0.000
 Gap=     0.102 Goal=   None    Shift=    0.000
 RMSDP=2.04D-04 MaxDP=3.00D-03 DE=-1.52D-05 OVMax= 2.85D-03

 Cycle   7  Pass 1  IDiag  1:
 E= -50.5421311052559     Delta-E=       -0.000001566831 Rises=F Damp=F
 DIIS: error= 1.94D-05 at cycle   7 NSaved=   7.
 NSaved= 7 IEnMin= 7 EnMin= -50.5421311052559     IErMin= 7 ErrMin= 1.94D-05
 ErrMax= 1.94D-05  0.00D+00 EMaxC= 1.00D-01 BMatC= 2.14D-08 BMatP= 4.64D-07
 IDIUse=1 WtCom= 1.00D+00 WtEn= 0.00D+00
 Coeff-Com: -0.350D-03 0.508D-03 0.465D-03 0.719D-02-0.343D-01-0.105D+00
 Coeff-Com:  0.113D+01
 Coeff:     -0.350D-03 0.508D-03 0.465D-03 0.719D-02-0.343D-01-0.105D+00
 Coeff:      0.113D+01
 Gap=     0.103 Goal=   None    Shift=    0.000
 Gap=     0.102 Goal=   None    Shift=    0.000
 RMSDP=2.52D-05 MaxDP=3.56D-04 DE=-1.57D-06 OVMax= 5.15D-04

 Cycle   8  Pass 1  IDiag  1:
 E= -50.5421311763140     Delta-E=       -0.000000071058 Rises=F Damp=F
 DIIS: error= 5.48D-06 at cycle   8 NSaved=   8.
 NSaved= 8 IEnMin= 8 EnMin= -50.5421311763140     IErMin= 8 ErrMin= 5.48D-06
 ErrMax= 5.48D-06  0.00D+00 EMaxC= 1.00D-01 BMatC= 2.98D-09 BMatP= 2.14D-08
 IDIUse=1 WtCom= 1.00D+00 WtEn= 0.00D+00
 Coeff-Com:  0.668D-04-0.101D-03 0.220D-03-0.300D-02 0.194D-01-0.107D-01
 Coeff-Com: -0.413D+00 0.141D+01
 Coeff:      0.668D-04-0.101D-03 0.220D-03-0.300D-02 0.194D-01-0.107D-01
 Coeff:     -0.413D+00 0.141D+01
 Gap=     0.103 Goal=   None    Shift=    0.000
 Gap=     0.102 Goal=   None    Shift=    0.000
 RMSDP=9.31D-06 MaxDP=1.29D-04 DE=-7.11D-08 OVMax= 1.78D-04

 Cycle   9  Pass 1  IDiag  1:
 E= -50.5421311902430     Delta-E=       -0.000000013929 Rises=F Damp=F
 DIIS: error= 4.55D-06 at cycle   9 NSaved=   9.
 NSaved= 9 IEnMin= 9 EnMin= -50.5421311902430     IErMin= 9 ErrMin= 4.55D-06
 ErrMax= 4.55D-06  0.00D+00 EMaxC= 1.00D-01 BMatC= 1.97D-09 BMatP= 2.98D-09
 IDIUse=1 WtCom= 1.00D+00 WtEn= 0.00D+00
 Coeff-Com:  0.505D-04-0.807D-04 0.130D-03-0.198D-02 0.139D-01-0.836D-02
 Coeff-Com: -0.294D+00 0.994D+00 0.296D+00
 Coeff:      0.505D-04-0.807D-04 0.130D-03-0.198D-02 0.139D-01-0.836D-02
 Coeff:     -0.294D+00 0.994D+00 0.296D+00
 Gap=     0.103 Goal=   None    Shift=    0.000
 Gap=     0.102 Goal=   None    Shift=    0.000
 RMSDP=8.01D-07 MaxDP=6.75D-06 DE=-1.39D-08 OVMax= 3.26D-05

 Cycle  10  Pass 1  IDiag  1:
 E= -50.5421311929389     Delta-E=       -0.000000002696 Rises=F Damp=F
 DIIS: error= 4.79D-06 at cycle  10 NSaved=  10.
 NSaved=10 IEnMin=10 EnMin= -50.5421311929389     IErMin= 9 ErrMin= 4.55D-06
 ErrMax= 4.79D-06  0.00D+00 EMaxC= 1.00D-01 BMatC= 2.16D-09 BMatP= 1.97D-09
 IDIUse=1 WtCom= 1.00D+00 WtEn= 0.00D+00
 Large coefficients: NSaved= 10 BigCof=   20.46 CofMax=   10.00 Det=-3.13D-12
 Inversion failed.  Reducing to  9 matrices.
 Large coefficients: NSaved=  9 BigCof=   20.51 CofMax=   10.00 Det=-3.13D-12
 Inversion failed.  Reducing to  8 matrices.
 Large coefficients: NSaved=  8 BigCof=   19.45 CofMax=   10.00 Det=-3.41D-12
 Inversion failed.  Reducing to  7 matrices.
 Large coefficients: NSaved=  7 BigCof=   17.36 CofMax=   10.00 Det=-4.27D-12
 Inversion failed.  Reducing to  6 matrices.
 Large coefficients: NSaved=  6 BigCof=   16.44 CofMax=   10.00 Det=-4.70D-12
 Inversion failed.  Reducing to  5 matrices.
 Large coefficients: NSaved=  5 BigCof=   16.42 CofMax=   10.00 Det=-4.87D-12
 Inversion failed.  Reducing to  4 matrices.
 Large coefficients: NSaved=  4 BigCof=   15.93 CofMax=   10.00 Det=-4.98D-12
 Inversion failed.  Reducing to  3 matrices.
 Large coefficients: NSaved=  3 BigCof=   15.54 CofMax=   10.00 Det=-5.52D-12
 Inversion failed.  Reducing to  2 matrices.
 Large coefficients: NSaved=  2 BigCof=   11.78 CofMax=   10.00 Det=-8.59D-12
 Coeff-Com:  0.118D+02-0.108D+02
 Coeff:      0.118D+02-0.108D+02
 Gap=     0.103 Goal=   None    Shift=    0.000
 Gap=     0.102 Goal=   None    Shift=    0.000
 RMSDP=7.84D-06 MaxDP=7.18D-05 DE=-2.70D-09 OVMax= 3.44D-04

 Cycle  11  Pass 1  IDiag  1:
 E= -50.5421311723749     Delta-E=        0.000000020564 Rises=F Damp=F
 DIIS: error= 2.20D-06 at cycle  11 NSaved=   3.
 NSaved= 3 IEnMin= 2 EnMin= -50.5421311929389     IErMin= 3 ErrMin= 2.20D-06
 ErrMax= 2.20D-06  0.00D+00 EMaxC= 1.00D-01 BMatC= 5.56D-10 BMatP= 1.97D-09
 IDIUse=1 WtCom= 1.00D+00 WtEn= 0.00D+00
 Coeff-Com: -0.952D+01 0.795D+01 0.258D+01
 Coeff:     -0.952D+01 0.795D+01 0.258D+01
 Gap=     0.103 Goal=   None    Shift=    0.000
 Gap=     0.102 Goal=   None    Shift=    0.000
 RMSDP=5.68D-06 MaxDP=4.87D-05 DE= 2.06D-08 OVMax= 2.39D-04

 Cycle  12  Pass 1  IDiag  1:
 E= -50.5421311682209     Delta-E=        0.000000004154 Rises=F Damp=F
 DIIS: error= 7.28D-07 at cycle  12 NSaved=   4.
 NSaved= 4 IEnMin= 2 EnMin= -50.5421311929389     IErMin= 4 ErrMin= 7.28D-07
 ErrMax= 7.28D-07  0.00D+00 EMaxC= 1.00D-01 BMatC= 5.34D-11 BMatP= 5.56D-10
 IDIUse=1 WtCom= 1.00D+00 WtEn= 0.00D+00
 Coeff-Com: -0.541D+01 0.468D+01 0.918D+00 0.812D+00
 Coeff:     -0.541D+01 0.468D+01 0.918D+00 0.812D+00
 Gap=     0.103 Goal=   None    Shift=    0.000
 Gap=     0.102 Goal=   None    Shift=    0.000
 RMSDP=1.03D-06 MaxDP=1.12D-05 DE= 4.15D-09 OVMax= 3.68D-05

 Cycle  13  Pass 1  IDiag  1:
 E= -50.5421311681921     Delta-E=        0.000000000029 Rises=F Damp=F
 DIIS: error= 1.78D-07 at cycle  13 NSaved=   5.
 NSaved= 5 IEnMin= 2 EnMin= -50.5421311929389     IErMin= 5 ErrMin= 1.78D-07
 ErrMax= 1.78D-07  0.00D+00 EMaxC= 1.00D-01 BMatC= 2.14D-12 BMatP= 5.34D-11
 IDIUse=1 WtCom= 1.00D+00 WtEn= 0.00D+00
 Coeff-Com:  0.113D+01-0.958D+00-0.265D+00-0.587D-01 0.115D+01
 Coeff:      0.113D+01-0.958D+00-0.265D+00-0.587D-01 0.115D+01
 Gap=     0.103 Goal=   None    Shift=    0.000
 Gap=     0.102 Goal=   None    Shift=    0.000
 RMSDP=2.25D-07 MaxDP=4.09D-06 DE= 2.87D-11 OVMax= 4.85D-06

 Cycle  14  Pass 1  IDiag  1:
 E= -50.5421311681971     Delta-E=       -0.000000000005 Rises=F Damp=F
 DIIS: error= 5.45D-08 at cycle  14 NSaved=   6.
 NSaved= 6 IEnMin= 2 EnMin= -50.5421311929389     IErMin= 6 ErrMin= 5.45D-08
 ErrMax= 5.45D-08  0.00D+00 EMaxC= 1.00D-01 BMatC= 3.35D-13 BMatP= 2.14D-12
 IDIUse=1 WtCom= 1.00D+00 WtEn= 0.00D+00
 Coeff-Com: -0.841D-01 0.654D-01 0.371D-01-0.142D-01-0.451D+00 0.145D+01
 Coeff:     -0.841D-01 0.654D-01 0.371D-01-0.142D-01-0.451D+00 0.145D+01
 Gap=     0.103 Goal=   None    Shift=    0.000
 Gap=     0.102 Goal=   None    Shift=    0.000
 RMSDP=7.91D-08 MaxDP=1.47D-06 DE=-4.92D-12 OVMax= 2.48D-06

 Cycle  15  Pass 1  IDiag  1:
 E= -50.5421311681987     Delta-E=       -0.000000000002 Rises=F Damp=F
 DIIS: error= 2.61D-08 at cycle  15 NSaved=   7.
 NSaved= 7 IEnMin= 2 EnMin= -50.5421311929389     IErMin= 7 ErrMin= 2.61D-08
 ErrMax= 2.61D-08  0.00D+00 EMaxC= 1.00D-01 BMatC= 9.26D-14 BMatP= 3.35D-13
 IDIUse=1 WtCom= 1.00D+00 WtEn= 0.00D+00
 Coeff-Com: -0.312D+00 0.267D+00 0.636D-01 0.261D-01-0.169D+00-0.388D+00
 Coeff-Com:  0.151D+01
 Coeff:     -0.312D+00 0.267D+00 0.636D-01 0.261D-01-0.169D+00-0.388D+00
 Coeff:      0.151D+01
 Gap=     0.103 Goal=   None    Shift=    0.000
 Gap=     0.102 Goal=   None    Shift=    0.000
 RMSDP=4.81D-08 MaxDP=6.59D-07 DE=-1.59D-12 OVMax= 1.60D-06

 Cycle  16  Pass 1  IDiag  1:
 E= -50.5421311681992     Delta-E=       -0.000000000000 Rises=F Damp=F
 DIIS: error= 9.26D-09 at cycle  16 NSaved=   8.
 NSaved= 8 IEnMin= 2 EnMin= -50.5421311929389     IErMin= 8 ErrMin= 9.26D-09
 ErrMax= 9.26D-09  0.00D+00 EMaxC= 1.00D-01 BMatC= 9.30D-15 BMatP= 9.26D-14
 IDIUse=1 WtCom= 1.00D+00 WtEn= 0.00D+00
 Coeff-Com:  0.104D+00-0.885D-01-0.224D-01-0.101D-01 0.101D+00 0.258D-01
 Coeff-Com: -0.629D+00 0.152D+01
 Coeff:      0.104D+00-0.885D-01-0.224D-01-0.101D-01 0.101D+00 0.258D-01
 Coeff:     -0.629D+00 0.152D+01
 Gap=     0.103 Goal=   None    Shift=    0.000
 Gap=     0.102 Goal=   None    Shift=    0.000
 RMSDP=1.34D-08 MaxDP=1.29D-07 DE=-4.97D-13 OVMax= 5.72D-07

 Cycle  17  Pass 1  IDiag  1:
 E= -50.5421311681993     Delta-E=       -0.000000000000 Rises=F Damp=F
 DIIS: error= 3.19D-09 at cycle  17 NSaved=   9.
 NSaved= 9 IEnMin= 2 EnMin= -50.5421311929389     IErMin= 9 ErrMin= 3.19D-09
 ErrMax= 3.19D-09  0.00D+00 EMaxC= 1.00D-01 BMatC= 1.40D-15 BMatP= 9.30D-15
 IDIUse=1 WtCom= 1.00D+00 WtEn= 0.00D+00
 Coeff-Com: -0.807D-03 0.346D-03 0.140D-02-0.183D-02-0.216D-01 0.624D-01
 Coeff-Com: -0.264D-01-0.544D+00 0.153D+01
 Coeff:     -0.807D-03 0.346D-03 0.140D-02-0.183D-02-0.216D-01 0.624D-01
 Coeff:     -0.264D-01-0.544D+00 0.153D+01
 Gap=     0.103 Goal=   None    Shift=    0.000
 Gap=     0.102 Goal=   None    Shift=    0.000
 RMSDP=6.76D-09 MaxDP=1.08D-07 DE=-1.07D-13 OVMax= 2.34D-07

 SCF Done:  E(UM062X) =  -50.5421311682     A.U. after   17 cycles
            NFock= 17  Conv=0.68D-08     -V/T= 1.9987
 <Sx>= 0.0000 <Sy>= 0.0000 <Sz>= 0.5000 <S**2>= 0.7521 S= 0.5010
 <L.S>=  0.00000000000    
 KE= 5.060866491981D+01 PE=-1.397146825096D+02 EE= 2.828947001712D+01
 Annihilation of the first spin contaminant:
 S**2 before annihilation     0.7521,   after     0.7500
 Leave Link  502 at Mon Apr 21 17:26:14 2025, MaxMem=   536870912 cpu:              74.3 elap:               9.7
 (Enter /home/szhao/Apps/g16/l601.exe)
 Copying SCF densities to generalized density rwf, IOpCl= 1 IROHF=0.

 **********************************************************************

            Population analysis using the SCF density.

 **********************************************************************

 Alpha  occ. eigenvalues --   -6.88267  -6.88266  -0.34925  -0.34457  -0.10654
 Alpha  occ. eigenvalues --   -0.01038   0.02546
 Alpha virt. eigenvalues --    0.12839   0.13323   0.15615   0.15825   0.16453
 Alpha virt. eigenvalues --    0.22465   0.22468   0.22800   0.23071   0.24296
 Alpha virt. eigenvalues --    0.26157   0.37463   0.39628   0.53387   0.59000
 Alpha virt. eigenvalues --    0.59155   0.61767   0.62097   0.62142   0.70738
 Alpha virt. eigenvalues --    0.76973   0.80404   0.83053   1.01321   1.01337
 Alpha virt. eigenvalues --    1.06394   1.07101   1.07228   1.07876   1.07950
 Alpha virt. eigenvalues --    1.08240   1.27826   1.46973   1.87862   1.87880
 Alpha virt. eigenvalues --    1.87936   1.87991   2.04438   2.05494   2.07086
 Alpha virt. eigenvalues --    2.08265   2.15699   2.17349   2.53964   2.66121
 Alpha virt. eigenvalues --    2.82567   2.83618  14.48162  14.48477
  Beta  occ. eigenvalues --   -6.88194  -6.88194  -0.33865  -0.33575  -0.09366
  Beta  occ. eigenvalues --   -0.00032
  Beta virt. eigenvalues --    0.10213   0.11590   0.13330   0.13470   0.14090
  Beta virt. eigenvalues --    0.14174   0.18979   0.20685   0.20876   0.21857
  Beta virt. eigenvalues --    0.22628   0.23369   0.37057   0.39526   0.52509
  Beta virt. eigenvalues --    0.58792   0.58975   0.60155   0.61328   0.61615
  Beta virt. eigenvalues --    0.70618   0.76297   0.80671   0.83470   1.02010
  Beta virt. eigenvalues --    1.02706   1.08188   1.08191   1.08572   1.08897
  Beta virt. eigenvalues --    1.08898   1.09235   1.27477   1.46978   1.88196
  Beta virt. eigenvalues --    1.88340   1.88607   1.88808   2.05911   2.06931
  Beta virt. eigenvalues --    2.08567   2.09381   2.15491   2.16957   2.54728
  Beta virt. eigenvalues --    2.66683   2.83303   2.84248  14.48652  14.48979
          Condensed to atoms (all electrons):
               1          2          3          4
     1  B    7.773548  -2.317304  -0.187402   0.162916
     2  B   -2.317304   7.773548   0.162916  -0.187402
     3  H   -0.187402   0.162916   1.093017  -0.000289
     4  H    0.162916  -0.187402  -0.000289   1.093017
          Atomic-Atomic Spin Densities.
               1          2          3          4
     1  B   -0.112974   0.604354   0.040376  -0.027225
     2  B    0.604354  -0.112974  -0.027225   0.040376
     3  H    0.040376  -0.027225  -0.017697   0.000014
     4  H   -0.027225   0.040376   0.000014  -0.017697
 Mulliken charges and spin densities:
               1          2
     1  B   -0.431758   0.504531
     2  B   -0.431758   0.504531
     3  H   -0.068242  -0.004531
     4  H   -0.068242  -0.004531
 Sum of Mulliken charges =  -1.00000   1.00000
 Mulliken charges and spin densities with hydrogens summed into heavy atoms:
               1          2
     1  B   -0.500000   0.500000
     2  B   -0.500000   0.500000
 Electronic spatial extent (au):  <R**2>=            190.6631
 Charge=             -1.0000 electrons
 Dipole moment (field-independent basis, Debye):
    X=             -0.0000    Y=              0.0000    Z=              0.0000  Tot=              0.0000
 Quadrupole moment (field-independent basis, Debye-Ang):
   XX=            -34.3330   YY=            -19.3184   ZZ=            -27.2107
   XY=              0.0030   XZ=             -0.0000   YZ=              0.0000
 Traceless Quadrupole moment (field-independent basis, Debye-Ang):
   XX=             -7.3789   YY=              7.6356   ZZ=             -0.2567
   XY=              0.0030   XZ=             -0.0000   YZ=              0.0000
 Octapole moment (field-independent basis, Debye-Ang**2):
  XXX=             -0.0000  YYY=              0.0000  ZZZ=              0.0000  XYY=              0.0000
  XXY=              0.0000  XXZ=              0.0000  XZZ=             -0.0000  YZZ=              0.0000
  YYZ=              0.0000  XYZ=             -0.0000
 Hexadecapole moment (field-independent basis, Debye-Ang**3):
 XXXX=           -541.2858 YYYY=            -47.5077 ZZZZ=           -115.5645 XXXY=             -0.1120
 XXXZ=              0.0000 YYYX=              0.0119 YYYZ=              0.0000 ZZZX=             -0.0000
 ZZZY=              0.0000 XXYY=            -65.4003 XXZZ=            -89.7886 YYZZ=            -27.1786
 XXYZ=              0.0000 YYXZ=             -0.0000 ZZXY=              0.0038
 N-N= 1.027441640451D+01 E-N=-1.397146825595D+02  KE= 5.060866491981D+01
                          Isotropic Fermi Contact Couplings
        Atom                 a.u.       MegaHertz       Gauss      10(-4) cm-1
     1  B(11)              0.01382      19.82614       7.07446       6.61329
     2  B(11)              0.01382      19.82614       7.07446       6.61329
     3  H(1)              -0.00088      -3.94445      -1.40748      -1.31573
     4  H(1)              -0.00088      -3.94445      -1.40748      -1.31573
 --------------------------------------------------------
       Center         ----  Spin Dipole Couplings  ----
                      3XX-RR        3YY-RR        3ZZ-RR
 --------------------------------------------------------
     1   Atom       -0.063408     -0.089756      0.153163
     2   Atom       -0.063408     -0.089756      0.153163
     3   Atom        0.014073     -0.017790      0.003717
     4   Atom        0.014073     -0.017790      0.003717
 --------------------------------------------------------
                        XY            XZ            YZ
 --------------------------------------------------------
     1   Atom        0.000084      0.000000     -0.000000
     2   Atom        0.000084      0.000000     -0.000000
     3   Atom        0.000022      0.000000     -0.000000
     4   Atom        0.000022      0.000000     -0.000000
 --------------------------------------------------------


 ---------------------------------------------------------------------------------
              Anisotropic Spin Dipole Couplings in Principal Axis System
 ---------------------------------------------------------------------------------

       Atom             a.u.   MegaHertz   Gauss  10(-4) cm-1        Axes

              Baa    -0.0898   -15.368    -5.484    -5.126 -0.0032  1.0000  0.0000
     1 B(11)  Bbb    -0.0634   -10.856    -3.874    -3.621  1.0000  0.0032 -0.0000
              Bcc     0.1532    26.224     9.357     8.747  0.0000 -0.0000  1.0000
 
              Baa    -0.0898   -15.368    -5.484    -5.126 -0.0032  1.0000  0.0000
     2 B(11)  Bbb    -0.0634   -10.856    -3.874    -3.621  1.0000  0.0032 -0.0000
              Bcc     0.1532    26.224     9.357     8.747  0.0000 -0.0000  1.0000
 
              Baa    -0.0178    -9.492    -3.387    -3.166 -0.0007  1.0000  0.0000
     3 H(1)   Bbb     0.0037     1.983     0.708     0.662 -0.0000 -0.0000  1.0000
              Bcc     0.0141     7.509     2.679     2.505  1.0000  0.0007  0.0000
 
              Baa    -0.0178    -9.492    -3.387    -3.166 -0.0007  1.0000  0.0000
     4 H(1)   Bbb     0.0037     1.983     0.708     0.662 -0.0000 -0.0000  1.0000
              Bcc     0.0141     7.509     2.679     2.505  1.0000  0.0007  0.0000
 

 ---------------------------------------------------------------------------------

 No NMR shielding tensors so no spin-rotation constants.
 Leave Link  601 at Mon Apr 21 17:26:15 2025, MaxMem=   536870912 cpu:               1.9 elap:               0.3
 (Enter /home/szhao/Apps/g16/l701.exe)
 ... and contract with generalized density number  0.
 Compute integral first derivatives.
 Leave Link  701 at Mon Apr 21 17:26:15 2025, MaxMem=   536870912 cpu:               1.1 elap:               0.2
 (Enter /home/szhao/Apps/g16/l702.exe)
 L702 exits ... SP integral derivatives will be done elsewhere.
 Leave Link  702 at Mon Apr 21 17:26:15 2025, MaxMem=   536870912 cpu:               0.3 elap:               0.1
 (Enter /home/szhao/Apps/g16/l703.exe)
 Integral derivatives from FoFJK, PRISM(SPDF).
 Compute integral first derivatives, UseDBF=F ICtDFT=           0.
 Calling FoFJK, ICntrl=      2127 FMM=F ISym2X=0 I1Cent= 0 IOpClX= 1 NMat=1 NMatS=1 NMatT=0.
 FoFJK:  IHMeth= 1 ICntrl=    2127 DoSepK=F KAlg= 0 I1Cent=           0 FoldK=F
 IRaf=         0 NMat=       1 IRICut=       1 DoRegI=T DoRafI=F ISym2E= 0 IDoP0=0 IntGTp=1.
 FoFCou: FMM=F IPFlag=           0 FMFlag=      100000 FMFlg1=         800
         NFxFlg=           0 DoJE=F BraDBF=F KetDBF=F FulRan=T
         wScrn=  0.000000 ICntrl=      2127 IOpCl=  1 I1Cent=           0 NGrid=           0
         NMat0=    1 NMatS0=      1 NMatT0=    0 NMatD0=    1 NMtDS0=    0 NMtDT0=    0
 Symmetry not used in FoFCou.
 Leave Link  703 at Mon Apr 21 17:26:16 2025, MaxMem=   536870912 cpu:               8.7 elap:               1.2
 (Enter /home/szhao/Apps/g16/l716.exe)
 Dipole        =-1.07265308D-11 5.76622083D-14 5.20189924D-15
 -------------------------------------------------------------------
 Center     Atomic                   Forces (Hartrees/Bohr)
 Number     Number              X              Y              Z
 -------------------------------------------------------------------
      1        5          -0.000000000   -0.000000000   -0.000000000
      2        5          -0.000000000   -0.000000000   -0.000000000
      3        1          -0.038454586   -0.000088756    0.000000000
      4        1           0.038454586    0.000088756   -0.000000000
 -------------------------------------------------------------------
 Cartesian Forces:  Max     0.038454586 RMS     0.015699061
 Leave Link  716 at Mon Apr 21 17:26:17 2025, MaxMem=   536870912 cpu:               0.5 elap:               0.1
 (Enter /home/szhao/Apps/g16/l103.exe)

 GradGradGradGradGradGradGradGradGradGradGradGradGradGradGradGradGradGrad
 Berny optimization.
 FormGI is forming the generalized inverse of G from B-inverse, IUseBI=4.
 Internal  Forces:  Max     0.038454636 RMS     0.022201794
 Search for a local minimum.
 Step number   1 out of a maximum of   22
 All quantities printed in internal units (Hartrees-Bohrs-Radians)
 RMS Force = .22202D-01 SwitMx=.10000D-02 MixMth= 1
 Mixed Optimization -- RFO/linear search
 Second derivative matrix not updated -- first step.
 The second derivative matrix:
                          X1        Y1        Z1        X2        Y2
           X1           0.50000
           Y1           0.00000   0.50000
           Z1           0.00000   0.00000   0.50000
           X2           0.00000   0.00000   0.00000   0.50000
           Y2           0.00000   0.00000   0.00000   0.00000   0.50000
           Z2           0.00000   0.00000   0.00000   0.00000   0.00000
           R1           0.00000   0.00000   0.00000   0.00000   0.00000
           R2           0.00000   0.00000   0.00000   0.00000   0.00000
           A1           0.00000   0.00000   0.00000   0.00000   0.00000
           A2           0.00000   0.00000   0.00000   0.00000   0.00000
           A3           0.00000   0.00000   0.00000   0.00000   0.00000
           A4           0.00000   0.00000   0.00000   0.00000   0.00000
                          Z2        R1        R2        A1        A2
           Z2           0.50000
           R1           0.00000   0.25888
           R2           0.00000   0.00000   0.25888
           A1           0.00000   0.00000   0.00000   0.00230
           A2           0.00000   0.00000   0.00000   0.00000   0.00230
           A3           0.00000   0.00000   0.00000   0.00000   0.00000
           A4           0.00000   0.00000   0.00000   0.00000   0.00000
                          A3        A4
           A3           0.00230
           A4           0.00000   0.00230
 ITU=  0
     Eigenvalues ---    0.00230   0.00230   0.00230   0.25888   0.25888
     Eigenvalues --- 1000.000001000.000001000.000001000.000001000.00000
     Eigenvalues --- 1000.000001000.00000
 RFO step:  Lambda=-1.09601741D-02 EMin= 2.30000000D-03
 Linear search not attempted -- first point.
 Iteration  1 RMS(Cart)=  0.05817857 RMS(Int)=  0.00000016
 Iteration  2 RMS(Cart)=  0.00000039 RMS(Int)=  0.00000000
 ITry= 1 IFail=0 DXMaxC= 1.43D-01 DCOld= 1.00D+10 DXMaxT= 3.00D-01 DXLimC= 3.00D+00 Rises=F
 Variable       Old X    -DE/DX   Delta X   Delta X   Delta X     New X
                                 (Linear)    (Quad)   (Total)
    X1       -2.81835  -0.03845   0.00000   0.00000   0.00000  -2.81835
    Y1        0.00000  -0.00001   0.00000   0.00000   0.00000   0.00000
    Z1        0.00000   0.00000   0.00000   0.00000   0.00000   0.00000
    X2        2.81835   0.03845   0.00000   0.00000   0.00000   2.81835
    Y2        0.00000   0.00001   0.00000   0.00000   0.00000   0.00000
    Z2        0.00000  -0.00000   0.00000   0.00000   0.00000   0.00000
    R1        2.23702   0.03845   0.00000   0.14251   0.14251   2.37953
    R2        2.23702   0.03845   0.00000   0.14251   0.14251   2.37953
    A1        3.14083   0.00000   0.00000   0.00001   0.00001   3.14084
    A2        3.14083   0.00000   0.00000   0.00001   0.00001   3.14084
    A3        3.14159  -0.00000   0.00000  -0.00000   0.00000   3.14159
    A4        3.14159  -0.00000   0.00000  -0.00000   0.00000   3.14159
         Item               Value     Threshold  Converged?
 Maximum Force            0.038455     0.000450     NO 
 RMS     Force            0.022202     0.000300     NO 
 Maximum Displacement     0.142508     0.001800     NO 
 RMS     Displacement     0.058179     0.001200     NO 
 Predicted change in Energy=-5.702671D-03
 Lowest energy point so far.  Saving SCF results.
 GradGradGradGradGradGradGradGradGradGradGradGradGradGradGradGradGradGrad

 Leave Link  103 at Mon Apr 21 17:26:17 2025, MaxMem=   536870912 cpu:               0.6 elap:               0.2
 (Enter /home/szhao/Apps/g16/l202.exe)
                          Input orientation:                          
 ---------------------------------------------------------------------
 Center     Atomic      Atomic             Coordinates (Angstroms)
 Number     Number       Type             X           Y           Z
 ---------------------------------------------------------------------
      1          5           0       -1.491404    0.000000    0.000000
      2          5           0        1.491404    0.000000    0.000000
      3          1           0       -2.750595   -0.000953    0.000000
      4          1           0        2.750595    0.000953   -0.000000
 ---------------------------------------------------------------------
                    Distance matrix (angstroms):
                    1          2          3          4
     1  B    0.000000
     2  B    2.982808   0.000000
     3  H    1.259191   4.241999   0.000000
     4  H    4.241999   1.259191   5.501190   0.000000
 Symmetry turned off by external request.
 Stoichiometry    B2H2(1-,2)
 Framework group  CI[X(B2H2)]
 Deg. of freedom     3
 Full point group                 CI      NOp   2
 Rotational constants (GHZ):   361783364.3681782           7.8688051           7.8688049
 Leave Link  202 at Mon Apr 21 17:26:17 2025, MaxMem=   536870912 cpu:               0.5 elap:               0.2
 (Enter /home/szhao/Apps/g16/l301.exe)
 Standard basis: 6-311+G(d,p) (5D, 7F)
 Ernie: Thresh=  0.10000D-02 Tol=  0.10000D-05 Strict=F.
    56 basis functions,    88 primitive gaussians,    58 cartesian basis functions
     7 alpha electrons        6 beta electrons
       nuclear repulsion energy         9.9814079695 Hartrees.
 IExCor= 4336 DFT=T Ex+Corr=M062X ExCW=0 ScaHFX=  0.540000
 ScaDFX=  1.000000  1.000000  1.000000  1.000000 ScalE2=  1.000000  1.000000
 IRadAn=      7 IRanWt=     -1 IRanGd=            0 ICorTp=0 IEmpDi=  4
 NAtoms=    4 NActive=    4 NUniq=    4 SFac= 1.00D+00 NAtFMM=   60 NAOKFM=F Big=F
 Integral buffers will be    131072 words long.
 Raffenetti 2 integral format.
 Two-electron integral symmetry is turned off.
 Leave Link  301 at Mon Apr 21 17:26:18 2025, MaxMem=   536870912 cpu:               1.2 elap:               0.3
 (Enter /home/szhao/Apps/g16/l302.exe)
 NPDir=0 NMtPBC=     1 NCelOv=     1 NCel=       1 NClECP=     1 NCelD=      1
         NCelK=      1 NCelE2=     1 NClLst=     1 CellRange=     0.0.
 One-electron integrals computed using PRISM.
 NBasis=    56 RedAO= T EigKep=  4.34D-03  NBF=    56
 NBsUse=    56 1.00D-06 EigRej= -1.00D+00 NBFU=    56
 Precomputing XC quadrature grid using
 IXCGrd= 4 IRadAn=           7 IRanWt=          -1 IRanGd=           0 AccXCQ= 0.00D+00.
 Generated NRdTot=       0 NPtTot=           0 NUsed=           0 NTot=          32
 NSgBfM=    58    58    58    58    58 MxSgAt=     4 MxSgA2=     4.
 Leave Link  302 at Mon Apr 21 17:26:18 2025, MaxMem=   536870912 cpu:               1.9 elap:               0.3
 (Enter /home/szhao/Apps/g16/l303.exe)
 DipDrv:  MaxL=1.
 Leave Link  303 at Mon Apr 21 17:26:18 2025, MaxMem=   536870912 cpu:               0.5 elap:               0.1
 (Enter /home/szhao/Apps/g16/l401.exe)
 Initial guess from the checkpoint file:  "opt.chk"
 B after Tr=    -0.000000   -0.000000    0.000000
         Rot=    1.000000    0.000010   -0.000000   -0.000002 Ang=   0.00 deg.
 Guess basis will be translated and rotated to current coordinates.
 JPrj=2 DoOrth=T DoCkMO=T.
 Initial guess <Sx>= 0.0000 <Sy>= 0.0000 <Sz>= 0.5000 <S**2>= 0.7521 S= 0.5010
 Generating alternative initial guess.
 ExpMin= 3.15D-02 ExpMax= 2.86D+03 ExpMxC= 4.28D+02 IAcc=3 IRadAn=         5 AccDes= 0.00D+00
 Harris functional with IExCor= 1009 and IRadAn=       5 diagonalized for initial guess.
 HarFok:  IExCor= 1009 AccDes= 0.00D+00 IRadAn=         5 IDoV= 1 UseB2=F ITyADJ=14
 ICtDFT=  3500011 ScaDFX=  1.000000  1.000000  1.000000  1.000000
 FoFCou: FMM=F IPFlag=           0 FMFlag=      100000 FMFlg1=           0
         NFxFlg=           0 DoJE=T BraDBF=F KetDBF=T FulRan=T
         wScrn=  0.000000 ICntrl=       500 IOpCl=  0 I1Cent=   200000004 NGrid=           0
         NMat0=    1 NMatS0=      1 NMatT0=    0 NMatD0=    1 NMtDS0=    0 NMtDT0=    0
 Symmetry not used in FoFCou.
 Harris En= -50.6226731679931    
 Leave Link  401 at Mon Apr 21 17:26:19 2025, MaxMem=   536870912 cpu:               3.5 elap:               0.5
 (Enter /home/szhao/Apps/g16/l502.exe)
 Keep R1 and R2 ints in memory in canonical form, NReq=9624198.
 FoFCou: FMM=F IPFlag=           0 FMFlag=           0 FMFlg1=           0
         NFxFlg=           0 DoJE=F BraDBF=F KetDBF=F FulRan=T
         wScrn=  0.000000 ICntrl=       600 IOpCl=  0 I1Cent=           0 NGrid=           0
         NMat0=    1 NMatS0=   1596 NMatT0=    0 NMatD0=    1 NMtDS0=    0 NMtDT0=    0
 Symmetry not used in FoFCou.
 Two-electron integral symmetry not used.
 UHF open shell SCF:
 Using DIIS extrapolation, IDIIS=  1040.
 NGot=   536870912 LenX=   534314338 LenY=   534310533
 Requested convergence on RMS density matrix=1.00D-08 within 128 cycles.
 Requested convergence on MAX density matrix=1.00D-06.
 Requested convergence on             energy=1.00D-06.
 No special actions if energy rises.

 Cycle   1  Pass 1  IDiag  1:
 E= -50.5473396047122    
 DIIS: error= 6.76D-03 at cycle   1 NSaved=   1.
 NSaved= 1 IEnMin= 1 EnMin= -50.5473396047122     IErMin= 1 ErrMin= 6.76D-03
 ErrMax= 6.76D-03  0.00D+00 EMaxC= 1.00D-01 BMatC= 4.41D-03 BMatP= 4.41D-03
 IDIUse=3 WtCom= 9.32D-01 WtEn= 6.76D-02
 Coeff-Com:  0.100D+01
 Coeff-En:   0.100D+01
 Coeff:      0.100D+01
 Gap=     0.341 Goal=   None    Shift=    0.000
 Gap=     0.354 Goal=   None    Shift=    0.000
 GapD=    0.341 DampG=1.000 DampE=1.000 DampFc=1.0000 IDamp=-1.
 RMSDP=1.29D-03 MaxDP=2.19D-02              OVMax= 1.66D-02

 Cycle   2  Pass 1  IDiag  1:
 E= -50.5487186397186     Delta-E=       -0.001379035006 Rises=F Damp=F
 DIIS: error= 7.75D-04 at cycle   2 NSaved=   2.
 NSaved= 2 IEnMin= 2 EnMin= -50.5487186397186     IErMin= 2 ErrMin= 7.75D-04
 ErrMax= 7.75D-04  0.00D+00 EMaxC= 1.00D-01 BMatC= 1.03D-04 BMatP= 4.41D-03
 IDIUse=3 WtCom= 9.92D-01 WtEn= 7.75D-03
 Coeff-Com:  0.646D-02 0.994D+00
 Coeff-En:   0.000D+00 0.100D+01
 Coeff:      0.641D-02 0.994D+00
 Gap=     0.103 Goal=   None    Shift=    0.000
 Gap=     0.109 Goal=   None    Shift=    0.000
 RMSDP=9.70D-04 MaxDP=2.26D-02 DE=-1.38D-03 OVMax= 6.99D-03

 Cycle   3  Pass 1  IDiag  1:
 E= -50.5488018594315     Delta-E=       -0.000083219713 Rises=F Damp=F
 DIIS: error= 3.85D-04 at cycle   3 NSaved=   3.
 NSaved= 3 IEnMin= 3 EnMin= -50.5488018594315     IErMin= 3 ErrMin= 3.85D-04
 ErrMax= 3.85D-04  0.00D+00 EMaxC= 1.00D-01 BMatC= 9.65D-06 BMatP= 1.03D-04
 IDIUse=3 WtCom= 9.96D-01 WtEn= 3.85D-03
 Coeff-Com: -0.204D-01-0.478D-01 0.107D+01
 Coeff-En:   0.000D+00 0.000D+00 0.100D+01
 Coeff:     -0.203D-01-0.476D-01 0.107D+01
 Gap=     0.103 Goal=   None    Shift=    0.000
 Gap=     0.109 Goal=   None    Shift=    0.000
 RMSDP=1.76D-04 MaxDP=2.90D-03 DE=-8.32D-05 OVMax= 3.75D-03

 Cycle   4  Pass 1  IDiag  1:
 E= -50.5488157542146     Delta-E=       -0.000013894783 Rises=F Damp=F
 DIIS: error= 1.63D-04 at cycle   4 NSaved=   4.
 NSaved= 4 IEnMin= 4 EnMin= -50.5488157542146     IErMin= 4 ErrMin= 1.63D-04
 ErrMax= 1.63D-04  0.00D+00 EMaxC= 1.00D-01 BMatC= 1.21D-06 BMatP= 9.65D-06
 IDIUse=3 WtCom= 9.98D-01 WtEn= 1.63D-03
 Coeff-Com: -0.131D-05-0.628D-01 0.105D-01 0.105D+01
 Coeff-En:   0.000D+00 0.000D+00 0.000D+00 0.100D+01
 Coeff:     -0.131D-05-0.627D-01 0.104D-01 0.105D+01
 Gap=     0.104 Goal=   None    Shift=    0.000
 Gap=     0.110 Goal=   None    Shift=    0.000
 RMSDP=1.00D-04 MaxDP=2.34D-03 DE=-1.39D-05 OVMax= 2.20D-03

 Cycle   5  Pass 1  IDiag  1:
 E= -50.5488184351710     Delta-E=       -0.000002680956 Rises=F Damp=F
 DIIS: error= 6.10D-05 at cycle   5 NSaved=   5.
 NSaved= 5 IEnMin= 5 EnMin= -50.5488184351710     IErMin= 5 ErrMin= 6.10D-05
 ErrMax= 6.10D-05  0.00D+00 EMaxC= 1.00D-01 BMatC= 2.72D-07 BMatP= 1.21D-06
 IDIUse=1 WtCom= 1.00D+00 WtEn= 0.00D+00
 Coeff-Com:  0.273D-02-0.581D-02-0.140D+00 0.206D+00 0.937D+00
 Coeff:      0.273D-02-0.581D-02-0.140D+00 0.206D+00 0.937D+00
 Gap=     0.104 Goal=   None    Shift=    0.000
 Gap=     0.110 Goal=   None    Shift=    0.000
 RMSDP=7.82D-05 MaxDP=1.04D-03 DE=-2.68D-06 OVMax= 9.10D-04

 Cycle   6  Pass 1  IDiag  1:
 E= -50.5488189925660     Delta-E=       -0.000000557395 Rises=F Damp=F
 DIIS: error= 3.20D-05 at cycle   6 NSaved=   6.
 NSaved= 6 IEnMin= 6 EnMin= -50.5488189925660     IErMin= 6 ErrMin= 3.20D-05
 ErrMax= 3.20D-05  0.00D+00 EMaxC= 1.00D-01 BMatC= 3.14D-08 BMatP= 2.72D-07
 IDIUse=1 WtCom= 1.00D+00 WtEn= 0.00D+00
 Coeff-Com: -0.436D-03 0.152D-01 0.342D-02-0.212D+00-0.149D+00 0.134D+01
 Coeff:     -0.436D-03 0.152D-01 0.342D-02-0.212D+00-0.149D+00 0.134D+01
 Gap=     0.104 Goal=   None    Shift=    0.000
 Gap=     0.110 Goal=   None    Shift=    0.000
 RMSDP=4.40D-05 MaxDP=5.96D-04 DE=-5.57D-07 OVMax= 7.26D-04

 Cycle   7  Pass 1  IDiag  1:
 E= -50.5488191020406     Delta-E=       -0.000000109475 Rises=F Damp=F
 DIIS: error= 3.65D-06 at cycle   7 NSaved=   7.
 NSaved= 7 IEnMin= 7 EnMin= -50.5488191020406     IErMin= 7 ErrMin= 3.65D-06
 ErrMax= 3.65D-06  0.00D+00 EMaxC= 1.00D-01 BMatC= 1.61D-09 BMatP= 3.14D-08
 IDIUse=1 WtCom= 1.00D+00 WtEn= 0.00D+00
 Coeff-Com: -0.121D-03-0.178D-02 0.700D-02 0.334D-01-0.678D-01-0.179D+00
 Coeff-Com:  0.121D+01
 Coeff:     -0.121D-03-0.178D-02 0.700D-02 0.334D-01-0.678D-01-0.179D+00
 Coeff:      0.121D+01
 Gap=     0.104 Goal=   None    Shift=    0.000
 Gap=     0.110 Goal=   None    Shift=    0.000
 RMSDP=1.23D-05 MaxDP=2.51D-04 DE=-1.09D-07 OVMax= 1.15D-04

 Cycle   8  Pass 1  IDiag  1:
 E= -50.5488191052429     Delta-E=       -0.000000003202 Rises=F Damp=F
 DIIS: error= 7.15D-07 at cycle   8 NSaved=   8.
 NSaved= 8 IEnMin= 8 EnMin= -50.5488191052429     IErMin= 8 ErrMin= 7.15D-07
 ErrMax= 7.15D-07  0.00D+00 EMaxC= 1.00D-01 BMatC= 7.20D-11 BMatP= 1.61D-09
 IDIUse=1 WtCom= 1.00D+00 WtEn= 0.00D+00
 Coeff-Com:  0.448D-04-0.124D-03-0.192D-02 0.817D-03 0.210D-01-0.234D-02
 Coeff-Com: -0.386D+00 0.137D+01
 Coeff:      0.448D-04-0.124D-03-0.192D-02 0.817D-03 0.210D-01-0.234D-02
 Coeff:     -0.386D+00 0.137D+01
 Gap=     0.104 Goal=   None    Shift=    0.000
 Gap=     0.110 Goal=   None    Shift=    0.000
 RMSDP=1.66D-06 MaxDP=3.74D-05 DE=-3.20D-09 OVMax= 2.12D-05

 Cycle   9  Pass 1  IDiag  1:
 E= -50.5488191054224     Delta-E=       -0.000000000180 Rises=F Damp=F
 DIIS: error= 1.56D-07 at cycle   9 NSaved=   9.
 NSaved= 9 IEnMin= 9 EnMin= -50.5488191054224     IErMin= 9 ErrMin= 1.56D-07
 ErrMax= 1.56D-07  0.00D+00 EMaxC= 1.00D-01 BMatC= 2.47D-12 BMatP= 7.20D-11
 IDIUse=1 WtCom= 1.00D+00 WtEn= 0.00D+00
 Coeff-Com: -0.933D-05 0.118D-03 0.111D-03-0.948D-03-0.335D-02 0.658D-02
 Coeff-Com:  0.660D-01-0.372D+00 0.130D+01
 Coeff:     -0.933D-05 0.118D-03 0.111D-03-0.948D-03-0.335D-02 0.658D-02
 Coeff:      0.660D-01-0.372D+00 0.130D+01
 Gap=     0.104 Goal=   None    Shift=    0.000
 Gap=     0.110 Goal=   None    Shift=    0.000
 RMSDP=2.54D-07 MaxDP=3.74D-06 DE=-1.80D-10 OVMax= 4.52D-06

 Cycle  10  Pass 1  IDiag  1:
 E= -50.5488191054307     Delta-E=       -0.000000000008 Rises=F Damp=F
 DIIS: error= 1.16D-07 at cycle  10 NSaved=  10.
 NSaved=10 IEnMin=10 EnMin= -50.5488191054307     IErMin=10 ErrMin= 1.16D-07
 ErrMax= 1.16D-07  0.00D+00 EMaxC= 1.00D-01 BMatC= 1.18D-12 BMatP= 2.47D-12
 IDIUse=1 WtCom= 1.00D+00 WtEn= 0.00D+00
 Coeff-Com: -0.412D-05 0.493D-04 0.650D-04-0.414D-03-0.147D-02 0.260D-02
 Coeff-Com:  0.308D-01-0.165D+00 0.545D+00 0.588D+00
 Coeff:     -0.412D-05 0.493D-04 0.650D-04-0.414D-03-0.147D-02 0.260D-02
 Coeff:      0.308D-01-0.165D+00 0.545D+00 0.588D+00
 Gap=     0.104 Goal=   None    Shift=    0.000
 Gap=     0.110 Goal=   None    Shift=    0.000
 RMSDP=3.69D-08 MaxDP=3.28D-07 DE=-8.30D-12 OVMax= 1.69D-06

 Cycle  11  Pass 1  IDiag  1:
 E= -50.5488191054339     Delta-E=       -0.000000000003 Rises=F Damp=F
 DIIS: error= 1.24D-07 at cycle  11 NSaved=  11.
 NSaved=11 IEnMin=11 EnMin= -50.5488191054339     IErMin=10 ErrMin= 1.16D-07
 ErrMax= 1.24D-07  0.00D+00 EMaxC= 1.00D-01 BMatC= 1.35D-12 BMatP= 1.18D-12
 IDIUse=1 WtCom= 1.00D+00 WtEn= 0.00D+00
 Large coefficients: NSaved= 11 BigCof=   11.87 CofMax=   10.00 Det=-4.94D-15
 Inversion failed.  Reducing to 10 matrices.
 Large coefficients: NSaved= 10 BigCof=   10.72 CofMax=   10.00 Det=-6.23D-15
 Inversion failed.  Reducing to  9 matrices.
 Coeff-Com:  0.160D-03-0.326D-03-0.887D-04-0.980D-03 0.943D-02 0.261D-01
 Coeff-Com: -0.560D+00 0.926D+01-0.773D+01
 Coeff:      0.160D-03-0.326D-03-0.887D-04-0.980D-03 0.943D-02 0.261D-01
 Coeff:     -0.560D+00 0.926D+01-0.773D+01
 Gap=     0.104 Goal=   None    Shift=    0.000
 Gap=     0.110 Goal=   None    Shift=    0.000
 RMSDP=2.41D-07 MaxDP=2.25D-06 DE=-3.14D-12 OVMax= 1.14D-05

 Cycle  12  Pass 1  IDiag  1:
 E= -50.5488191054175     Delta-E=        0.000000000016 Rises=F Damp=F
 DIIS: error= 6.26D-08 at cycle  12 NSaved=  10.
 NSaved=10 IEnMin= 9 EnMin= -50.5488191054339     IErMin=10 ErrMin= 6.26D-08
 ErrMax= 6.26D-08  0.00D+00 EMaxC= 1.00D-01 BMatC= 3.37D-13 BMatP= 1.18D-12
 IDIUse=1 WtCom= 1.00D+00 WtEn= 0.00D+00
 Coeff-Com: -0.631D-04 0.223D-04 0.186D-03 0.731D-03-0.925D-02 0.109D-01
 Coeff-Com:  0.166D+00-0.625D+01 0.458D+01 0.250D+01
 Coeff:     -0.631D-04 0.223D-04 0.186D-03 0.731D-03-0.925D-02 0.109D-01
 Coeff:      0.166D+00-0.625D+01 0.458D+01 0.250D+01
 Gap=     0.104 Goal=   None    Shift=    0.000
 Gap=     0.110 Goal=   None    Shift=    0.000
 RMSDP=1.64D-07 MaxDP=1.42D-06 DE= 1.63D-11 OVMax= 7.28D-06

 Cycle  13  Pass 1  IDiag  1:
 E= -50.5488191054141     Delta-E=        0.000000000003 Rises=F Damp=F
 DIIS: error= 1.35D-08 at cycle  13 NSaved=  11.
 NSaved=11 IEnMin= 9 EnMin= -50.5488191054339     IErMin=11 ErrMin= 1.35D-08
 ErrMax= 1.35D-08  0.00D+00 EMaxC= 1.00D-01 BMatC= 1.24D-14 BMatP= 3.37D-13
 IDIUse=1 WtCom= 1.00D+00 WtEn= 0.00D+00
 Coeff-Com:  0.113D-04-0.476D-05-0.821D-04 0.322D-04 0.141D-02-0.490D-02
 Coeff-Com:  0.552D-02 0.593D+00-0.382D+00-0.503D+00 0.129D+01
 Coeff:      0.113D-04-0.476D-05-0.821D-04 0.322D-04 0.141D-02-0.490D-02
 Coeff:      0.552D-02 0.593D+00-0.382D+00-0.503D+00 0.129D+01
 Gap=     0.104 Goal=   None    Shift=    0.000
 Gap=     0.110 Goal=   None    Shift=    0.000
 RMSDP=2.06D-08 MaxDP=1.84D-07 DE= 3.45D-12 OVMax= 1.00D-06

 Cycle  14  Pass 1  IDiag  1:
 E= -50.5488191054141     Delta-E=       -0.000000000000 Rises=F Damp=F
 DIIS: error= 4.77D-09 at cycle  14 NSaved=  12.
 NSaved=12 IEnMin= 9 EnMin= -50.5488191054339     IErMin=12 ErrMin= 4.77D-09
 ErrMax= 4.77D-09  0.00D+00 EMaxC= 1.00D-01 BMatC= 3.76D-15 BMatP= 1.24D-14
 IDIUse=1 WtCom= 1.00D+00 WtEn= 0.00D+00
 Coeff-Com:  0.162D-04-0.148D-04-0.281D-04-0.161D-03 0.183D-02-0.382D-03
 Coeff-Com: -0.517D-01 0.148D+01-0.109D+01-0.547D+00-0.247D-01 0.123D+01
 Coeff:      0.162D-04-0.148D-04-0.281D-04-0.161D-03 0.183D-02-0.382D-03
 Coeff:     -0.517D-01 0.148D+01-0.109D+01-0.547D+00-0.247D-01 0.123D+01
 Gap=     0.104 Goal=   None    Shift=    0.000
 Gap=     0.110 Goal=   None    Shift=    0.000
 RMSDP=6.94D-09 MaxDP=9.62D-08 DE=-1.42D-14 OVMax= 2.73D-07

 SCF Done:  E(UM062X) =  -50.5488191054     A.U. after   14 cycles
            NFock= 14  Conv=0.69D-08     -V/T= 2.0013
 <Sx>= 0.0000 <Sy>= 0.0000 <Sz>= 0.5000 <S**2>= 0.7521 S= 0.5011
 <L.S>=  0.00000000000    
 KE= 5.048192361110D+01 PE=-1.390099602399D+02 EE= 2.799780955381D+01
 Annihilation of the first spin contaminant:
 S**2 before annihilation     0.7521,   after     0.7500
 Leave Link  502 at Mon Apr 21 17:26:27 2025, MaxMem=   536870912 cpu:              63.0 elap:               8.2
 (Enter /home/szhao/Apps/g16/l701.exe)
 ... and contract with generalized density number  0.
 Compute integral first derivatives.
 Leave Link  701 at Mon Apr 21 17:26:28 2025, MaxMem=   536870912 cpu:               2.8 elap:               0.5
 (Enter /home/szhao/Apps/g16/l702.exe)
 L702 exits ... SP integral derivatives will be done elsewhere.
 Leave Link  702 at Mon Apr 21 17:26:29 2025, MaxMem=   536870912 cpu:               0.6 elap:               0.2
 (Enter /home/szhao/Apps/g16/l703.exe)
 Integral derivatives from FoFJK, PRISM(SPDF).
 Compute integral first derivatives, UseDBF=F ICtDFT=           0.
 Calling FoFJK, ICntrl=      2127 FMM=F ISym2X=0 I1Cent= 0 IOpClX= 1 NMat=1 NMatS=1 NMatT=0.
 FoFJK:  IHMeth= 1 ICntrl=    2127 DoSepK=F KAlg= 0 I1Cent=           0 FoldK=F
 IRaf=         0 NMat=       1 IRICut=       1 DoRegI=T DoRafI=F ISym2E= 0 IDoP0=0 IntGTp=1.
 FoFCou: FMM=F IPFlag=           0 FMFlag=      100000 FMFlg1=         800
         NFxFlg=           0 DoJE=F BraDBF=F KetDBF=F FulRan=T
         wScrn=  0.000000 ICntrl=      2127 IOpCl=  1 I1Cent=           0 NGrid=           0
         NMat0=    1 NMatS0=      1 NMatT0=    0 NMatD0=    1 NMtDS0=    0 NMtDT0=    0
 Symmetry not used in FoFCou.
 Leave Link  703 at Mon Apr 21 17:26:30 2025, MaxMem=   536870912 cpu:               9.1 elap:               1.2
 (Enter /home/szhao/Apps/g16/l716.exe)
 Dipole        = 1.17315135D-09-1.52605793D-14 7.56185275D-14
 -------------------------------------------------------------------
 Center     Atomic                   Forces (Hartrees/Bohr)
 Number     Number              X              Y              Z
 -------------------------------------------------------------------
      1        5          -0.000000000   -0.000000000   -0.000000000
      2        5          -0.000000000   -0.000000000   -0.000000000
      3        1          -0.010328132   -0.000054692    0.000000001
      4        1           0.010328132    0.000054692   -0.000000001
 -------------------------------------------------------------------
 Cartesian Forces:  Max     0.010328132 RMS     0.004216501
 Leave Link  716 at Mon Apr 21 17:26:30 2025, MaxMem=   536870912 cpu:               0.7 elap:               0.1
 (Enter /home/szhao/Apps/g16/l103.exe)

 GradGradGradGradGradGradGradGradGradGradGradGradGradGradGradGradGradGrad
 Berny optimization.
 Using GEDIIS/GDIIS optimizer.
 FormGI is forming the generalized inverse of G from B-inverse, IUseBI=4.
 Internal  Forces:  Max     0.010328166 RMS     0.005962969
 Search for a local minimum.
 Step number   2 out of a maximum of   22
 All quantities printed in internal units (Hartrees-Bohrs-Radians)
 RMS Force = .59630D-02 SwitMx=.10000D-02 MixMth= 1
 Mixed Optimization -- RFO/linear search
 Update second derivatives using D2CorX and points    1    2
 DE= -6.69D-03 DEPred=-5.70D-03 R= 1.17D+00
 TightC=F SS=  1.41D+00  RLast= 2.02D-01 DXNew= 5.0454D-01 6.0461D-01
 Trust test= 1.17D+00 RLast= 2.02D-01 DXMaxT set to 5.05D-01
 The second derivative matrix:
                          X1        Y1        Z1        X2        Y2
           X1           0.59868
           Y1           0.00005   0.50000
           Z1           0.00000   0.00000   0.50000
           X2          -0.09868  -0.00005  -0.00000   0.59868
           Y2          -0.00005  -0.00000  -0.00000   0.00005   0.50000
           Z2          -0.00000  -0.00000  -0.00000   0.00000   0.00000
           R1          -0.09868  -0.00005  -0.00000   0.09868   0.00005
           R2          -0.09868  -0.00005  -0.00000   0.09868   0.00005
           A1          -0.00002  -0.00000  -0.00000   0.00002   0.00000
           A2          -0.00002  -0.00000  -0.00000   0.00002   0.00000
           A3          -0.00000  -0.00000  -0.00000   0.00000   0.00000
           A4          -0.00000  -0.00000  -0.00000   0.00000   0.00000
                          Z2        R1        R2        A1        A2
           Z2           0.50000
           R1           0.00000   0.22813
           R2           0.00000  -0.03076   0.22813
           A1           0.00000   0.00002   0.00002   0.00230
           A2           0.00000   0.00002   0.00002   0.00000   0.00230
           A3           0.00000   0.00000   0.00000   0.00000   0.00000
           A4           0.00000   0.00000   0.00000   0.00000   0.00000
                          A3        A4
           A3           0.00230
           A4           0.00000   0.00230
 ITU=  1  0
 Use linear search instead of GDIIS.
     Eigenvalues ---    0.00230   0.00230   0.00230   0.19737   0.25888
     Eigenvalues --- 1000.000001000.000001000.000001000.000001000.00000
     Eigenvalues --- 1000.000001000.00000
 RFO step:  Lambda=-4.09537234D-07 EMin= 2.30000000D-03
 Quartic linear search produced a step of  0.50876.
 Iteration  1 RMS(Cart)=  0.02959917 RMS(Int)=  0.00000005
 Iteration  2 RMS(Cart)=  0.00000013 RMS(Int)=  0.00000000
 ITry= 1 IFail=0 DXMaxC= 7.25D-02 DCOld= 1.00D+10 DXMaxT= 5.05D-01 DXLimC= 3.00D+00 Rises=F
 Variable       Old X    -DE/DX   Delta X   Delta X   Delta X     New X
                                 (Linear)    (Quad)   (Total)
    X1       -2.81835  -0.01033   0.00000   0.00000   0.00000  -2.81835
    Y1        0.00000  -0.00000   0.00000   0.00000   0.00000   0.00000
    Z1        0.00000   0.00000   0.00000   0.00000   0.00000   0.00000
    X2        2.81835   0.01033   0.00000   0.00000   0.00000   2.81835
    Y2        0.00000   0.00000   0.00000   0.00000   0.00000   0.00000
    Z2        0.00000  -0.00000   0.00000   0.00000   0.00000   0.00000
    R1        2.37953   0.01033   0.07250   0.00000   0.07250   2.45203
    R2        2.37953   0.01033   0.07250   0.00000   0.07250   2.45203
    A1        3.14084  -0.00000   0.00000  -0.00000   0.00000   3.14084
    A2        3.14084  -0.00000   0.00000  -0.00000   0.00000   3.14084
    A3        3.14159  -0.00000   0.00000  -0.00000  -0.00000   3.14159
    A4        3.14159  -0.00000   0.00000  -0.00000  -0.00000   3.14159
         Item               Value     Threshold  Converged?
 Maximum Force            0.010328     0.000450     NO 
 RMS     Force            0.005963     0.000300     NO 
 Maximum Displacement     0.072503     0.001800     NO 
 RMS     Displacement     0.029599     0.001200     NO 
 Predicted change in Energy=-4.601461D-04
 Lowest energy point so far.  Saving SCF results.
 GradGradGradGradGradGradGradGradGradGradGradGradGradGradGradGradGradGrad

 Leave Link  103 at Mon Apr 21 17:26:30 2025, MaxMem=   536870912 cpu:               0.5 elap:               0.1
 (Enter /home/szhao/Apps/g16/l202.exe)
                          Input orientation:                          
 ---------------------------------------------------------------------
 Center     Atomic      Atomic             Coordinates (Angstroms)
 Number     Number       Type             X           Y           Z
 ---------------------------------------------------------------------
      1          5           0       -1.491404    0.000000    0.000000
      2          5           0        1.491404    0.000000    0.000000
      3          1           0       -2.788962   -0.000978    0.000004
      4          1           0        2.788962    0.000978   -0.000004
 ---------------------------------------------------------------------
                    Distance matrix (angstroms):
                    1          2          3          4
     1  B    0.000000
     2  B    2.982808   0.000000
     3  H    1.297558   4.280366   0.000000
     4  H    4.280366   1.297558   5.577924   0.000000
 Symmetry turned off by external request.
 Stoichiometry    B2H2(1-,2)
 Framework group  C2[X(B2H2)]
 Deg. of freedom     4
 Full point group                 C2      NOp   2
 Rotational constants (GHZ):   346082392.3020997           7.8166665           7.8166663
 Leave Link  202 at Mon Apr 21 17:26:31 2025, MaxMem=   536870912 cpu:               0.6 elap:               0.1
 (Enter /home/szhao/Apps/g16/l301.exe)
 Standard basis: 6-311+G(d,p) (5D, 7F)
 Ernie: Thresh=  0.10000D-02 Tol=  0.10000D-05 Strict=F.
    56 basis functions,    88 primitive gaussians,    58 cartesian basis functions
     7 alpha electrons        6 beta electrons
       nuclear repulsion energy         9.8446408557 Hartrees.
 IExCor= 4336 DFT=T Ex+Corr=M062X ExCW=0 ScaHFX=  0.540000
 ScaDFX=  1.000000  1.000000  1.000000  1.000000 ScalE2=  1.000000  1.000000
 IRadAn=      7 IRanWt=     -1 IRanGd=            0 ICorTp=0 IEmpDi=  4
 NAtoms=    4 NActive=    4 NUniq=    4 SFac= 1.00D+00 NAtFMM=   60 NAOKFM=F Big=F
 Integral buffers will be    131072 words long.
 Raffenetti 2 integral format.
 Two-electron integral symmetry is turned off.
 Leave Link  301 at Mon Apr 21 17:26:31 2025, MaxMem=   536870912 cpu:               0.7 elap:               0.2
 (Enter /home/szhao/Apps/g16/l302.exe)
 NPDir=0 NMtPBC=     1 NCelOv=     1 NCel=       1 NClECP=     1 NCelD=      1
         NCelK=      1 NCelE2=     1 NClLst=     1 CellRange=     0.0.
 One-electron integrals computed using PRISM.
 NBasis=    56 RedAO= T EigKep=  4.46D-03  NBF=    56
 NBsUse=    56 1.00D-06 EigRej= -1.00D+00 NBFU=    56
 Precomputing XC quadrature grid using
 IXCGrd= 4 IRadAn=           7 IRanWt=          -1 IRanGd=           0 AccXCQ= 0.00D+00.
 Generated NRdTot=       0 NPtTot=           0 NUsed=           0 NTot=          32
 NSgBfM=    58    58    58    58    58 MxSgAt=     4 MxSgA2=     4.
 Leave Link  302 at Mon Apr 21 17:26:32 2025, MaxMem=   536870912 cpu:               1.4 elap:               0.3
 (Enter /home/szhao/Apps/g16/l303.exe)
 DipDrv:  MaxL=1.
 Leave Link  303 at Mon Apr 21 17:26:32 2025, MaxMem=   536870912 cpu:               0.4 elap:               0.1
 (Enter /home/szhao/Apps/g16/l401.exe)
 Initial guess from the checkpoint file:  "opt.chk"
 B after Tr=     0.000000    0.000000    0.000000
         Rot=    0.999998    0.002088   -0.000000   -0.000001 Ang=   0.24 deg.
 Guess basis will be translated and rotated to current coordinates.
 JPrj=2 DoOrth=T DoCkMO=T.
 Initial guess <Sx>= 0.0000 <Sy>= 0.0000 <Sz>= 0.5000 <S**2>= 0.7521 S= 0.5011
 Generating alternative initial guess.
 ExpMin= 3.15D-02 ExpMax= 2.86D+03 ExpMxC= 4.28D+02 IAcc=3 IRadAn=         5 AccDes= 0.00D+00
 Harris functional with IExCor= 1009 and IRadAn=       5 diagonalized for initial guess.
 HarFok:  IExCor= 1009 AccDes= 0.00D+00 IRadAn=         5 IDoV= 1 UseB2=F ITyADJ=14
 ICtDFT=  3500011 ScaDFX=  1.000000  1.000000  1.000000  1.000000
 FoFCou: FMM=F IPFlag=           0 FMFlag=      100000 FMFlg1=           0
         NFxFlg=           0 DoJE=T BraDBF=F KetDBF=T FulRan=T
         wScrn=  0.000000 ICntrl=       500 IOpCl=  0 I1Cent=   200000004 NGrid=           0
         NMat0=    1 NMatS0=      1 NMatT0=    0 NMatD0=    1 NMtDS0=    0 NMtDT0=    0
 Symmetry not used in FoFCou.
 Harris En= -50.6189392201407    
 Leave Link  401 at Mon Apr 21 17:26:32 2025, MaxMem=   536870912 cpu:               2.9 elap:               0.5
 (Enter /home/szhao/Apps/g16/l502.exe)
 Keep R1 and R2 ints in memory in canonical form, NReq=9624198.
 FoFCou: FMM=F IPFlag=           0 FMFlag=           0 FMFlg1=           0
         NFxFlg=           0 DoJE=F BraDBF=F KetDBF=F FulRan=T
         wScrn=  0.000000 ICntrl=       600 IOpCl=  0 I1Cent=           0 NGrid=           0
         NMat0=    1 NMatS0=   1596 NMatT0=    0 NMatD0=    1 NMtDS0=    0 NMtDT0=    0
 Symmetry not used in FoFCou.
 Two-electron integral symmetry not used.
 UHF open shell SCF:
 Using DIIS extrapolation, IDIIS=  1040.
 NGot=   536870912 LenX=   534314338 LenY=   534310533
 Requested convergence on RMS density matrix=1.00D-08 within 128 cycles.
 Requested convergence on MAX density matrix=1.00D-06.
 Requested convergence on             energy=1.00D-06.
 No special actions if energy rises.

 Cycle   1  Pass 1  IDiag  1:
 E= -50.5491777427335    
 DIIS: error= 3.05D-03 at cycle   1 NSaved=   1.
 NSaved= 1 IEnMin= 1 EnMin= -50.5491777427335     IErMin= 1 ErrMin= 3.05D-03
 ErrMax= 3.05D-03  0.00D+00 EMaxC= 1.00D-01 BMatC= 9.47D-04 BMatP= 9.47D-04
 IDIUse=3 WtCom= 9.70D-01 WtEn= 3.05D-02
 Coeff-Com:  0.100D+01
 Coeff-En:   0.100D+01
 Coeff:      0.100D+01
 Gap=     0.344 Goal=   None    Shift=    0.000
 Gap=     0.362 Goal=   None    Shift=    0.000
 GapD=    0.344 DampG=1.000 DampE=1.000 DampFc=1.0000 IDamp=-1.
 RMSDP=6.08D-04 MaxDP=1.05D-02              OVMax= 8.10D-03

 Cycle   2  Pass 1  IDiag  1:
 E= -50.5495028500693     Delta-E=       -0.000325107336 Rises=F Damp=F
 DIIS: error= 4.08D-04 at cycle   2 NSaved=   2.
 NSaved= 2 IEnMin= 2 EnMin= -50.5495028500693     IErMin= 2 ErrMin= 4.08D-04
 ErrMax= 4.08D-04  0.00D+00 EMaxC= 1.00D-01 BMatC= 2.53D-05 BMatP= 9.47D-04
 IDIUse=3 WtCom= 9.96D-01 WtEn= 4.08D-03
 Coeff-Com:  0.308D-02 0.997D+00
 Coeff-En:   0.000D+00 0.100D+01
 Coeff:      0.306D-02 0.997D+00
 Gap=     0.104 Goal=   None    Shift=    0.000
 Gap=     0.113 Goal=   None    Shift=    0.000
 RMSDP=5.23D-04 MaxDP=1.19D-02 DE=-3.25D-04 OVMax= 3.75D-03

 Cycle   3  Pass 1  IDiag  1:
 E= -50.5495238663533     Delta-E=       -0.000021016284 Rises=F Damp=F
 DIIS: error= 2.03D-04 at cycle   3 NSaved=   3.
 NSaved= 3 IEnMin= 3 EnMin= -50.5495238663533     IErMin= 3 ErrMin= 2.03D-04
 ErrMax= 2.03D-04  0.00D+00 EMaxC= 1.00D-01 BMatC= 2.61D-06 BMatP= 2.53D-05
 IDIUse=3 WtCom= 9.98D-01 WtEn= 2.03D-03
 Coeff-Com: -0.231D-01-0.190D-01 0.104D+01
 Coeff-En:   0.000D+00 0.000D+00 0.100D+01
 Coeff:     -0.231D-01-0.190D-01 0.104D+01
 Gap=     0.104 Goal=   None    Shift=    0.000
 Gap=     0.113 Goal=   None    Shift=    0.000
 RMSDP=7.98D-05 MaxDP=1.10D-03 DE=-2.10D-05 OVMax= 1.77D-03

 Cycle   4  Pass 1  IDiag  1:
 E= -50.5495273257707     Delta-E=       -0.000003459417 Rises=F Damp=F
 DIIS: error= 9.52D-05 at cycle   4 NSaved=   4.
 NSaved= 4 IEnMin= 4 EnMin= -50.5495273257707     IErMin= 4 ErrMin= 9.52D-05
 ErrMax= 9.52D-05  0.00D+00 EMaxC= 1.00D-01 BMatC= 3.83D-07 BMatP= 2.61D-06
 IDIUse=1 WtCom= 1.00D+00 WtEn= 0.00D+00
 Coeff-Com: -0.223D-02-0.702D-01 0.104D+00 0.969D+00
 Coeff:     -0.223D-02-0.702D-01 0.104D+00 0.969D+00
 Gap=     0.104 Goal=   None    Shift=    0.000
 Gap=     0.113 Goal=   None    Shift=    0.000
 RMSDP=5.51D-05 MaxDP=1.35D-03 DE=-3.46D-06 OVMax= 1.13D-03

 Cycle   5  Pass 1  IDiag  1:
 E= -50.5495280173421     Delta-E=       -0.000000691571 Rises=F Damp=F
 DIIS: error= 3.04D-05 at cycle   5 NSaved=   5.
 NSaved= 5 IEnMin= 5 EnMin= -50.5495280173421     IErMin= 5 ErrMin= 3.04D-05
 ErrMax= 3.04D-05  0.00D+00 EMaxC= 1.00D-01 BMatC= 7.76D-08 BMatP= 3.83D-07
 IDIUse=1 WtCom= 1.00D+00 WtEn= 0.00D+00
 Coeff-Com:  0.315D-02-0.758D-02-0.142D+00 0.163D+00 0.983D+00
 Coeff:      0.315D-02-0.758D-02-0.142D+00 0.163D+00 0.983D+00
 Gap=     0.104 Goal=   None    Shift=    0.000
 Gap=     0.114 Goal=   None    Shift=    0.000
 RMSDP=3.71D-05 MaxDP=4.71D-04 DE=-6.92D-07 OVMax= 5.26D-04

 Cycle   6  Pass 1  IDiag  1:
 E= -50.5495281821770     Delta-E=       -0.000000164835 Rises=F Damp=F
 DIIS: error= 1.53D-05 at cycle   6 NSaved=   6.
 NSaved= 6 IEnMin= 6 EnMin= -50.5495281821770     IErMin= 6 ErrMin= 1.53D-05
 ErrMax= 1.53D-05  0.00D+00 EMaxC= 1.00D-01 BMatC= 7.90D-09 BMatP= 7.76D-08
 IDIUse=1 WtCom= 1.00D+00 WtEn= 0.00D+00
 Coeff-Com: -0.438D-03 0.152D-01 0.103D-02-0.178D+00-0.229D+00 0.139D+01
 Coeff:     -0.438D-03 0.152D-01 0.103D-02-0.178D+00-0.229D+00 0.139D+01
 Gap=     0.104 Goal=   None    Shift=    0.000
 Gap=     0.114 Goal=   None    Shift=    0.000
 RMSDP=2.20D-05 MaxDP=2.93D-04 DE=-1.65D-07 OVMax= 3.81D-04

 Cycle   7  Pass 1  IDiag  1:
 E= -50.5495282105689     Delta-E=       -0.000000028392 Rises=F Damp=F
 DIIS: error= 1.82D-06 at cycle   7 NSaved=   7.
 NSaved= 7 IEnMin= 7 EnMin= -50.5495282105689     IErMin= 7 ErrMin= 1.82D-06
 ErrMax= 1.82D-06  0.00D+00 EMaxC= 1.00D-01 BMatC= 3.62D-10 BMatP= 7.90D-09
 IDIUse=1 WtCom= 1.00D+00 WtEn= 0.00D+00
 Coeff-Com: -0.136D-03-0.177D-02 0.691D-02 0.325D-01-0.420D-01-0.216D+00
 Coeff-Com:  0.122D+01
 Coeff:     -0.136D-03-0.177D-02 0.691D-02 0.325D-01-0.420D-01-0.216D+00
 Coeff:      0.122D+01
 Gap=     0.104 Goal=   None    Shift=    0.000
 Gap=     0.114 Goal=   None    Shift=    0.000
 RMSDP=5.69D-06 MaxDP=1.16D-04 DE=-2.84D-08 OVMax= 5.44D-05

 Cycle   8  Pass 1  IDiag  1:
 E= -50.5495282113020     Delta-E=       -0.000000000733 Rises=F Damp=F
 DIIS: error= 3.36D-07 at cycle   8 NSaved=   8.
 NSaved= 8 IEnMin= 8 EnMin= -50.5495282113020     IErMin= 8 ErrMin= 3.36D-07
 ErrMax= 3.36D-07  0.00D+00 EMaxC= 1.00D-01 BMatC= 1.66D-11 BMatP= 3.62D-10
 IDIUse=1 WtCom= 1.00D+00 WtEn= 0.00D+00
 Coeff-Com:  0.487D-04-0.125D-03-0.186D-02-0.451D-03 0.180D-01 0.450D-02
 Coeff-Com: -0.380D+00 0.136D+01
 Coeff:      0.487D-04-0.125D-03-0.186D-02-0.451D-03 0.180D-01 0.450D-02
 Coeff:     -0.380D+00 0.136D+01
 Gap=     0.104 Goal=   None    Shift=    0.000
 Gap=     0.114 Goal=   None    Shift=    0.000
 RMSDP=7.46D-07 MaxDP=1.62D-05 DE=-7.33D-10 OVMax= 8.90D-06

 Cycle   9  Pass 1  IDiag  1:
 E= -50.5495282113412     Delta-E=       -0.000000000039 Rises=F Damp=F
 DIIS: error= 8.98D-08 at cycle   9 NSaved=   9.
 NSaved= 9 IEnMin= 9 EnMin= -50.5495282113412     IErMin= 9 ErrMin= 8.98D-08
 ErrMax= 8.98D-08  0.00D+00 EMaxC= 1.00D-01 BMatC= 5.71D-13 BMatP= 1.66D-11
 IDIUse=1 WtCom= 1.00D+00 WtEn= 0.00D+00
 Coeff-Com: -0.115D-04 0.125D-03 0.182D-03-0.768D-03-0.367D-02 0.561D-02
 Coeff-Com:  0.794D-01-0.439D+00 0.136D+01
 Coeff:     -0.115D-04 0.125D-03 0.182D-03-0.768D-03-0.367D-02 0.561D-02
 Coeff:      0.794D-01-0.439D+00 0.136D+01
 Gap=     0.104 Goal=   None    Shift=    0.000
 Gap=     0.114 Goal=   None    Shift=    0.000
 RMSDP=1.30D-07 MaxDP=1.71D-06 DE=-3.93D-11 OVMax= 1.63D-06

 Cycle  10  Pass 1  IDiag  1:
 E= -50.5495282113427     Delta-E=       -0.000000000001 Rises=F Damp=F
 DIIS: error= 2.98D-08 at cycle  10 NSaved=  10.
 NSaved=10 IEnMin=10 EnMin= -50.5495282113427     IErMin=10 ErrMin= 2.98D-08
 ErrMax= 2.98D-08  0.00D+00 EMaxC= 1.00D-01 BMatC= 1.02D-13 BMatP= 5.71D-13
 IDIUse=1 WtCom= 1.00D+00 WtEn= 0.00D+00
 Coeff-Com:  0.177D-05-0.380D-04 0.459D-04 0.202D-03 0.536D-03-0.229D-02
 Coeff-Com: -0.656D-02 0.745D-01-0.381D+00 0.131D+01
 Coeff:      0.177D-05-0.380D-04 0.459D-04 0.202D-03 0.536D-03-0.229D-02
 Coeff:     -0.656D-02 0.745D-01-0.381D+00 0.131D+01
 Gap=     0.104 Goal=   None    Shift=    0.000
 Gap=     0.114 Goal=   None    Shift=    0.000
 RMSDP=2.93D-08 MaxDP=3.22D-07 DE=-1.46D-12 OVMax= 9.98D-07

 Cycle  11  Pass 1  IDiag  1:
 E= -50.5495282113432     Delta-E=       -0.000000000000 Rises=F Damp=F
 DIIS: error= 3.27D-08 at cycle  11 NSaved=  11.
 NSaved=11 IEnMin=11 EnMin= -50.5495282113432     IErMin=10 ErrMin= 2.98D-08
 ErrMax= 3.27D-08  0.00D+00 EMaxC= 1.00D-01 BMatC= 9.97D-14 BMatP= 1.02D-13
 IDIUse=1 WtCom= 1.00D+00 WtEn= 0.00D+00
 Coeff-Com:  0.322D-05-0.654D-04 0.683D-04 0.356D-03 0.991D-03-0.391D-02
 Coeff-Com: -0.133D-01 0.136D+00-0.670D+00 0.221D+01-0.661D+00
 Coeff:      0.322D-05-0.654D-04 0.683D-04 0.356D-03 0.991D-03-0.391D-02
 Coeff:     -0.133D-01 0.136D+00-0.670D+00 0.221D+01-0.661D+00
 Gap=     0.104 Goal=   None    Shift=    0.000
 Gap=     0.114 Goal=   None    Shift=    0.000
 RMSDP=1.07D-08 MaxDP=9.61D-08 DE=-4.69D-13 OVMax= 5.03D-07

 Cycle  12  Pass 1  IDiag  1:
 E= -50.5495282113428     Delta-E=        0.000000000000 Rises=F Damp=F
 DIIS: error= 3.06D-08 at cycle  12 NSaved=  12.
 NSaved=12 IEnMin=11 EnMin= -50.5495282113432     IErMin=10 ErrMin= 2.98D-08
 ErrMax= 3.06D-08  0.00D+00 EMaxC= 1.00D-01 BMatC= 8.66D-14 BMatP= 9.97D-14
 IDIUse=1 WtCom= 1.00D+00 WtEn= 0.00D+00
 Large coefficients: NSaved= 12 BigCof=   14.22 CofMax=   10.00 Det=-5.37D-16
 Inversion failed.  Reducing to 11 matrices.
 Large coefficients: NSaved= 11 BigCof=   14.30 CofMax=   10.00 Det=-5.37D-16
 Inversion failed.  Reducing to 10 matrices.
 Large coefficients: NSaved= 10 BigCof=   13.97 CofMax=   10.00 Det=-5.47D-16
 Inversion failed.  Reducing to  9 matrices.
 Large coefficients: NSaved=  9 BigCof=   13.16 CofMax=   10.00 Det=-5.74D-16
 Inversion failed.  Reducing to  8 matrices.
 Large coefficients: NSaved=  8 BigCof=   13.17 CofMax=   10.00 Det=-5.74D-16
 Inversion failed.  Reducing to  7 matrices.
 Large coefficients: NSaved=  7 BigCof=   12.81 CofMax=   10.00 Det=-5.86D-16
 Inversion failed.  Reducing to  6 matrices.
 Large coefficients: NSaved=  6 BigCof=   12.70 CofMax=   10.00 Det=-5.91D-16
 Inversion failed.  Reducing to  5 matrices.
 Large coefficients: NSaved=  5 BigCof=   12.10 CofMax=   10.00 Det=-6.20D-16
 Inversion failed.  Reducing to  4 matrices.
 Large coefficients: NSaved=  4 BigCof=   11.89 CofMax=   10.00 Det=-6.26D-16
 Inversion failed.  Reducing to  3 matrices.
 Large coefficients: NSaved=  3 BigCof=   11.82 CofMax=   10.00 Det=-6.27D-16
 Inversion failed.  Reducing to  2 matrices.
 Coeff-Com: -0.762D+01 0.862D+01
 Coeff:     -0.762D+01 0.862D+01
 Gap=     0.104 Goal=   None    Shift=    0.000
 Gap=     0.114 Goal=   None    Shift=    0.000
 RMSDP=7.34D-08 MaxDP=6.68D-07 DE= 3.13D-13 OVMax= 3.47D-06

 Cycle  13  Pass 1  IDiag  1:
 E= -50.5495282113415     Delta-E=        0.000000000001 Rises=F Damp=F
 DIIS: error= 1.44D-08 at cycle  13 NSaved=   3.
 NSaved= 3 IEnMin= 1 EnMin= -50.5495282113432     IErMin= 3 ErrMin= 1.44D-08
 ErrMax= 1.44D-08  0.00D+00 EMaxC= 1.00D-01 BMatC= 1.97D-14 BMatP= 8.66D-14
 IDIUse=1 WtCom= 1.00D+00 WtEn= 0.00D+00
 Coeff-Com:  0.481D+01-0.606D+01 0.225D+01
 Coeff:      0.481D+01-0.606D+01 0.225D+01
 Gap=     0.104 Goal=   None    Shift=    0.000
 Gap=     0.114 Goal=   None    Shift=    0.000
 RMSDP=4.27D-08 MaxDP=3.64D-07 DE= 1.35D-12 OVMax= 1.89D-06

 Cycle  14  Pass 1  IDiag  1:
 E= -50.5495282113414     Delta-E=        0.000000000000 Rises=F Damp=F
 DIIS: error= 4.88D-09 at cycle  14 NSaved=   4.
 NSaved= 4 IEnMin= 1 EnMin= -50.5495282113432     IErMin= 4 ErrMin= 4.88D-09
 ErrMax= 4.88D-09  0.00D+00 EMaxC= 1.00D-01 BMatC= 3.16D-15 BMatP= 1.97D-14
 IDIUse=1 WtCom= 1.00D+00 WtEn= 0.00D+00
 Coeff-Com:  0.324D+01-0.389D+01 0.866D+00 0.784D+00
 Coeff:      0.324D+01-0.389D+01 0.866D+00 0.784D+00
 Gap=     0.104 Goal=   None    Shift=    0.000
 Gap=     0.114 Goal=   None    Shift=    0.000
 RMSDP=7.02D-09 MaxDP=8.29D-08 DE= 9.95D-14 OVMax= 2.79D-07

 SCF Done:  E(UM062X) =  -50.5495282113     A.U. after   14 cycles
            NFock= 14  Conv=0.70D-08     -V/T= 2.0024
 <Sx>= 0.0000 <Sy>= 0.0000 <Sz>= 0.5000 <S**2>= 0.7522 S= 0.5011
 <L.S>=  0.00000000000    
 KE= 5.042696164109D+01 PE=-1.386767256888D+02 EE= 2.785559498063D+01
 Annihilation of the first spin contaminant:
 S**2 before annihilation     0.7522,   after     0.7500
 Leave Link  502 at Mon Apr 21 17:26:41 2025, MaxMem=   536870912 cpu:              64.7 elap:               8.5
 (Enter /home/szhao/Apps/g16/l701.exe)
 ... and contract with generalized density number  0.
 Compute integral first derivatives.
 Leave Link  701 at Mon Apr 21 17:26:42 2025, MaxMem=   536870912 cpu:               1.4 elap:               0.3
 (Enter /home/szhao/Apps/g16/l702.exe)
 L702 exits ... SP integral derivatives will be done elsewhere.
 Leave Link  702 at Mon Apr 21 17:26:42 2025, MaxMem=   536870912 cpu:               0.4 elap:               0.1
 (Enter /home/szhao/Apps/g16/l703.exe)
 Integral derivatives from FoFJK, PRISM(SPDF).
 Compute integral first derivatives, UseDBF=F ICtDFT=           0.
 Calling FoFJK, ICntrl=      2127 FMM=F ISym2X=0 I1Cent= 0 IOpClX= 1 NMat=1 NMatS=1 NMatT=0.
 FoFJK:  IHMeth= 1 ICntrl=    2127 DoSepK=F KAlg= 0 I1Cent=           0 FoldK=F
 IRaf=         0 NMat=       1 IRICut=       1 DoRegI=T DoRafI=F ISym2E= 0 IDoP0=0 IntGTp=1.
 FoFCou: FMM=F IPFlag=           0 FMFlag=      100000 FMFlg1=         800
         NFxFlg=           0 DoJE=F BraDBF=F KetDBF=F FulRan=T
         wScrn=  0.000000 ICntrl=      2127 IOpCl=  1 I1Cent=           0 NGrid=           0
         NMat0=    1 NMatS0=      1 NMatT0=    0 NMatD0=    1 NMtDS0=    0 NMtDT0=    0
 Symmetry not used in FoFCou.
 Leave Link  703 at Mon Apr 21 17:26:43 2025, MaxMem=   536870912 cpu:              11.0 elap:               1.5
 (Enter /home/szhao/Apps/g16/l716.exe)
 Dipole        =-5.56483748D-08-1.58274739D-10 6.62751721D-08
 -------------------------------------------------------------------
 Center     Atomic                   Forces (Hartrees/Bohr)
 Number     Number              X              Y              Z
 -------------------------------------------------------------------
      1        5          -0.000000000   -0.000000000   -0.000000000
      2        5          -0.000000000   -0.000000000   -0.000000000
      3        1           0.000180849   -0.000041364    0.000000179
      4        1          -0.000180849    0.000041364   -0.000000171
 -------------------------------------------------------------------
 Cartesian Forces:  Max     0.000180849 RMS     0.000075738
 Leave Link  716 at Mon Apr 21 17:26:44 2025, MaxMem=   536870912 cpu:               0.4 elap:               0.1
 (Enter /home/szhao/Apps/g16/l103.exe)

 GradGradGradGradGradGradGradGradGradGradGradGradGradGradGradGradGradGrad
 Berny optimization.
 Using GEDIIS/GDIIS optimizer.
 FormGI is forming the generalized inverse of G from B-inverse, IUseBI=4.
 Internal  Forces:  Max     0.000180822 RMS     0.000104434
 Search for a local minimum.
 Step number   3 out of a maximum of   22
 All quantities printed in internal units (Hartrees-Bohrs-Radians)
 RMS Force = .10440D-03 SwitMx=.10000D-02 MixMth= 2
 Mixed Optimization -- En-DIIS/RFO-DIIS
 Update second derivatives using D2CorX and points    1    2    3
 DE= -7.09D-04 DEPred=-4.60D-04 R= 1.54D+00
 TightC=F SS=  1.41D+00  RLast= 1.03D-01 DXNew= 8.4853D-01 3.0760D-01
 Trust test= 1.54D+00 RLast= 1.03D-01 DXMaxT set to 5.05D-01
 The second derivative matrix:
                          X1        Y1        Z1        X2        Y2
           X1           0.57247
           Y1           0.00004   0.50000
           Z1           0.00001   0.00000   0.50000
           X2          -0.07247  -0.00004  -0.00001   0.57247
           Y2          -0.00004  -0.00000  -0.00000   0.00004   0.50000
           Z2          -0.00001  -0.00000  -0.00000   0.00001   0.00000
           R1          -0.07247  -0.00004  -0.00001   0.07247   0.00004
           R2          -0.07247  -0.00004  -0.00001   0.07247   0.00004
           A1          -0.00001  -0.00000  -0.00000   0.00001   0.00000
           A2          -0.00001  -0.00000  -0.00000   0.00001   0.00000
           A3          -0.00001  -0.00000  -0.00000   0.00001   0.00000
           A4          -0.00001  -0.00000  -0.00000   0.00001   0.00000
                          Z2        R1        R2        A1        A2
           Z2           0.50000
           R1           0.00001   0.20191
           R2           0.00001  -0.05697   0.20191
           A1           0.00000   0.00001   0.00001   0.00230
           A2           0.00000   0.00001   0.00001   0.00000   0.00230
           A3           0.00000   0.00001   0.00001   0.00000   0.00000
           A4           0.00000   0.00001   0.00001   0.00000   0.00000
                          A3        A4
           A3           0.00230
           A4           0.00000   0.00230
 ITU=  1  1  0
 Use linear search instead of GDIIS.
     Eigenvalues ---    0.00230   0.00230   0.00230   0.14495   0.25888
     Eigenvalues --- 1000.000001000.000001000.000001000.000001000.00000
     Eigenvalues --- 1000.000001000.00000
 RFO step:  Lambda= 0.00000000D+00 EMin= 2.29999997D-03
 Quartic linear search produced a step of -0.01914.
 Iteration  1 RMS(Cart)=  0.00069930 RMS(Int)=  0.00000013
 Iteration  2 RMS(Cart)=  0.00000025 RMS(Int)=  0.00000000
 ITry= 1 IFail=0 DXMaxC= 1.39D-03 DCOld= 1.00D+10 DXMaxT= 5.05D-01 DXLimC= 3.00D+00 Rises=F
 Variable       Old X    -DE/DX   Delta X   Delta X   Delta X     New X
                                 (Linear)    (Quad)   (Total)
    X1       -2.81835   0.00018   0.00000   0.00000   0.00000  -2.81835
    Y1        0.00000   0.00001   0.00000   0.00000   0.00000   0.00000
    Z1        0.00000   0.00000   0.00000   0.00000   0.00000   0.00000
    X2        2.81835  -0.00018   0.00000   0.00000   0.00000   2.81835
    Y2        0.00000  -0.00001   0.00000   0.00000   0.00000   0.00000
    Z2        0.00000  -0.00000   0.00000   0.00000   0.00000   0.00000
    R1        2.45203  -0.00018  -0.00139   0.00000  -0.00139   2.45064
    R2        2.45203  -0.00018  -0.00139   0.00000  -0.00139   2.45064
    A1        3.14084  -0.00000  -0.00000  -0.00000  -0.00000   3.14084
    A2        3.14084  -0.00000  -0.00000  -0.00000  -0.00000   3.14084
    A3        3.14159  -0.00000   0.00000  -0.00041  -0.00041   3.14118
    A4        3.14159  -0.00000   0.00000  -0.00041  -0.00041   3.14118
         Item               Value     Threshold  Converged?
 Maximum Force            0.000181     0.000450     YES
 RMS     Force            0.000104     0.000300     YES
 Maximum Displacement     0.001388     0.001800     YES
 RMS     Displacement     0.000699     0.001200     YES
 Predicted change in Energy=-2.231167D-07
 Optimization completed.
    -- Stationary point found.
                           ----------------------------
                           !   Optimized Parameters   !
                           ! (Angstroms and Degrees)  !
 --------------------------                            --------------------------
 ! Name  Definition              Value          Derivative Info.                !
 --------------------------------------------------------------------------------
 ! X1    R(1,-1)                -1.4914         -DE/DX =    0.0002              !
 ! Y1    R(1,-2)                 0.0            -DE/DX =    0.0                 !
 ! Z1    R(1,-3)                 0.0            -DE/DX =    0.0                 !
 ! X2    R(2,-1)                 1.4914         -DE/DX =   -0.0002              !
 ! Y2    R(2,-2)                 0.0            -DE/DX =    0.0                 !
 ! Z2    R(2,-3)                 0.0            -DE/DX =    0.0                 !
 ! R1    R(1,3)                  1.2976         -DE/DX =   -0.0002              !
 ! R2    R(2,4)                  1.2976         -DE/DX =   -0.0002              !
 ! A1    L(2,1,3,-3,-1)        179.9568         -DE/DX =    0.0                 !
 ! A2    L(1,2,4,-3,-1)        179.9568         -DE/DX =    0.0                 !
 ! A3    L(2,1,3,-2,-2)        179.9998         -DE/DX =    0.0                 !
 ! A4    L(1,2,4,-2,-2)        179.9998         -DE/DX =    0.0                 !
 --------------------------------------------------------------------------------
 Lowest energy point so far.  Saving SCF results.
 Largest change from initial coordinates is atom    4       0.114 Angstoms.
 GradGradGradGradGradGradGradGradGradGradGradGradGradGradGradGradGradGrad

 Leave Link  103 at Mon Apr 21 17:26:44 2025, MaxMem=   536870912 cpu:               0.6 elap:               0.2
 (Enter /home/szhao/Apps/g16/l202.exe)
                          Input orientation:                          
 ---------------------------------------------------------------------
 Center     Atomic      Atomic             Coordinates (Angstroms)
 Number     Number       Type             X           Y           Z
 ---------------------------------------------------------------------
      1          5           0       -1.491404    0.000000    0.000000
      2          5           0        1.491404    0.000000    0.000000
      3          1           0       -2.788962   -0.000978    0.000004
      4          1           0        2.788962    0.000978   -0.000004
 ---------------------------------------------------------------------
                    Distance matrix (angstroms):
                    1          2          3          4
     1  B    0.000000
     2  B    2.982808   0.000000
     3  H    1.297558   4.280366   0.000000
     4  H    4.280366   1.297558   5.577924   0.000000
 Symmetry turned off by external request.
 Stoichiometry    B2H2(1-,2)
 Framework group  C2[X(B2H2)]
 Deg. of freedom     4
 Full point group                 C2      NOp   2
 Rotational constants (GHZ):   346082392.3020997           7.8166665           7.8166663
 Leave Link  202 at Mon Apr 21 17:26:44 2025, MaxMem=   536870912 cpu:               0.3 elap:               0.1
 (Enter /home/szhao/Apps/g16/l601.exe)
 Copying SCF densities to generalized density rwf, IOpCl= 1 IROHF=0.

 **********************************************************************

            Population analysis using the SCF density.

 **********************************************************************

 Alpha  occ. eigenvalues --   -6.89968  -6.89967  -0.33124  -0.32458  -0.11405
 Alpha  occ. eigenvalues --   -0.02216   0.01992
 Alpha virt. eigenvalues --    0.12390   0.12954   0.15241   0.15994   0.16553
 Alpha virt. eigenvalues --    0.22053   0.22353   0.22626   0.22662   0.24113
 Alpha virt. eigenvalues --    0.26156   0.34975   0.38459   0.54134   0.58294
 Alpha virt. eigenvalues --    0.58583   0.61144   0.61472   0.61551   0.69849
 Alpha virt. eigenvalues --    0.74503   0.75318   0.79717   1.00308   1.00321
 Alpha virt. eigenvalues --    1.05706   1.06338   1.06547   1.07036   1.07195
 Alpha virt. eigenvalues --    1.07433   1.24504   1.44178   1.81588   1.81596
 Alpha virt. eigenvalues --    1.81675   1.81693   2.02689   2.04122   2.04724
 Alpha virt. eigenvalues --    2.06287   2.08728   2.13337   2.49026   2.56929
 Alpha virt. eigenvalues --    2.80090   2.80169  14.37761  14.38543
  Beta  occ. eigenvalues --   -6.89887  -6.89887  -0.32014  -0.31575  -0.10133
  Beta  occ. eigenvalues --   -0.01227
  Beta virt. eigenvalues --    0.10126   0.11257   0.13325   0.13573   0.14001
  Beta virt. eigenvalues --    0.14477   0.18871   0.20438   0.20515   0.21706
  Beta virt. eigenvalues --    0.22281   0.23073   0.34610   0.38601   0.53654
  Beta virt. eigenvalues --    0.58194   0.58414   0.60100   0.60731   0.61062
  Beta virt. eigenvalues --    0.69699   0.73936   0.75532   0.79853   1.01083
  Beta virt. eigenvalues --    1.01748   1.07478   1.07481   1.07806   1.08188
  Beta virt. eigenvalues --    1.08191   1.08430   1.24532   1.44538   1.81913
  Beta virt. eigenvalues --    1.81946   1.82268   1.82338   2.04592   2.05705
  Beta virt. eigenvalues --    2.06646   2.07555   2.08899   2.13312   2.49474
  Beta virt. eigenvalues --    2.57225   2.80563   2.80653  14.38224  14.39017
          Condensed to atoms (all electrons):
               1          2          3          4
     1  B    7.392264  -2.051240  -0.090137   0.140173
     2  B   -2.051240   7.392264   0.140173  -0.090137
     3  H   -0.090137   0.140173   1.059073  -0.000168
     4  H    0.140173  -0.090137  -0.000168   1.059073
          Atomic-Atomic Spin Densities.
               1          2          3          4
     1  B   -0.025916   0.523836   0.030367  -0.020763
     2  B    0.523836  -0.025916  -0.020763   0.030367
     3  H    0.030367  -0.020763  -0.017128   0.000000
     4  H   -0.020763   0.030367   0.000000  -0.017128
 Mulliken charges and spin densities:
               1          2
     1  B   -0.391059   0.507524
     2  B   -0.391059   0.507524
     3  H   -0.108941  -0.007524
     4  H   -0.108941  -0.007524
 Sum of Mulliken charges =  -1.00000   1.00000
 Mulliken charges and spin densities with hydrogens summed into heavy atoms:
               1          2
     1  B   -0.500000   0.500000
     2  B   -0.500000   0.500000
 Electronic spatial extent (au):  <R**2>=            198.0193
 Charge=             -1.0000 electrons
 Dipole moment (field-independent basis, Debye):
    X=             -0.0000    Y=             -0.0000    Z=              0.0000  Tot=              0.0000
 Quadrupole moment (field-independent basis, Debye-Ang):
   XX=            -39.1317   YY=            -19.1088   ZZ=            -26.5436
   XY=             -0.0017   XZ=              0.0000   YZ=             -0.0312
 Traceless Quadrupole moment (field-independent basis, Debye-Ang):
   XX=            -10.8703   YY=              9.1526   ZZ=              1.7177
   XY=             -0.0017   XZ=              0.0000   YZ=             -0.0312
 Octapole moment (field-independent basis, Debye-Ang**2):
  XXX=              0.0000  YYY=             -0.0000  ZZZ=             -0.0000  XYY=              0.0000
  XXY=              0.0000  XXZ=             -0.0000  XZZ=             -0.0000  YZZ=             -0.0000
  YYZ=             -0.0000  XYZ=             -0.0000
 Hexadecapole moment (field-independent basis, Debye-Ang**3):
 XXXX=           -629.4792 YYYY=            -44.1172 ZZZZ=           -105.3893 XXXY=             -0.1396
 XXXZ=              0.0006 YYYX=             -0.0093 YYYZ=             -0.1285 ZZZX=              0.0000
 ZZZY=             -0.1285 XXYY=            -70.9881 XXZZ=            -93.6249 YYZZ=            -24.9177
 XXYZ=             -0.0950 YYXZ=              0.0000 ZZXY=             -0.0032
 N-N= 9.844640855749D+00 E-N=-1.386767257295D+02  KE= 5.042696164109D+01
                          Isotropic Fermi Contact Couplings
        Atom                 a.u.       MegaHertz       Gauss      10(-4) cm-1
     1  B(11)              0.01075      15.42615       5.50443       5.14561
     2  B(11)              0.01075      15.42615       5.50443       5.14561
     3  H(1)              -0.00123      -5.48147      -1.95592      -1.82842
     4  H(1)              -0.00123      -5.48147      -1.95592      -1.82842
 --------------------------------------------------------
       Center         ----  Spin Dipole Couplings  ----
                      3XX-RR        3YY-RR        3ZZ-RR
 --------------------------------------------------------
     1   Atom       -0.064350     -0.095278      0.159628
     2   Atom       -0.064350     -0.095278      0.159628
     3   Atom        0.014829     -0.015883      0.001055
     4   Atom        0.014829     -0.015883      0.001055
 --------------------------------------------------------
                        XY            XZ            YZ
 --------------------------------------------------------
     1   Atom        0.000075     -0.000000      0.001070
     2   Atom        0.000075     -0.000000      0.001070
     3   Atom        0.000022     -0.000000      0.000071
     4   Atom        0.000022     -0.000000      0.000071
 --------------------------------------------------------


 ---------------------------------------------------------------------------------
              Anisotropic Spin Dipole Couplings in Principal Axis System
 ---------------------------------------------------------------------------------

       Atom             a.u.   MegaHertz   Gauss  10(-4) cm-1        Axes

              Baa    -0.0953   -16.314    -5.821    -5.442 -0.0024  1.0000 -0.0042
     1 B(11)  Bbb    -0.0643   -11.018    -3.931    -3.675  1.0000  0.0024 -0.0000
              Bcc     0.1596    27.331     9.753     9.117 -0.0000  0.0042  1.0000
 
              Baa    -0.0953   -16.314    -5.821    -5.442 -0.0024  1.0000 -0.0042
     2 B(11)  Bbb    -0.0643   -11.018    -3.931    -3.675  1.0000  0.0024 -0.0000
              Bcc     0.1596    27.331     9.753     9.117  0.0000  0.0042  1.0000
 
              Baa    -0.0159    -8.475    -3.024    -2.827 -0.0007  1.0000 -0.0042
     3 H(1)   Bbb     0.0011     0.563     0.201     0.188  0.0000  0.0042  1.0000
              Bcc     0.0148     7.912     2.823     2.639  1.0000  0.0007 -0.0000
 
              Baa    -0.0159    -8.475    -3.024    -2.827 -0.0007  1.0000 -0.0042
     4 H(1)   Bbb     0.0011     0.563     0.201     0.188 -0.0000  0.0042  1.0000
              Bcc     0.0148     7.912     2.823     2.639  1.0000  0.0007 -0.0000
 

 ---------------------------------------------------------------------------------

 No NMR shielding tensors so no spin-rotation constants.
 Leave Link  601 at Mon Apr 21 17:26:44 2025, MaxMem=   536870912 cpu:               1.6 elap:               0.3
 (Enter /home/szhao/Apps/g16/l9999.exe)
 1\1\GINC-NODE03\FOpt\UM062X\6-311+G(d,p)\B2H2(1-,2)\SZHAO\21-Apr-2025\
 0\\#p opt UM062X/6-311+G** nosymm int=superfine\\Title Card Required\\
 -1,2\B,-1.49140401,0.,0.\B,1.49140401,0.,0.\H,-2.7889617615,-0.0009779
 463,0.0000042347\H,2.7889617615,0.0009779463,-0.0000039707\\Version=ES
 64L-G16RevA.03\HF=-50.5495282\S2=0.752158\S2-1=0.\S2A=0.750003\RMSD=7.
 015e-09\RMSF=7.574e-05\Dipole=0.,0.,0.0000001\Quadrupole=-8.0818328,6.
 804729,1.2771039,-0.001248,0.0000052,-0.0231934\PG=C02 [X(B2H2)]\\@


 "ANNA, YOU MUSN'T SPEAK OF OXIDIZED MURIATIC ACID
 ANYMORE, FROM NOW ON YOU MUST SAY CHLORINE."
   -- JENS JACOB BERZELIUS, IN 1820, TO HIS COOK, WHO HAD
 COMPLAINED OF THE SMELL OF THE FLASK SHE WAS CLEANING.
 Job cpu time:       0 days  0 hours  4 minutes 33.4 seconds.
 Elapsed time:       0 days  0 hours  0 minutes 38.0 seconds.
 File lengths (MBytes):  RWF=     17 Int=      0 D2E=      0 Chk=      2 Scr=      2
 Normal termination of Gaussian 16 at Mon Apr 21 17:26:45 2025.
